64
Lattice="10.459550008355851 0.02810178945650195 0.0038137964160045988 5.254111867739057 9.007890260668841 -0.08845322543357977 0.0031139517340221102 -0.08519234156775629 8.947151015892771" Properties=species:S:1:pos:R:3:tags:I:1:initial_magmoms:R:1:forces:R:3 unique_id=d8b9ce96b333476883949fa24cbe9a02 stress="0.0002875481223669832 1.8690705607296007e-06 -6.973537124304389e-06 1.8690705607296007e-06 0.0002848331273513152 5.331166941091078e-06 -6.973537124304389e-06 5.331166941091078e-06 0.00024857329984952214" energy=-404.7464023025695 pbc="T T T"
Ni      -0.06839252      -0.02733293       0.18054314        4       1.00000000      -0.19177684      -0.07460400       0.10386869
Ni       2.64945760      -0.03753021       0.17809289        4       1.00000000       0.13136074      -0.09714292       0.14715088
Ni       5.25756084      -0.03209699       0.16162790        4       1.00000000       0.08943022      -0.01852159       0.10943294
Ni       7.87055254      -0.03607502       0.12279313        4       1.00000000       0.00655634      -0.13404022       0.07359164
Pt       1.28612182       2.26793054       0.11119415        4       0.00000000      -0.00551955      -0.01152435      -0.12579553
Pt       3.93134870       2.30061974       0.14203554        4       0.00000000       0.01737103       0.08018396      -0.08184617
Pt       6.57524654       2.17923339       0.12373640        4       0.00000000       0.04326713      -0.13913591      -0.07217055
Ni       9.15174879       2.22388472       0.14634345        4       1.00000000      -0.04889197      -0.15263742       0.15114872
Ni       2.62683281       4.54311664       0.01658477        4       1.00000000       0.02984960       0.04596790      -0.05881767
Ni       5.25549162       4.51224781       0.11775870        4       1.00000000       0.20485287      -0.06102107       0.10177601
Pt       7.93248339       4.52645704       0.02957076        4       0.00000000       0.08160210      -0.06557333      -0.12516345
Ni      10.48730112       4.56807681       0.01321051        4       1.00000000       0.04130821       0.09019916      -0.01900307
Ni       3.90850825       6.77813058       0.10851402        4       1.00000000      -0.02472774       0.04439726       0.08307861
Pt       6.53400587       6.79716945       0.14186791        4       0.00000000      -0.00473098      -0.02300476       0.01142357
Ni       9.19485176       6.77028213       0.00861513        4       1.00000000      -0.00091682      -0.03563025      -0.03048726
Ni      11.81120500       6.77775119      -0.00700107        4       1.00000000       0.10248591       0.00240704      -0.08146262
Pt       1.27199276       0.65117791       2.18393986        3       0.00000000      -0.03303897      -0.04648131       0.06919919
Pt       3.99130985       0.75574251       2.24191350        3       0.00000000       0.03644835       0.00788620       0.09358058
Ni       6.58400974       0.72243979       2.26501655        3       1.00000000       0.06080614      -0.05372526       0.04286710
Ni       9.09354652       0.71020892       2.19970174        3       1.00000000      -0.11252932      -0.00061466       0.01105955
Ni       2.62139443       3.00467487       2.22421970        3       1.00000000      -0.07291391       0.00615408       0.03577403
Ni       5.26290391       2.99965442       2.24923492        3       1.00000000       0.05784061       0.01232295       0.02514866
Pt       7.79560766       3.00073070       2.33369511        3       0.00000000      -0.01737304       0.03328722       0.00675723
Pt      10.39776095       3.05100445       2.21261628        3       0.00000000      -0.08801823       0.06584286       0.04048957
Pt       3.96932743       5.25880731       2.11598226        3       0.00000000       0.02605493      -0.01853033       0.03219911
Ni       6.59003250       5.25000518       2.21374604        3       1.00000000       0.08975006       0.01414569       0.00647192
Ni       9.13233562       5.28127445       2.24160237        3       1.00000000      -0.03137932       0.01472670       0.06902448
Pt      11.80181260       5.28117484       2.14464863        3       0.00000000       0.03594204      -0.00839631      -0.02955670
Ni       5.20389713       7.48732484       2.14664765        3       1.00000000      -0.08547884       0.00974732       0.01922088
Ni       7.88802380       7.43005451       2.17647799        3       1.00000000       0.05158306      -0.08733287       0.05596989
Pt      10.48590991       7.47171686       2.08152632        3       0.00000000      -0.01941031      -0.02987338       0.00036248
Ni      13.10892967       7.55238937       2.11932576        3       1.00000000      -0.04675185       0.01501769      -0.06903184
Pt      -0.10412022       1.50514074       4.38561087        2       0.00000000      -0.12786513       0.03443282      -0.01144841
Pt       2.63000235       1.47616816       4.37700268        2       0.00000000      -0.08418698      -0.03208304      -0.05053292
Ni       5.29306958       1.47656458       4.38650813        2       1.00000000       0.05589093      -0.02459528      -0.11917005
Ni       7.81080151       1.49485969       4.39002060        2       1.00000000      -0.03920728      -0.04065907      -0.08419422
Pt       1.27284413       3.84329900       4.43139684        2       0.00000000      -0.01245701       0.06412226      -0.07609382
Pt       3.97220962       3.71751247       4.33545767        2       0.00000000       0.00881988       0.00309448      -0.04772913
Ni       6.59258257       3.71834174       4.40941445        2       1.00000000      -0.00375257       0.00745834       0.03829708
Ni       9.11426860       3.80147745       4.43239067        2       1.00000000      -0.00092701       0.05059438      -0.03661690
Ni       2.60898696       5.96904375       4.40240442        2       1.00000000       0.04377151       0.02376826      -0.07871956
Pt       5.30737994       5.92151132       4.31174292        2       0.00000000       0.03909527      -0.03602826       0.01836662
Ni       7.91980935       5.88893291       4.36162775        2       1.00000000       0.01400440      -0.05901572      -0.11629965
Ni      10.44022665       5.96525146       4.43235565        2       1.00000000      -0.03908333       0.01510219      -0.08493355
Pt       3.89881116       8.19959531       4.27324220        2       0.00000000       0.02829320      -0.04535952      -0.03577172
Pt       6.57803829       8.16782732       4.29810215        2       0.00000000      -0.02235188       0.03493332       0.00748781
Pt       9.19583022       8.12252451       4.35643480        2       0.00000000      -0.01685398       0.02720136       0.02420916
Pt      11.80464550       8.22167101       4.33821709        2       0.00000000      -0.02740800      -0.03547770      -0.03118341
Pt      -0.05750725      -0.06003511       6.71828693        1       0.00000000      -0.02635394       0.06941523       0.09091728
Pt       2.64612971      -0.08429811       6.72807731        1       0.00000000       0.01600720       0.06410622       0.16178674
Pt       5.29736358      -0.15183817       6.71534537        1       0.00000000       0.04430668      -0.08672881       0.11849760
Ni       7.83769882      -0.03786453       6.64098581        1       1.00000000       0.02389302       0.08217498      -0.09422062
Pt       1.29678582       2.30112106       6.57556992        1       0.00000000      -0.01944235       0.09055761       0.06270497
Pt       3.93756750       2.22344657       6.56610332        1       0.00000000       0.04416275      -0.01316897       0.03430762
Pt       6.57538465       2.19421487       6.49346080        1       0.00000000      -0.01750696      -0.00743554      -0.04561779
Pt       9.13267541       2.31385803       6.65271895        1       0.00000000       0.01310561       0.16261074       0.16624391
Ni       2.58094095       4.49414555       6.59608751        1       1.00000000      -0.05379404       0.08212940      -0.09707439
Pt       5.25489515       4.46826630       6.63655331        1       0.00000000      -0.02896374       0.05394896       0.09566415
Ni       7.91479308       4.48948221       6.48113797        1       1.00000000       0.02175569       0.09198619      -0.15668785
Ni      10.44598810       4.56098971       6.58183044        1       1.00000000      -0.06190385       0.13360101      -0.08177762
Pt       3.80248392       6.68972410       6.63139745        1       0.00000000      -0.08299154       0.07008344       0.09142456
Pt       6.64472452       6.65016907       6.54055851        1       0.00000000       0.04574551       0.03211084       0.03476843
Ni       9.21891174       6.63532385       6.55624183        1       1.00000000       0.02458233      -0.05585760      -0.11985112
Ni      11.75172682       6.65408142       6.56439886        1       1.00000000      -0.08143604      -0.14151862      -0.17301410
