64
Lattice="10.64523881024 0.004945562232153416 0.014396880557389776 5.3269023876490404 9.205584206484202 -0.039214473910749094 0.0 0.0 21.8573355911412" Properties=species:S:1:pos:R:3:tags:I:1:initial_magmoms:R:1:forces:R:3 unique_id=3e8f9ca9348449368ae4d513c4aff535 energy=-392.2772713995631 stress="0.007463249231194128 -2.1097933893580898e-05 8.388996062704049e-05 -2.1097933893580898e-05 0.007688781491421818 -0.0002816957467144911 8.388996062704049e-05 -0.0002816957467144911 -0.0006087640045871479" pbc="T T T"
Ni      -0.01662058       0.04735632       0.16466945        2       1.00000000       0.06346890       0.03760450       0.11231058
Pt       2.56467102       0.04659944       0.16512337        2       0.00000000      -0.14465355       0.05387529      -0.41128705
Pt       5.34887196      -0.00806055       0.04789046        0       0.00000000      -0.08179435       0.08709953      -0.03712542
Ni       8.01568461       0.01378140       0.16235528        2       1.00000000       0.02659740      -0.03166958       0.13499895
Ni       1.28878741       2.27579959       0.16052046        2       1.00000000      -0.04954380      -0.08799376       0.12548533
Pt       3.95675165       2.29208901       0.13528972        1       0.00000000       0.08040398      -0.04569821      -0.69788528
Pt       6.73940910       2.25207169       0.13409135        1       0.00000000      -0.02929254      -0.03462429      -0.69192375
Ni       9.34998657       2.26464700       0.09078088        1       1.00000000       0.04621238      -0.05910275       0.43971025
Pt       2.62768513       4.58437039       0.04868816        0       0.00000000      -0.06669279       0.08463287      -0.00594511
Pt       5.32184142       4.60525886       0.12378430        1       0.00000000       0.01652373       0.00953355      -0.72146536
Pt       8.02292911       4.56403497       0.02141887        0       0.00000000      -0.03366305       0.00154194       0.01552485
Pt      10.65301660       4.52056651       0.02756819        0       0.00000000       0.11210901      -0.04374025       0.25479829
Pt       3.98722726       6.99457635       0.10059309        1       0.00000000       0.03310686       0.05809099      -0.26628667
Pt       6.64409813       6.93949560       0.09622451        1       0.00000000      -0.03813607       0.01671163      -0.44621463
Pt       9.32067778       6.90058634       0.00000000        0       0.00000000      -0.12581413       0.02208849       0.02709722
Pt      11.99572984       6.91340017       0.02762860        0       0.00000000       0.07630662      -0.11685592       0.13271856
Ni       1.31629916       0.76536131       2.32664125        3       1.00000000      -0.01999099       0.09635334       0.27451284
Pt       3.96371980       0.74651444       2.37543091        4       0.00000000       0.06821868      -0.12082456       0.28710273
Pt       6.67786422       0.72198258       2.36781810        4       0.00000000       0.02230156      -0.10171441       0.26072727
Pt       9.35962848       0.76134220       2.27982233        3       0.00000000      -0.05436472       0.08223734       0.03628136
Pt       2.59289302       3.06758384       2.35576846        4       0.00000000      -0.06336542      -0.01593034       0.23215973
Pt       5.32052582       3.06016649       2.38341659        4       0.00000000      -0.02428871       0.01865776       0.45149148
Pt       8.04369575       3.05651758       2.37169652        4       0.00000000       0.11853773      -0.00914484       0.23504200
Pt      10.67887811       3.06080496       2.35990343        4       0.00000000      -0.02869593       0.00210364       0.17515962
Pt       3.92648093       5.37727000       2.37259726        4       0.00000000      -0.05073581       0.02911177       0.28204936
Pt       6.67873889       5.37778248       2.37761715        4       0.00000000       0.02296586       0.01921202       0.28522239
Pt       9.36446629       5.35471072       2.42429598        4       0.00000000       0.07850869       0.04227136       0.27428669
Ni      11.97814698       5.35518096       2.37362959        4       1.00000000      -0.04774067      -0.01224330       0.26131749
Pt       5.34248363       7.73227529       2.36819089        4       0.00000000       0.00334760       0.08210485       0.29460018
Pt       7.97268653       7.68124368       2.41240340        4       0.00000000       0.12285789      -0.03416187       0.33612200
Pt      10.68013473       7.62027759       2.39070175        4       0.00000000      -0.04585404      -0.10820290       0.23403847
Pt      13.30184442       7.64741890       2.43726248        4       0.00000000       0.03161143       0.04687818       0.35130544
Pt      -0.00118560       1.53067962       4.58244945        5       0.00000000      -0.06128849       0.07939610      -0.15004023
Pt       2.60177007       1.49812207       4.56356874        5       0.00000000      -0.08761575      -0.03577154      -0.27584996
Pt       5.35121623       1.46299789       4.62975941        5       0.00000000       0.01646001      -0.08404075      -0.28696102
Pt       8.04772746       1.47307923       4.61361097        5       0.00000000       0.14167533      -0.06435736      -0.15947100
Ni       1.31268508       3.84463546       4.60517268        5       1.00000000      -0.05807314      -0.02263347      -0.18650490
Pt       3.90698162       3.87439280       4.61564837        5       0.00000000      -0.13396472       0.10485243      -0.19514651
Pt       6.75230165       3.86849228       4.62126830        5       0.00000000       0.10520389       0.11104653      -0.24826013
Ni       9.35206937       3.83195543       4.65390349        6       1.00000000       0.09521399      -0.06164392      -0.00542184
Ni       2.62122424       6.13126476       4.59297593        5       1.00000000      -0.10928498       0.01322430      -0.20963498
Pt       5.32251407       6.19936839       4.55609592        5       0.00000000      -0.04017063       0.13004146      -0.27711868
Ni       8.03074252       6.10817458       4.61299910        5       1.00000000       0.14458420      -0.06190972      -0.24101438
Pt      10.71181620       6.04666398       4.68103465        6       0.00000000       0.05449829      -0.06789067      -0.12665345
Ni       3.98191060       8.40909017       4.57043478        5       1.00000000      -0.00187936       0.06957786      -0.22279456
Ni       6.65180084       8.42010965       4.57166614        5       1.00000000      -0.08126962       0.05448427      -0.27505941
Pt       9.34022253       8.33463577       4.63144994        5       0.00000000       0.10994025      -0.15462775      -0.12939526
Ni      12.01279167       8.37456082       4.61888951        5       1.00000000       0.07801632      -0.14092926      -0.13359942
Pt      -0.02096493      -0.00663171       6.83269128        8       0.00000000      -0.02306839      -0.12279247      -0.26442188
Pt       2.69410112      -0.04686576       6.79227388        8       0.00000000      -0.09619772      -0.02520635       0.46941725
Ni       5.34506271      -0.07563843       6.76563119        8       1.00000000       0.04940970      -0.11088990      -0.07902920
Pt       7.93389773      -0.05623370       6.84564946        8       0.00000000      -0.11242019      -0.18742364      -0.16598673
Pt       1.27499252       2.37868748       6.85733559        9       0.00000000       0.01273180       0.24103094      -0.24345511
Pt       3.98695508       2.27326029       6.78448061        8       0.00000000       0.02987775       0.08298361       0.74449168
Pt       6.72946519       2.28870790       6.79601633        8       0.00000000      -0.03270164       0.13889885       0.73269137
Ni       9.32613764       2.30904861       6.84193265        8       1.00000000      -0.03389042       0.17445799      -0.52851229
Ni       2.61892377       4.59758295       6.73859671        7       1.00000000      -0.23384145       0.11953105      -0.19995619
Pt       5.33503902       4.58867257       6.76680381        8       0.00000000       0.03837127      -0.02034985       0.67979871
Ni       8.06179746       4.58051752       6.73379862        7       1.00000000       0.26046292       0.07616462      -0.22858126
Ni      10.63822320       4.58643722       6.73685708        7       1.00000000      -0.04631403      -0.04222481      -0.29124974
Pt       3.91331708       6.85200947       6.71247192        7       0.00000000      -0.21469913       0.01131848       0.31864800
Pt       6.74833088       6.84370917       6.71160024        7       0.00000000       0.24248586       0.01462898       0.37051431
Ni       9.35576367       6.84448257       6.72798388        7       1.00000000       0.00297137      -0.13269216      -0.14447140
Ni      11.96425390       6.86587177       6.72555250        7       1.00000000      -0.03367506      -0.05445591      -0.28290162
