64
Lattice="10.449534584739075 -0.003697473595351059 0.04583037625865998 5.2215651863061385 9.066065229196225 0.004666611193063883 0.0 0.0 21.717327346901115" Properties=species:S:1:pos:R:3:tags:I:1:initial_magmoms:R:1:forces:R:3 unique_id=b6ab9a0aaf6046d0884cc957c6401424 stress="0.005850186439891058 -1.3643436253211247e-05 0.00010330945269881086 -1.3643436253211247e-05 0.005909506446050868 -0.00019333176597972386 0.00010330945269881086 -0.00019333176597972386 -0.0007724478066965905" energy=-384.0566256698098 pbc="T T T"
Pt      -0.09462078      -0.02406266       0.00000000        0       0.00000000      -0.23607284      -0.11559651       0.02675115
Ni       2.63885583      -0.03218883       0.00538003        0       1.00000000       0.08926170      -0.07638562       0.35751532
Ni       5.24017947      -0.04625305       0.08850004        1       1.00000000       0.16494272      -0.03450876      -0.04420809
Ni       7.83258505      -0.03224224       0.05816086        1       1.00000000      -0.17069246      -0.17865369       0.59420224
Pt       1.25969711       2.26349398       0.04029020        0       0.00000000       0.00363422       0.04436378      -0.99148104
Pt       3.94496938       2.20432246       0.05069781        1       0.00000000       0.19964232       0.16595890      -0.80086031
Pt       6.60940636       2.18881757       0.09558942        1       0.00000000      -0.09032802      -0.21021661      -0.17286809
Ni       9.13319566       2.27274068       0.03076488        0       1.00000000       0.02221923       0.00093430       0.36857999
Pt       2.57358846       4.61215177       0.03567093        0       0.00000000       0.05855866       0.02313518      -0.95677182
Pt       5.28576477       4.53928297       0.09135376        1       0.00000000       0.26287790      -0.21858530      -0.48341236
Ni       7.88744903       4.53716172       0.09736606        1       1.00000000       0.14709673       0.04081472       0.38387778
Ni      10.40032754       4.55990402       0.02951717        0       1.00000000      -0.15117914       0.13351227       0.40633659
Ni       3.89694717       6.83213919       0.09283443        1       1.00000000      -0.08924856       0.08141019       0.09033983
Pt       6.60843468       6.81446620       0.14858450        1       0.00000000       0.08206174      -0.03249802      -0.22687074
Ni       9.16157042       6.78835088       0.03553340        0       1.00000000       0.06407221      -0.10358682       0.52489704
Ni      11.74381413       6.82998954       0.10548849        1       1.00000000       0.10340888       0.13659800       0.00135332
Pt       1.28843133       0.65782361       2.19654627        2       0.00000000       0.00563418      -0.09000452       0.07319912
Pt       3.99951412       0.72189706       2.22835783        2       0.00000000       0.06733209       0.01763572       0.19117707
Ni       6.57481151       0.74034919       2.23665129        2       1.00000000       0.18777656      -0.04294275       0.20556905
Ni       9.10215652       0.72332755       2.22678500        2       1.00000000      -0.22959988      -0.00545848       0.04960710
Pt       2.66575938       3.03920180       2.26011972        3       0.00000000       0.05405020       0.13391277       0.33535491
Ni       5.26489211       3.01566565       2.27533641        3       1.00000000       0.04197189       0.03064084       0.56081669
Pt       7.79080770       3.03623150       2.30662385        3       0.00000000      -0.14599184       0.05093162       0.23726781
Pt      10.36441711       3.03557675       2.22622269        2       0.00000000      -0.21589374      -0.01380001       0.04015188
Pt       3.98795304       5.34876233       2.22401918        2       0.00000000       0.04425056       0.13735351       0.02140556
Ni       6.59061207       5.29045278       2.24071243        2       1.00000000       0.27102063      -0.00097218       0.32624787
Ni       9.10383154       5.30425459       2.23111357        2       1.00000000      -0.25052083       0.12312810       0.13525368
Pt      11.69684656       5.33541521       2.22982712        2       0.00000000      -0.16858058      -0.04901789       0.16517876
Ni       5.21778225       7.54798773       2.19491830        2       1.00000000      -0.07159593       0.03574525       0.23995999
Ni       7.85316119       7.49941415       2.22309354        2       1.00000000       0.15236275      -0.18524093       0.30195286
Pt      10.43999791       7.53921668       2.15111534        2       0.00000000      -0.12898474       0.01010954       0.07894574
Ni      13.08603234       7.60061503       2.19958380        2       1.00000000       0.03713666       0.22197361      -0.06058774
Pt      -0.10171511       1.54050178       4.43623520        4       0.00000000      -0.31159476       0.10607957      -0.27219331
Pt       2.67347586       1.50280401       4.41932143        4       0.00000000      -0.00151663      -0.06481659      -0.17407479
Ni       5.28274035       1.54223048       4.41203806        4       1.00000000       0.10628988       0.18203775      -0.47833556
Ni       7.83557244       1.53183089       4.43738481        4       1.00000000      -0.11598834       0.10526139      -0.30261467
Pt       1.23381310       3.81382110       4.42803477        4       0.00000000      -0.25438089       0.14868215      -0.11670215
Ni       3.98478735       3.74404091       4.41712626        4       1.00000000       0.18278048      -0.06427910      -0.43881019
Ni       6.56981294       3.74124700       4.41901023        4       1.00000000       0.02467665      -0.05117719      -0.32654038
Ni       9.11761706       3.79857464       4.46281350        5       1.00000000      -0.24965187       0.11223316      -0.21431281
Pt       2.61272123       6.05109425       4.38563007        4       0.00000000      -0.03297479       0.07513244      -0.16557086
Pt       5.32280439       5.97325098       4.35817674        4       0.00000000       0.22306732      -0.07311991      -0.17215196
Ni       7.89417507       5.98527187       4.42134997        4       1.00000000       0.15840585      -0.26001772      -0.36986755
Ni      10.40945886       6.01286825       4.48524427        5       1.00000000      -0.17103135      -0.03816957      -0.06021895
Pt       3.91257782       8.33845354       4.37138649        4       0.00000000       0.01630338      -0.06239634      -0.32003725
Pt       6.55945958       8.28036366       4.41725145        4       0.00000000      -0.07526371       0.01632261      -0.16859870
Pt       9.16272320       8.21444242       4.47012494        5       0.00000000       0.01440596      -0.22215529      -0.08129631
Pt      11.76729382       8.37627123       4.41079112        4       0.00000000      -0.11201172       0.20240511      -0.25155391
Ni       0.00647591       0.00991590       6.59180141        7       1.00000000      -0.08065697      -0.01627774      -0.03036176
Ni       2.63496436      -0.02437639       6.66599245        8       1.00000000      -0.07053987       0.07812961      -0.19689035
Pt       5.22018199      -0.04387683       6.71135060        8       0.00000000       0.03682265       0.16264483       0.08793359
Ni       7.88737366       0.00656969       6.68502471        8       1.00000000       0.05079168       0.03673844      -0.39501615
Pt       1.24196485       2.20833611       6.60441806        7       0.00000000       0.01869505      -0.04986498       0.89268020
Pt       3.94668972       2.22028475       6.57353334        7       0.00000000       0.08715018       0.08143667       0.79939074
Pt       6.64133636       2.20769627       6.54580007        6       0.00000000       0.02343748      -0.01747994       0.24377136
Ni       9.16838467       2.23749398       6.68335850        8       1.00000000      -0.02721035      -0.05987108      -0.30729343
Pt       2.60319316       4.51469782       6.58485864        7       0.00000000       0.16639686      -0.16439148       0.85442373
Pt       5.28270410       4.51071091       6.57121491        7       0.00000000       0.20100633       0.01882418       0.53041906
Pt       7.97657276       4.52291960       6.62870643        7       0.00000000      -0.13354680      -0.01276937      -0.34062860
Ni      10.44623277       4.52329971       6.67653471        8       1.00000000       0.08128258      -0.04573061      -0.28390951
Pt       3.93972340       6.87761264       6.69514625        8       0.00000000       0.13830015       0.02467825       0.09618415
Pt       6.63325600       6.84109644       6.62732341        7       0.00000000       0.01533159      -0.10605508       0.34169184
Ni       9.16993410       6.77383035       6.67024001        8       1.00000000       0.07019259      -0.01515591      -0.27311430
Pt      11.70526685       6.77062513       6.71732735        8       0.00000000      -0.08959190      -0.05756844      -0.08528238
