64
Lattice="10.678193804080053 0.015504105703820511 -0.014089396448538299 5.352523851442552 9.266968395940685 0.009254438973678364 0.0 0.0 21.929544734915005" Properties=species:S:1:pos:R:3:tags:I:1:initial_magmoms:R:1:forces:R:3 unique_id=052a61b9df194f81abf5c873ac9968c5 stress="0.004139399175650314 0.0001108465086356849 -0.0001136028911557153 0.0001108465086356849 0.004303551583368266 -1.7756550164432238e-05 -0.0001136028911557153 -1.7756550164432238e-05 -0.0021897793093419438" energy=-397.10387425636054 pbc="T T T"
Pt       0.04366722       0.01045246       0.00343082        0       0.00000000       0.00083098      -0.01770816       0.09837375
Ni       2.67963103       0.02645362       0.12134326        1       1.00000000       0.02419605       0.03668122       0.22867743
Pt       5.24736784       0.06668089       0.02738163        0       0.00000000      -0.08038867       0.04349995       0.16138642
Pt       7.99909213       0.03059917       0.07114212        1       0.00000000      -0.06709978       0.06433443      -0.32294987
Pt       1.39128090       2.28128845       0.01157566        0       0.00000000      -0.01768848      -0.00045589       0.18999574
Ni       3.99886868       2.29897583       0.12327780        1       1.00000000      -0.00980035      -0.03189124       0.19266990
Pt       6.64126942       2.31865103       0.00000000        0       0.00000000       0.01437927      -0.02797165       0.06777103
Pt       9.36258952       2.33188286       0.00957722        0       0.00000000       0.05920489      -0.03041418       0.19075989
Pt       2.69314945       4.59015235       0.10128241        1       0.00000000       0.02826547       0.02962434      -0.48794480
Pt       5.34217209       4.61193815       0.11706892        1       0.00000000       0.14582945       0.07990392      -0.50212000
Pt       8.00614017       4.63974488       0.10497623        1       0.00000000      -0.15912433       0.09458046      -0.32920590
Pt      10.68771505       4.62249016       0.01460472        0       0.00000000       0.01701049      -0.04348591      -0.00522484
Pt       4.02226334       6.95274667       0.09882977        1       0.00000000       0.00476224      -0.01521127      -0.64557106
Pt       6.69862157       6.97197791       0.12597668        1       0.00000000       0.02044329      -0.18534283      -0.45177427
Pt       9.34169147       6.99266382       0.10081690        1       0.00000000       0.00738859      -0.00982063      -0.47713796
Pt      12.00775315       6.96853258       0.09596173        1       0.00000000      -0.05993537       0.02396761      -0.50350829
Pt       1.34751467       0.80635292       2.33789287        2       0.00000000       0.00560320      -0.01182054       0.17374923
Ni       3.99299248       0.78630503       2.29579137        2       1.00000000      -0.04188589       0.01770329       0.22678386
Pt       6.65141784       0.80878547       2.36766331        3       0.00000000       0.04733865       0.06464271       0.29592448
Pt       9.37866119       0.85533064       2.39562961        3       0.00000000       0.09648415       0.08230165       0.30971949
Pt       2.66853294       3.04200814       2.32002189        2       0.00000000       0.03425913      -0.07778820       0.23815473
Pt       5.33912651       3.07142241       2.32280878        2       0.00000000       0.04010335      -0.09400767       0.27015452
Pt       8.04046927       3.10915678       2.39885554        3       0.00000000      -0.02585094      -0.02945064       0.27703592
Ni      10.67680588       3.10034402       2.35459726        3       1.00000000       0.01159212      -0.01115913       0.28076533
Pt       4.03894198       5.39529485       2.35006992        3       0.00000000      -0.00078085      -0.03549389       0.35967030
Ni       6.68963575       5.40868897       2.32147911        2       1.00000000       0.05202739      -0.04252070       0.44900979
Pt       9.33471223       5.37314830       2.36954433        3       0.00000000       0.01661036      -0.01987083       0.29405854
Pt      11.98624332       5.36414262       2.34822153        2       0.00000000      -0.06183283      -0.13006637       0.38525876
Pt       5.36924698       7.73258256       2.36510509        3       0.00000000      -0.00766715       0.15499199       0.33931441
Pt       8.02251442       7.76168851       2.33392915        2       0.00000000       0.03071556       0.11754102       0.30124037
Pt      10.66089289       7.77431758       2.36017369        3       0.00000000       0.00551545       0.01596492       0.32367614
Pt      13.35824799       7.75184199       2.34822349        2       0.00000000       0.02516813       0.06734277       0.43017567
Ni      -0.04730581       1.58819932       4.66494395        5       1.00000000      -0.17445234       0.07094480      -0.05323724
Pt       2.62731009       1.56559798       4.61959576        4       0.00000000      -0.06044964       0.06995681      -0.20033562
Pt       5.37180452       1.55865200       4.65277465        5       0.00000000       0.06995306       0.03691456      -0.13758361
Ni       8.05370493       1.60062395       4.63809129        4       1.00000000       0.15321674       0.18249045      -0.19626229
Pt       1.20806279       3.78289976       4.64840031        4       0.00000000      -0.21011532      -0.17762646      -0.25483085
Pt       3.99243117       3.84473834       4.60224975        4       0.00000000      -0.05718055      -0.07824086      -0.36502342
Pt       6.74935670       3.81571171       4.60207633        4       0.00000000       0.03111078      -0.15316498      -0.26980173
Ni       9.35370115       3.81132999       4.62990825        4       1.00000000       0.00727519      -0.26448323      -0.22602467
Pt       2.66425904       6.18120144       4.60750245        4       0.00000000      -0.00122276      -0.02669908      -0.43384743
Pt       5.36701168       6.17772800       4.57907777        4       0.00000000       0.00246251      -0.03667989      -0.41078777
Pt       8.01344807       6.15122459       4.57109071        4       0.00000000      -0.03385007      -0.00976138      -0.43482882
Pt      10.65698554       6.13516685       4.62503083        4       0.00000000      -0.04984317      -0.14724440      -0.27770370
Pt       4.02633395       8.61085538       4.64624579        4       0.00000000       0.04785670       0.16082165      -0.25963963
Pt       6.65352250       8.56317237       4.64263042        4       0.00000000      -0.04961756       0.11110894      -0.23817450
Pt       9.34767179       8.53750321       4.61718106        4       0.00000000      -0.01183421       0.06405305      -0.29158970
Pt      12.02982147       8.55138514       4.63520253        4       0.00000000      -0.01970290       0.01119362      -0.28940555
Ni      -0.00933091       0.05732567       6.81473369        6       1.00000000      -0.01249645       0.22577410      -0.23388208
Pt       2.62877905       0.05932319       6.92954473        7       0.00000000      -0.07902663       0.01772973       0.03703686
Ni       5.33496642       0.03591300       6.83217295        6       1.00000000       0.01470499      -0.01785638      -0.12915026
Pt       8.00735098       0.14750819       6.80158496        6       0.00000000       0.05533849       0.28226690       0.38257366
Ni       1.28464388       2.31880189       6.81896644        6       1.00000000      -0.18040636      -0.10341881      -0.36093994
Pt       4.02522502       2.28771400       6.92841631        7       0.00000000      -0.02202291      -0.01631651      -0.02891375
Ni       6.68201757       2.32202524       6.80976092        6       1.00000000       0.09321638       0.00385596      -0.21105492
Ni       9.36619899       2.33443588       6.77183792        6       1.00000000       0.12286908      -0.01419477      -0.57476050
Pt       2.60369297       4.59156143       6.84018546        6       0.00000000      -0.05770867      -0.04761137       0.46332607
Pt       5.36493254       4.60811895       6.83801246        6       0.00000000       0.06773607      -0.05392424       0.41506262
Pt       8.08715231       4.55567007       6.81394993        6       0.00000000       0.26183398      -0.11990807       0.24699312
Ni      10.66933222       4.61576018       6.80959315        6       1.00000000      -0.05685615      -0.09634638      -0.22996650
Pt       4.00683778       7.00625774       6.83538661        6       0.00000000      -0.08074253       0.09444938       0.54132749
Pt       6.67694987       6.98617625       6.84645659        6       0.00000000       0.12422577      -0.06083439       0.47261921
Pt       9.36085270       6.96777014       6.84535490        6       0.00000000      -0.09410904      -0.05019912       0.61549712
Pt      11.99427414       6.98902749       6.83222728        6       0.00000000       0.04416394       0.06434981       0.57441959
