64
Lattice="9.824219056593137 0.009391859300328273 -0.008631638214370073 4.920243117039423 8.522111064303344 -3.381953804285687e-15 0.0 0.0 21.133966824065432" Properties=species:S:1:pos:R:3:tags:I:1:initial_magmoms:R:1:forces:R:3 unique_id=f3731c2559454041ab94c4de7328cc0b energy=-356.0222168426423 stress="0.0033174269048996414 0.0001214130159411787 -4.7851793181555294e-05 0.0001214130159411787 0.0034576225797733895 2.7627245674524776e-05 -4.7851793181555294e-05 2.7627245674524776e-05 -0.0016293113311200216" pbc="T T T"
Ni      -0.00072231       0.00413449       0.01688599        0       1.00000000       0.00805869      -0.02616520       0.02783771
Ni       2.45636700       0.00189882       0.11010622        1       1.00000000       0.01051301      -0.00044488      -0.48176442
Ni       4.91481938       0.00313139       0.01275035        0       1.00000000      -0.04754213       0.02744846       0.04327834
Ni       7.36487801       0.00971830       0.00511520        0       1.00000000       0.01881112      -0.02565806       0.04629604
Ni       1.22454336       2.13371325       0.01748777        0       1.00000000       0.02912908      -0.01681768       0.04364726
Ni       3.68666064       2.13282990       0.11010622        1       1.00000000       0.00564179      -0.00888209      -0.48176442
Ni       6.14379988       2.13625000       0.00821746        0       1.00000000      -0.01801652       0.01214833       0.05712391
Ni       8.59704641       2.13848745       0.00000000        0       1.00000000      -0.00758407       0.01345547       0.06486422
Ni       2.45617983       4.25961383       0.01688599        0       1.00000000       0.02668907       0.00610356       0.02783771
Ni       4.91844110       4.26248526       0.01539140        0       1.00000000      -0.02750249      -0.00488545       0.03705730
Ni       7.37168900       4.26606443       0.00219075        0       1.00000000       0.01218305      -0.00703389       0.06590841
Ni       9.82690342       4.26866228       0.00000000        0       1.00000000      -0.01544481      -0.00015974       0.06486422
Ni       3.68883665       6.39236023       0.10748120        1       1.00000000      -0.00822611       0.00474934      -0.51653703
Ni       6.14816470       6.39242903       0.01539140        0       1.00000000      -0.00952032       0.02626058       0.03705730
Ni       8.60221785       6.39435482       0.00821746        0       1.00000000      -0.01952903       0.00952860       0.05712391
Ni      11.05438739       6.40013600       0.00511520        0       1.00000000       0.03162609      -0.00346188       0.04629604
Ni       1.21623111       0.71853288       2.03354083        2       1.00000000       0.00009841       0.02498662       0.06686080
Ni       3.69267183       0.70873862       2.04426742        2       1.00000000       0.01509004      -0.00871224       0.08584330
Ni       6.14182030       0.71725653       2.01880490        2       1.00000000      -0.00166747       0.01681892       0.04483495
Ni       8.59323577       0.72130891       2.01500101        2       1.00000000      -0.01416520       0.00804722       0.01960262
Ni       2.44596939       2.84850206       2.03354083        2       1.00000000      -0.02158985      -0.01257853       0.06686080
Ni       4.92533348       2.85029512       2.03469594        2       1.00000000       0.02714252      -0.00232045       0.04566409
Ni       7.37145391       2.84796319       2.02163580        2       1.00000000       0.01716378       0.01121522       0.01914859
Ni       9.82130471       2.85177815       2.01981268        2       1.00000000      -0.03157567       0.01823022       0.01436064
Ni       3.68635655       4.96515080       2.03006844        2       1.00000000      -0.00909488      -0.01216814       0.02819749
Ni       6.14551874       4.97399417       2.02047473        2       1.00000000       0.01592639      -0.00919511       0.04532142
Ni       8.59968316       4.97531865       2.02163580        2       1.00000000      -0.00113078      -0.02047188       0.01914859
Ni      11.05231072       4.98055167       2.01500101        2       1.00000000      -0.01405170       0.00824381       0.01960262
Ni       4.92359622       7.10811278       2.03006844        2       1.00000000       0.00599048       0.01396046       0.02819749
Ni       7.37460344       7.09255512       2.03469594        2       1.00000000       0.01558083      -0.02234588       0.04566409
Ni       9.83011245       7.10556593       2.01880490        2       1.00000000      -0.01539935      -0.00696539       0.04483495
Ni      12.27551896       7.11624426       2.02767564        2       1.00000000      -0.01877332       0.01083878       0.01256659
Ni      -0.01090680       1.43003276       4.05834041        4       1.00000000       0.01589692       0.00619144      -0.03941562
Ni       2.43577303       1.43440948       4.01266252        3       1.00000000       0.03364340      -0.01942403       0.03264245
Ni       4.93812985       1.41530644       4.02880598        3       1.00000000      -0.03233708       0.02799465       0.05237922
Ni       7.37165178       1.43317207       4.05178413        4       1.00000000       0.00803535       0.00901415      -0.07463926
Ni       1.21622347       3.55548472       4.05834041        4       1.00000000       0.00258652      -0.01686285      -0.03941562
Ni       3.68478965       3.58512226       4.01965451        3       1.00000000       0.00516019      -0.06559268       0.07160975
Ni       6.15054328       3.55473655       4.05737729        4       1.00000000      -0.00210769      -0.00624843      -0.02502464
Ni       8.59639271       3.55898142       4.05928303        4       1.00000000       0.00036366      -0.00020996      -0.06717912
Ni       2.43253239       5.67618756       4.02734399        3       1.00000000       0.03108589       0.02516304      -0.01854887
Ni       4.93325916       5.67389256       4.02298737        3       1.00000000      -0.02643606       0.01526286      -0.02734025
Ni       7.37714416       5.67927159       4.05737729        4       1.00000000       0.00435745       0.00494953      -0.02502464
Ni       9.82502714       5.68254285       4.05178413        4       1.00000000      -0.00378881      -0.01146590      -0.07463926
Ni       3.68090825       7.83843797       4.02734399        3       1.00000000      -0.00624889      -0.03950269      -0.01854887
Ni       6.11795255       7.79948402       4.01965451        3       1.00000000       0.05938502       0.02832748       0.07160975
Ni       8.62373827       7.79896748       4.02880598        3       1.00000000      -0.04041262       0.01400741       0.05237922
Ni      11.06207676       7.81682544       4.05202658        4       1.00000000       0.00413945      -0.00238991      -0.03141861
Ni      -0.04927271       0.05201138       6.08463581        5       1.00000000      -0.01263180      -0.00522069       0.00082992
Pt       2.42587905      -0.05008028       6.13173775        5       0.00000000       0.04704251       0.03304178       0.29788120
Ni       4.96456054      -0.02558667       6.08290993        5       1.00000000      -0.10637072       0.06141316      -0.00201821
Ni       7.34491872       0.05249221       6.08028118        5       1.00000000       0.03679994      -0.05117086      -0.05617993
Ni       1.16423783       2.16853066       6.08848124        5       1.00000000       0.07894799      -0.04558064      -0.01546807
Pt       3.71643188       2.18522279       6.13173775        5       0.00000000      -0.00509377      -0.05726090       0.29788120
Ni       6.20249627       2.14324381       6.08423722        5       1.00000000      -0.03631087       0.04648610      -0.02549722
Ni       8.58957521       2.15317967       6.08193720        5       1.00000000      -0.00991255       0.05586153      -0.08077343
Ni       2.39044202       4.27772126       6.08463581        5       1.00000000      -0.00179465       0.01354980       0.00082992
Ni       4.97694803       4.27858907       6.08313254        5       1.00000000      -0.03372616      -0.06316607       0.01162806
Ni       7.38528486       4.25821486       6.08413034        5       1.00000000       0.08918209      -0.05148930      -0.05543652
Ni       9.81044399       4.26778642       6.08193720        5       1.00000000      -0.05333378      -0.01934625      -0.08077343
Pt       3.67545982       6.40008335       6.13396682        5       0.00000000      -0.04709360       0.02718950       0.19188445
Ni       6.16347186       6.33370863       6.08313254        5       1.00000000       0.03784035       0.06079074       0.01162806
Ni       8.62550922       6.34002535       6.08423722        5       1.00000000      -0.05841358       0.00820309      -0.02549722
Ni      11.00736445       6.39603429       6.08028118        5       1.00000000       0.06271523      -0.00628425      -0.05617993
