64
Lattice="10.161164368109748 -0.036394992517691974 0.04266283203090833 5.049063195964014 8.822494820777747 0.042215535015846545 0.0 0.0 21.554915863777314" Properties=species:S:1:pos:R:3:tags:I:1:initial_magmoms:R:1:forces:R:3 unique_id=67ec46b62acd4c5a88cff9614ba6cff2 energy=-369.93764258310904 stress="0.003967278672701765 -0.00015218466082204523 0.0004034793778879938 -0.00015218466082204523 0.004225526734949605 -3.5881283354640333e-05 0.0004034793778879938 -3.5881283354640333e-05 -0.002538046485660096" pbc="T T T"
Ni       0.07780248       0.02806314       0.12286215        1       1.00000000       0.16808716       0.12175226      -0.73716943
Ni       2.55036738      -0.00666204       0.19931593        2       1.00000000       0.01355876      -0.05259534      -0.27829622
Ni       5.02075938      -0.04989808       0.08833752        1       1.00000000      -0.03944066      -0.01579378       0.25817662
Pt       7.63401459      -0.07700934       0.00000000        0       0.00000000      -0.04043795       0.04326448      -0.57843815
Ni       1.27106089       2.22554237       0.10118494        1       1.00000000       0.04453203       0.02774075       0.37190279
Ni       3.75464340       2.20235578       0.20175795        2       1.00000000      -0.00819951       0.03462728      -0.06147617
Pt       6.31854054       2.27553221       0.18378826        2       0.00000000      -0.02766591       0.11610033      -1.00434508
Ni       8.94191220       2.24736343       0.08562541        1       1.00000000      -0.01581461       0.09843239       0.11271499
Ni       2.51266087       4.40252795       0.10562707        1       1.00000000      -0.05207535      -0.02520480       0.39458664
Ni       5.01855820       4.43049933       0.17884284        2       1.00000000      -0.17159296      -0.03902252      -0.30495324
Ni       7.66931396       4.42755304       0.08933521        1       1.00000000       0.18436993       0.02676903       0.06478894
Ni      10.15858825       4.38332457       0.13405497        1       1.00000000       0.02292663       0.07496473       0.36170459
Ni       3.79866855       6.55312878       0.06361539        1       1.00000000      -0.07643562      -0.07026068       0.03649513
Ni       6.36710655       6.60748020       0.06584192        1       1.00000000       0.17574289       0.05573645      -0.00682440
Ni       8.87304138       6.59416320       0.21002320        2       1.00000000      -0.02106310      -0.04890801       0.01214651
Ni      11.36740441       6.52763931       0.10697222        1       1.00000000      -0.10674756      -0.07180736       0.23671090
Ni       1.33828042       0.78481734       2.13397526        3       1.00000000       0.07103844       0.12555776       0.04524413
Ni       3.77153287       0.71131621       2.16143887        4       1.00000000      -0.00556498      -0.05885248       0.08163073
Pt       6.23615114       0.69218799       2.26270658        5       0.00000000      -0.08777487      -0.08909170       0.11348952
Pt       8.97286450       0.80825404       2.17617933        4       0.00000000      -0.01329146       0.04160628      -0.02866285
Ni       2.53005575       2.96776648       2.14541155        3       1.00000000      -0.09522234       0.09950948       0.01051481
Ni       4.98667233       2.94982624       2.23155487        4       1.00000000      -0.14804337      -0.05173711       0.26369061
Ni       7.68471745       2.97509270       2.20863087        4       1.00000000       0.18527474       0.08113842       0.09363059
Ni      10.19285470       2.98004919       2.19499458        4       1.00000000       0.05369111       0.07079702      -0.00000592
Ni       3.76657116       5.07638518       2.20087177        4       1.00000000      -0.06443002      -0.09567650       0.14200609
Pt       6.40282671       5.11825696       2.15303849        4       0.00000000       0.14270783      -0.07162238       0.04899154
Ni       8.93549337       5.13346129       2.22073289        4       1.00000000       0.12727883      -0.03546033       0.10747837
Ni      11.37812979       5.06963371       2.20020990        4       1.00000000      -0.09595356      -0.05096128      -0.03337866
Pt       5.10082338       7.32952828       2.13336810        3       0.00000000      -0.00386368      -0.03961757      -0.06616536
Ni       7.68136412       7.35362278       2.20115047        4       1.00000000       0.06837791      -0.03501881       0.15739077
Ni      10.07129010       7.28520222       2.23895924        4       1.00000000      -0.05670564      -0.11135758       0.12620451
Pt      12.60174462       7.20175484       2.24988999        4       0.00000000      -0.11944381      -0.15095661      -0.00120545
Ni       0.03006569       1.51888684       4.33956646        7       1.00000000       0.10455366      -0.02993463      -0.12230970
Pt       2.58432371       1.49622214       4.23159947        6       0.00000000       0.08267556       0.01907957       0.00502597
Ni       5.07220029       1.43403920       4.35689794        8       1.00000000      -0.05166308      -0.01865090      -0.00523163
Pt       7.68490551       1.47426457       4.34943635        7       0.00000000       0.05245666       0.04022750       0.10401879
Pt       1.24081786       3.75320115       4.32852802        7       0.00000000      -0.02596023      -0.01869782      -0.00226009
Ni       3.80605543       3.73119353       4.30853250        7       1.00000000      -0.02941045       0.05076792      -0.14407327
Pt       6.34828684       3.71470111       4.32261366        7       0.00000000      -0.04443734       0.06404978      -0.01870233
Ni       8.90928865       3.71156275       4.37470694        8       1.00000000       0.00616907       0.16435169      -0.10299884
Ni       2.51424851       5.86281814       4.38706352        8       1.00000000      -0.08573485      -0.06326972      -0.02050865
Ni       5.04353108       5.86597398       4.35143725        8       1.00000000       0.01886572      -0.10878055      -0.19186152
Ni       7.68112829       5.86204096       4.35958334        8       1.00000000       0.19598635      -0.01976430      -0.16180318
Ni      10.15399890       5.88985675       4.34697516        7       1.00000000      -0.04208919       0.02798075      -0.22068955
Pt       3.75309327       8.00888536       4.38571851        8       0.00000000       0.00033679      -0.01778389      -0.06694640
Pt       6.39845425       8.01881882       4.33191923        7       0.00000000       0.16839948      -0.11652693      -0.00729335
Ni       8.94417786       8.05226159       4.34091699        7       1.00000000       0.01750626      -0.01408827      -0.18037052
Ni      11.34634276       8.02030789       4.43333510        8       1.00000000      -0.10088783      -0.08151493      -0.03645985
Pt      -0.03783800       0.04647941       6.52896356       10       0.00000000      -0.12319258       0.10854038       0.30468520
Pt       2.58670217      -0.02466460       6.55491586       11       0.00000000       0.06321625      -0.05473757       0.18406722
Ni       5.14521373      -0.04923839       6.45337096       10       1.00000000      -0.00783740      -0.03065386      -0.13823400
Ni       7.59438639      -0.06481511       6.39405367        9       1.00000000      -0.09672949      -0.04547619       0.65315641
Ni       1.23895385       2.26942659       6.48342827       10       1.00000000      -0.02838396      -0.04947337      -0.16180296
Pt       3.78005509       2.26275900       6.52159640       10       0.00000000       0.13663596       0.19261968       0.19655045
Pt       6.40766313       2.17168521       6.48304605       10       0.00000000      -0.18554945       0.02348203       1.12160514
Ni       8.94779595       2.24880638       6.49853837       10       1.00000000       0.03070787       0.10665579      -0.08083419
Ni       2.49172437       4.47609815       6.48250326       10       1.00000000      -0.02630103       0.08257014      -0.20222015
Pt       5.05979828       4.52892647       6.53591106       10       0.00000000      -0.12543767      -0.11578609       0.22800495
Ni       7.66900142       4.40356373       6.49684499       10       1.00000000       0.05966511      -0.07528888      -0.11675916
Ni      10.17951868       4.37327862       6.52185759       10       1.00000000       0.00191905       0.03428526      -0.24143896
Ni       3.75277136       6.62285178       6.49721162       10       1.00000000      -0.09191569       0.01858529       0.00328739
Ni       6.35060970       6.60973256       6.50043826       10       1.00000000       0.07618443       0.07354574      -0.01242891
Pt       8.95044143       6.53774893       6.51087556       10       0.00000000       0.05532363       0.01008138      -0.18164014
Ni      11.46419979       6.59249601       6.49738214       10       1.00000000      -0.01289090      -0.06044685      -0.32211200
