64
Lattice="10.318071257830493 0.00813270808458872 -0.03643711661939576 5.166078760718062 8.860788107070434 -0.06686545491678957 0.0 0.0 21.553040393753772" Properties=species:S:1:pos:R:3:tags:I:1:initial_magmoms:R:1:forces:R:3 unique_id=0aa303a15b474f0ab8b8730f52b5eb5c energy=-375.5100876606712 stress="0.005816312099051316 9.47744866341692e-05 -0.00020804271141319387 9.47744866341692e-05 0.004967955704119979 -3.6771489994285304e-05 -0.00020804271141319387 -3.6771489994285304e-05 -0.0021975687176302265" pbc="T T T"
Ni       0.00789593      -0.00453233       0.19264171        2       1.00000000       0.10505706       0.06206706      -0.14788342
Ni       2.57063264       0.00042377       0.20114684        2       1.00000000      -0.03216007       0.02958288       0.00565138
Ni       5.15414133      -0.02560007       0.15724541        2       1.00000000      -0.04360257       0.05606923      -0.34565381
Ni       7.72670405      -0.05136023       0.15616028        2       1.00000000      -0.06590840      -0.07073341      -0.16043957
Ni       1.28524203       2.21909533       0.17789238        2       1.00000000      -0.02508252       0.01458573       0.11461778
Pt       3.78556201       2.17872930       0.17672144        2       0.00000000       0.01955101       0.03135786      -0.48011956
Pt       6.46411971       2.16648408       0.08218768        1       0.00000000       0.01206277      -0.12975834      -0.19028457
Pt       9.09470380       2.26596553       0.09236683        1       0.00000000       0.06675724       0.06198949      -0.57767422
Ni       2.53519296       4.45193401       0.03701428        0       1.00000000      -0.06000901      -0.03258396       0.16543494
Pt       5.14817976       4.45801972       0.00549290        0       0.00000000       0.02009048      -0.09320636      -0.29931060
Ni       7.75823330       4.45312580       0.03271727        0       1.00000000      -0.01424907       0.03383383       0.07192508
Ni      10.33955390       4.46197783       0.01260952        0       1.00000000       0.06311162       0.05325888       0.19235267
Ni       3.82652598       6.67847783       0.04476286        0       1.00000000      -0.02592833       0.08776953       0.26092365
Pt       6.47989126       6.70695133       0.05783285        1       0.00000000       0.00382197       0.06622049      -0.03248374
Ni       9.04497449       6.64909395       0.08821460        1       1.00000000      -0.02299762       0.04210173      -0.23909057
Ni      11.62684435       6.64979607       0.00000000        0       1.00000000       0.04890613       0.02574202       0.26525968
Ni       1.31051862       0.73524028       2.22486088        4       1.00000000       0.03251781       0.02949890       0.23904724
Ni       3.81386131       0.73338602       2.21244295        4       1.00000000      -0.19772151      -0.00827980       0.17560368
Ni       6.45442293       0.73907268       2.20046421        4       1.00000000       0.08721923       0.04781659       0.15549825
Pt       9.03478251       0.73762121       2.20572735        4       0.00000000       0.05841500       0.14005067      -0.00984622
Ni       2.54278110       2.89555297       2.25295875        5       1.00000000      -0.03830118      -0.12905452       0.33711804
Ni       5.16258295       2.93480652       2.20869815        4       1.00000000      -0.00246084       0.06092836       0.12160423
Ni       7.71668401       2.94378445       2.20966494        4       1.00000000      -0.02805901      -0.05134444       0.13893164
Ni      10.35528253       2.92347339       2.21922886        4       1.00000000       0.07213192      -0.12573895       0.32647803
Pt       3.87173397       5.16003719       2.19864923        4       0.00000000       0.00043168      -0.04986757      -0.06115236
Ni       6.45625513       5.16518867       2.17787781        4       1.00000000      -0.05593253      -0.01010026       0.08564015
Pt       8.96452867       5.12497048       2.17682737        4       0.00000000      -0.04657261      -0.07060955       0.03133162
Pt      11.60392860       5.11495551       2.16423258        4       0.00000000      -0.04378227      -0.11432488       0.10174296
Ni       5.18883525       7.38563138       2.15885572        4       1.00000000       0.06634378       0.00794143       0.15757035
Ni       7.69545812       7.40834010       2.15974188        4       1.00000000      -0.15802785       0.05808452       0.20791589
Pt      10.34762429       7.42479904       2.10695958        3       0.00000000       0.02912208      -0.03050453       0.08852475
Ni      12.89264151       7.38771711       2.10757665        3       1.00000000       0.03270907      -0.02230344       0.02247513
Ni       0.02359596       1.48537030       4.32967172        7       1.00000000       0.15167228       0.04870829      -0.22095277
Ni       2.51776937       1.48425258       4.29814515        7       1.00000000      -0.09780594       0.03903248      -0.25858427
Pt       5.16346780       1.45520524       4.24425988        6       0.00000000      -0.05417581      -0.07543805      -0.05122418
Ni       7.72759327       1.46312816       4.30723504        7       1.00000000       0.04670684      -0.07385027      -0.27932552
Ni       1.27728199       3.68116703       4.34197030        7       1.00000000       0.00934301      -0.05202001      -0.11935680
Ni       3.79727195       3.69438070       4.32022168        7       1.00000000      -0.16843296      -0.03876364      -0.20040516
Pt       6.51626827       3.67987042       4.31759980        7       0.00000000       0.10241983      -0.05676791      -0.16237276
Ni       9.06290079       3.69985867       4.29778699        7       1.00000000       0.22506806       0.01104371      -0.15719255
Ni       2.52908286       5.85632496       4.38463595        8       1.00000000      -0.07873017      -0.07900044      -0.02494486
Pt       5.16840905       5.89671817       4.36065755        8       0.00000000       0.07331894       0.04277919      -0.07987153
Ni       7.73587892       5.87451657       4.31277012        7       1.00000000       0.03449667       0.00044412      -0.19329169
Ni      10.34474291       5.84522257       4.33761903        7       1.00000000       0.09062867      -0.04049502      -0.05209558
Pt       3.82519785       8.08824006       4.26519959        7       0.00000000      -0.07124220       0.04152855       0.01855505
Ni       6.43885676       8.11953162       4.25814784        7       1.00000000      -0.06708952       0.18043508      -0.29953324
Pt       8.96907971       8.06313944       4.22733779        6       0.00000000      -0.06714368       0.00958299       0.02568338
Ni      11.60519298       8.06094687       4.27004697        7       1.00000000      -0.06435287      -0.13746501      -0.13202367
Pt      -0.02102776      -0.09962564       6.55304039       11       0.00000000       0.04728892       0.09910682       0.19833458
Pt       2.55009058      -0.05762911       6.53681191       10       0.00000000      -0.00557261       0.12000697       0.24564562
Pt       5.16554647      -0.05744366       6.54816383       10       0.00000000       0.04991408      -0.01478462       0.28860979
Pt       7.70542715      -0.08116803       6.52718140       10       0.00000000      -0.09935077       0.07967426       0.25511421
Pt       1.26612328       2.28679938       6.48025152       10       0.00000000       0.03050926      -0.02080403       0.01776681
Pt       3.88484669       2.29538294       6.42982943        9       0.00000000      -0.07086580       0.13287572       0.44065862
Ni       6.43718383       2.22317675       6.42347972        9       1.00000000      -0.01965701      -0.02199441       0.19012456
Pt       8.96262354       2.27708450       6.35770691        9       0.00000000       0.02488215      -0.06517402       0.49819091
Ni       2.55725503       4.47240154       6.45743310       10       1.00000000       0.08356954       0.00322892      -0.33354807
Ni       5.15532592       4.43441944       6.39790577        9       1.00000000      -0.00992419      -0.01101075       0.27834123
Ni       7.68965749       4.41061599       6.46456826       10       1.00000000      -0.10313223       0.01020679      -0.11129120
Ni      10.33579022       4.43291746       6.43239644        9       1.00000000       0.06293482      -0.02040805      -0.28442048
Ni       3.83303111       6.54633993       6.47674180       10       1.00000000      -0.02309078      -0.07894256      -0.18910315
Ni       6.43477981       6.56001204       6.39855235        9       1.00000000       0.12575264      -0.00063618       0.21091407
Pt       9.02617272       6.48406397       6.46788597       10       0.00000000      -0.01036303      -0.02885113       0.07625068
Ni      11.62416121       6.54811859       6.42291990        9       1.00000000      -0.00502958       0.02726302      -0.31636059
