64
Lattice="10.329648446373902 -0.018000820423059935 -0.002236536065393865 5.149235055411616 8.905563309741709 -0.005465506100098525 0.0 0.0 21.576019375029794" Properties=species:S:1:pos:R:3:tags:I:1:initial_magmoms:R:1:forces:R:3 unique_id=e6eba80fb1154cc5ae5b152f37bed031 stress="0.005344384005034357 -2.249370156732999e-05 5.1148466023193545e-05 -2.249370156732999e-05 0.005428702966235645 9.823549982420768e-05 5.1148466023193545e-05 9.823549982420768e-05 -0.002069282332884722" energy=-376.75629806979003 pbc="T T T"
Ni       0.01702373       0.02534632       0.14870824        1       1.00000000       0.04455112       0.05724221      -0.01546153
Ni       2.58080126      -0.00000020       0.15253477        2       1.00000000      -0.03183574       0.01534763      -0.07906319
Ni       5.13999646      -0.02369891       0.10997696        1       1.00000000      -0.04690954       0.21274452      -0.37221997
Pt       7.78312072      -0.07929027       0.06205120        1       0.00000000      -0.00717403      -0.01586095      -0.03523945
Ni       1.27206327       2.21969723       0.02945793        0       1.00000000      -0.00966769      -0.08114910       0.26059017
Pt       3.78363768       2.22981053       0.06030547        1       0.00000000      -0.04222767      -0.01294298       0.00912691
Pt       6.41603055       2.19484177       0.09705900        1       0.00000000      -0.15790812      -0.07972201      -0.73119268
Ni       9.07108030       2.19586000       0.08008448        1       1.00000000      -0.02663284      -0.09469495      -0.15696375
Ni       2.57404974       4.46796123       0.02316826        0       1.00000000       0.06199470       0.01693145       0.28379796
Ni       5.12196160       4.46525690       0.13520315        1       1.00000000      -0.00900195       0.00344349      -0.01427169
Pt       7.81479016       4.48156254       0.01220106        0       0.00000000      -0.00362698       0.10875873      -0.11413240
Ni      10.35878177       4.44776170       0.00000000        0       1.00000000       0.05654830       0.02704769       0.23266973
Ni       3.84929064       6.64843344       0.14141403        1       1.00000000      -0.03903900      -0.08155741       0.04004432
Pt       6.42059282       6.72656191       0.14581084        1       0.00000000      -0.00947160       0.04304051      -0.55664487
Ni       9.05274268       6.68828594       0.01891050        0       1.00000000      -0.09645604      -0.00555696       0.15701238
Ni      11.60919787       6.64118446       0.00329056        0       1.00000000       0.07423630      -0.03406945       0.16817120
Ni       1.29973911       0.72323162       2.11988505        3       1.00000000       0.08847865      -0.03342308      -0.02247525
Ni       3.86153590       0.75486085       2.15701805        4       1.00000000       0.04031428       0.06536828       0.20830995
Ni       6.44273609       0.72422617       2.20037753        4       1.00000000      -0.03692259       0.07388805       0.28562537
Ni       9.05162592       0.69680782       2.15685114        4       1.00000000       0.06333927      -0.02847951       0.15583787
Ni       2.60713940       2.96625941       2.16541586        4       1.00000000       0.09881641       0.06583814       0.15454340
Ni       5.10532288       2.97083475       2.19351045        4       1.00000000      -0.11728611      -0.00323375       0.26843287
Pt       7.75675547       2.93324197       2.21590351        4       0.00000000       0.04144914      -0.06175338       0.00427879
Pt      10.36436645       2.89648847       2.13647181        3       0.00000000       0.18752576       0.02642618       0.02460108
Ni       3.87889805       5.18193156       2.12906112        3       1.00000000       0.04935575      -0.09760777      -0.02973354
Ni       6.43646944       5.19544885       2.16494286        4       1.00000000       0.05749798      -0.07970941       0.14770803
Ni       9.01532805       5.20740642       2.19727926        4       1.00000000      -0.02650992      -0.02003621       0.22358129
Pt      11.67494256       5.19149165       2.11990168        3       0.00000000       0.06747820      -0.04458366       0.01910157
Ni       5.12060912       7.43201262       2.13724153        3       1.00000000      -0.12133279       0.03364555       0.00656095
Ni       7.73310388       7.41599836       2.15645724        4       1.00000000       0.03777185      -0.06126578       0.11524399
Pt      10.28990198       7.41972700       2.07829349        3       0.00000000       0.02711282      -0.04952064      -0.05405924
Ni      12.93333082       7.39816782       2.15078393        4       1.00000000       0.04217418      -0.04510098       0.13934865
Ni      -0.02143136       1.51849533       4.31382206        6       1.00000000       0.01569439       0.06230546      -0.21769327
Pt       2.61521658       1.54514061       4.27528536        6       0.00000000      -0.01273909      -0.01495967      -0.13945324
Ni       5.15972727       1.48799953       4.28686952        6       1.00000000       0.02575407       0.01293425      -0.39749006
Ni       7.76634056       1.47659060       4.31160573        6       1.00000000       0.03966283       0.03441018      -0.26261668
Pt       1.26090150       3.76645155       4.41049563        7       0.00000000      -0.05646929       0.01241516       0.02171028
Ni       3.85800836       3.70344419       4.30634057        6       1.00000000       0.00943516       0.03144750      -0.26720156
Pt       6.46046860       3.69661998       4.28420828        6       0.00000000      -0.07186668       0.02968847       0.00360300
Ni       9.04290594       3.73222642       4.34015975        6       1.00000000       0.01522015       0.08717864      -0.20727145
Ni       2.54777284       5.91795791       4.33092866        6       1.00000000      -0.01213642       0.03154997      -0.13889560
Pt       5.09962928       5.89250184       4.21100774        5       0.00000000      -0.13112047       0.07831464      -0.18317465
Ni       7.79725010       5.88094489       4.30216986        6       1.00000000       0.06476298      -0.07563677      -0.28257879
Ni      10.29525442       5.89396490       4.36798980        7       1.00000000      -0.04887265       0.03123460      -0.10382361
Pt       3.83838434       8.21525554       4.24217956        5       0.00000000       0.03107668       0.08812721      -0.05391146
Pt       6.43835167       8.17259160       4.20644260        5       0.00000000      -0.04402158       0.02528815      -0.19546224
Pt       9.02564262       8.09774990       4.28990077        6       0.00000000      -0.06560511      -0.04048406      -0.04563617
Pt      11.62050496       8.13595871       4.30359908        6       0.00000000      -0.00277790      -0.01948321      -0.06323329
Pt      -0.01750609       0.03964272       6.54404553        9       0.00000000       0.03825872       0.00139893       0.20162417
Pt       2.60158040       0.04853657       6.57601938       10       0.00000000       0.03302036      -0.02248592       0.31867719
Pt       5.19294687      -0.08065187       6.55126580       10       0.00000000      -0.01796770      -0.00476861       0.39167796
Ni       7.73900292      -0.01625034       6.43360438        8       1.00000000       0.04794782       0.06790447       0.15399455
Ni       1.30138583       2.27936791       6.50400225        9       1.00000000       0.02864584      -0.00323681      -0.14016966
Ni       3.83765226       2.24327131       6.42601479        8       1.00000000       0.04311820      -0.05611658       0.10719105
Pt       6.46239558       2.17924248       6.41665332        8       0.00000000      -0.00075062      -0.09243974       0.81704283
Pt       9.07950381       2.30132931       6.46687403        9       0.00000000       0.02940447       0.10557776       0.01381548
Ni       2.51919310       4.43108708       6.49781094        9       1.00000000      -0.01412601       0.05362631      -0.14323903
Pt       5.08125919       4.39764949       6.53122835        9       0.00000000      -0.10436958      -0.01748544       0.21300813
Ni       7.79235890       4.45822178       6.39735895        8       1.00000000       0.07202738       0.07072920       0.09271285
Ni      10.32549200       4.48518937       6.48494859        9       1.00000000      -0.04820043       0.13503368      -0.22903328
Pt       3.73730233       6.66084935       6.53464781        9       0.00000000       0.01451661      -0.07021377       0.05388748
Pt       6.51457652       6.61943819       6.44552098        8       0.00000000      -0.05076535      -0.06324176       0.45027458
Ni       9.06875981       6.60050081       6.48212084        9       1.00000000       0.00383740      -0.09833336      -0.24612211
Ni      11.56851984       6.60635864       6.48509410        9       1.00000000      -0.08723629      -0.19973331      -0.24534233
