64
Lattice="10.598760906633565 -0.02131070359311639 -0.03451194416793105 5.2809248426326265 9.194041257477721 -0.014207955140903488 0.0 0.0 21.841106336697308" Properties=species:S:1:pos:R:3:tags:I:1:initial_magmoms:R:1:forces:R:3 unique_id=ee06673575824a379398e5477d19a078 energy=-392.90646319070197 stress="0.005174809037324186 5.116613869852083e-05 8.596594257677281e-05 5.116613869852083e-05 0.005185907966364114 5.69691257314748e-05 8.596594257677281e-05 5.69691257314748e-05 -0.00032700973699061747" pbc="T T T"
Pt      -0.02762303      -0.00042743       0.14229880        1       0.00000000       0.11849861       0.15036305      -0.40446567
Pt       2.63345394      -0.00099661       0.13467023        1       0.00000000      -0.18393934      -0.01324575      -0.55020901
Pt       5.32262606       0.00930064       0.09961228        1       0.00000000       0.06157120      -0.15088529      -0.60815622
Pt       7.95973722       0.02557645       0.09285549        1       0.00000000      -0.06729788       0.19081870      -0.35082976
Pt       1.26361314       2.33184420       0.14108575        1       0.00000000      -0.05671876      -0.07917313      -0.45100708
Pt       4.01823469       2.31647072       0.12821721        1       0.00000000       0.10444844       0.11432817      -0.56283578
Ni       6.64280032       2.31359373       0.05777288        1       1.00000000       0.11414582       0.08680800       0.45988137
Ni       9.24470815       2.30826168       0.10010714        1       1.00000000      -0.08833753       0.09524754       0.35113045
Pt       2.65371080       4.63269835       0.05018292        1       0.00000000       0.12505965      -0.08922190      -0.06802535
Pt       5.31661944       4.57664747       0.06434880        1       0.00000000       0.11246080      -0.16116085       0.12019351
Ni       7.94252820       4.54888442       0.10148934        1       1.00000000       0.03760654      -0.10424010       0.35173669
Ni      10.56854943       4.56644518       0.09814598        1       1.00000000      -0.10958578      -0.04283858       0.19620828
Ni       3.95796050       6.88351004       0.05920713        1       1.00000000       0.03391151      -0.00288561       0.34697882
Pt       6.58389153       6.85074211       0.10378806        1       0.00000000       0.12944961      -0.04983533      -0.39048863
Pt       9.25720181       6.81051379       0.09298743        1       0.00000000      -0.06526163      -0.09965902      -0.56643025
Pt      11.93284646       6.85688230       0.00000000        0       0.00000000      -0.13293276       0.19801837      -0.20959944
Ni       1.30709315       0.76536916       2.35652043        3       1.00000000      -0.03343216      -0.00855035       0.47608803
Pt       3.95321771       0.79347237       2.36020542        3       0.00000000       0.01761160       0.05010132       0.34732857
Pt       6.62259483       0.80364998       2.36309985        3       0.00000000       0.05063244       0.08865185       0.38502152
Pt       9.29470948       0.78193234       2.35722830        3       0.00000000       0.01663423       0.09401523       0.43820562
Pt       2.67589353       3.08412698       2.35008262        3       0.00000000       0.15113818       0.17395024       0.26933320
Ni       5.29380391       3.07298659       2.32540445        2       1.00000000       0.00648126       0.03229041       0.30534412
Pt       7.89858913       3.05475541       2.32127830        2       0.00000000      -0.08398989      -0.05773623       0.19050831
Pt      10.56952973       3.02650444       2.32129772        2       0.00000000      -0.06922690       0.06916511       0.35521334
Ni       3.96937714       5.35430927       2.31517861        2       1.00000000       0.04836819      -0.01742391       0.21380544
Pt       6.56564749       5.29895779       2.36462638        3       0.00000000      -0.10958646      -0.12408883       0.39960593
Pt       9.23096920       5.31735050       2.32773311        2       0.00000000      -0.12965623      -0.10032746       0.39376973
Pt      11.92590085       5.32708034       2.28922551        2       0.00000000       0.02174073      -0.02532317       0.23530278
Pt       5.27028086       7.64958954       2.35345006        3       0.00000000      -0.09241290      -0.13601288       0.23360541
Pt       7.88557849       7.66067690       2.39296464        3       0.00000000      -0.14530906      -0.09649160       0.52911960
Pt      10.59312821       7.65645365       2.34754099        2       0.00000000       0.06190074       0.01152594       0.37303307
Pt      13.25485761       7.61648237       2.30590649        2       0.00000000       0.09956455      -0.13905605       0.24940319
Ni      -0.03834932       1.53549716       4.59943243        5       1.00000000      -0.19715584       0.06473789      -0.39013804
Pt       2.56844964       1.49526967       4.54465868        4       0.00000000      -0.18379474      -0.05601562      -0.41960114
Pt       5.38560130       1.56718818       4.57992738        5       0.00000000       0.32770163       0.24114132      -0.14028865
Ni       7.94074231       1.54749409       4.58919805        5       1.00000000       0.14530704       0.23590622      -0.24433602
Pt       1.25940877       3.82099010       4.60125061        5       0.00000000      -0.07506718       0.00298374      -0.22771251
Pt       4.00569063       3.85040041       4.58898280        5       0.00000000       0.07139003       0.08766375      -0.33298355
Ni       6.63271938       3.81857734       4.59320938        5       1.00000000       0.25976513      -0.02553562      -0.15519781
Ni       9.21759888       3.80119545       4.57787276        5       1.00000000      -0.18941219      -0.08421819      -0.27239629
Pt       2.63022722       6.15913028       4.67303412        6       0.00000000       0.03984306       0.08708844       0.05618038
Pt       5.31536942       6.11398501       4.59033646        5       0.00000000      -0.02401279       0.01958358      -0.17225850
Ni       7.91264934       6.09575755       4.58316610        5       1.00000000      -0.00650271      -0.22131194      -0.39411329
Pt      10.55572446       6.10890722       4.57563396        5       0.00000000      -0.03294148      -0.07664036      -0.21739351
Pt       3.94371693       8.47593896       4.58383737        5       0.00000000       0.02742568       0.00719381      -0.22594031
Ni       6.58457187       8.42766950       4.57510980        5       1.00000000      -0.09404914      -0.00379492      -0.47513758
Pt       9.22317502       8.40007972       4.55537886        5       0.00000000      -0.01112026       0.03707498      -0.19650859
Ni      11.89904827       8.41918008       4.58169722        5       1.00000000       0.01615107      -0.01571603      -0.41972981
Pt      -0.03395355      -0.01608236       6.76988139        8       0.00000000       0.09699762      -0.01697374       0.38303932
Pt       2.62495541      -0.00491323       6.78168211        8       0.00000000      -0.00929585       0.00910914       0.62833825
Pt       5.32501555      -0.00765370       6.76085949        8       0.00000000       0.03965993      -0.09226140       0.46547430
Pt       7.90684167      -0.03701815       6.73423743        7       0.00000000      -0.08281324      -0.08173118       0.21122187
Pt       1.30195353       2.32393048       6.79391588        8       0.00000000       0.08619475      -0.00908650       0.57881257
Pt       4.00897444       2.36547440       6.79286193        8       0.00000000       0.05767512       0.06573368       0.40627454
Ni       6.60456225       2.30323142       6.82765426        8       1.00000000      -0.04338301      -0.01136166      -0.47889166
Pt       9.20199208       2.29000242       6.78290096        8       0.00000000       0.00475553      -0.08612368      -0.33832375
Ni       2.63797810       4.63229385       6.79431809        8       1.00000000       0.11142300       0.03374539      -0.27510372
Ni       5.26371047       4.59594932       6.78441196        8       1.00000000      -0.05703937       0.02453244      -0.34317804
Pt       7.85807272       4.54403464       6.78744623        8       0.00000000      -0.17600235       0.07211388      -0.43757761
Pt      10.60194390       4.60572403       6.83842956        8       0.00000000       0.02829617      -0.00304408       0.01668270
Ni       3.92240648       6.87152487       6.84110634        8       1.00000000      -0.02304851      -0.09022409      -0.55424810
Pt       6.54880547       6.85420247       6.75589739        8       0.00000000       0.08181992       0.02974214       0.48279031
Pt       9.25150710       6.86560406       6.76408042        8       0.00000000      -0.16866739      -0.07667555       0.62300624
Ni      11.91672443       6.87345721       6.75672204        8       1.00000000       0.03636357       0.07523626      -0.19953183
