64
Lattice="10.144990149118481 0.021213107394224894 -0.04330258386486751 5.090866164455905 8.75208683819829 -0.07166154080743557 0.0 0.0 21.472575700503047" Properties=species:S:1:pos:R:3:tags:I:1:initial_magmoms:R:1:forces:R:3 unique_id=0118624f3bd1451ba8320b2d559d3936 energy=-368.37590375842444 stress="0.004837542083176048 -5.618022877053685e-05 -0.00023509399506668272 -5.618022877053685e-05 0.00421823796235841 -0.00010502188819031658 -0.00023509399506668272 -0.00010502188819031658 -0.0013077095954478696" pbc="T T T"
Ni       0.03806254      -0.05010463       0.18656675        2       1.00000000       0.09432749      -0.01443427      -0.28052355
Ni       2.50120328      -0.04248715       0.11261263        1       1.00000000       0.00675733      -0.02738954       0.24650660
Ni       5.06021270      -0.04259554       0.16866916        2       1.00000000      -0.07256410       0.01933619      -0.48593704
Ni       7.59855913      -0.05672836       0.15269193        2       1.00000000      -0.07271952      -0.01138253      -0.31506292
Ni       1.26785718       2.19272085       0.09817685        1       1.00000000      -0.02553693       0.00248112       0.31366456
Pt       3.71613510       2.15844730       0.16378029        2       0.00000000       0.07121858       0.04457646      -0.60610677
Pt       6.35319079       2.15930604       0.06866603        1       0.00000000      -0.01691520       0.00461399      -0.27917961
Pt       8.95702706       2.25323444       0.08031092        1       0.00000000       0.00643619       0.09278502      -0.73960362
Ni       2.48543956       4.41174337       0.07404628        1       1.00000000      -0.02227738       0.02452568       0.36331639
Pt       5.06805731       4.48039577       0.05215604        1       0.00000000      -0.08207385      -0.00794818      -0.01450117
Ni       7.64534213       4.44640862       0.05790090        1       1.00000000       0.05457276       0.06117837       0.22173090
Ni      10.18393774       4.43608868       0.04326527        0       1.00000000       0.01224861       0.12694322       0.37607443
Ni       3.78328832       6.59679271       0.05905063        1       1.00000000      -0.00877436       0.02816161       0.27177181
Ni       6.37454899       6.60787610       0.04833316        0       1.00000000      -0.01747797       0.00957634       0.27950470
Ni       8.86235775       6.55143627       0.09714229        1       1.00000000      -0.09216269      -0.06420040      -0.27975177
Ni      11.44520840       6.55288628       0.00000000        0       1.00000000       0.00380029      -0.02985003       0.22764339
Ni       1.29760116       0.72523785       2.18357362        4       1.00000000       0.03925075       0.08563365       0.12667615
Ni       3.74312516       0.71021553       2.17250590        4       1.00000000      -0.18672006      -0.07006385       0.03383378
Ni       6.33798151       0.72298836       2.16494114        4       1.00000000       0.06316924      -0.00612899       0.14059346
Pt       8.89150098       0.72901525       2.17677695        4       0.00000000       0.07366904       0.08828997      -0.03116586
Ni       2.49250351       2.93449243       2.22250065        4       1.00000000      -0.01209910       0.04052733       0.15669799
Ni       5.05334299       2.95206027       2.17539522        4       1.00000000      -0.08352647       0.17440580       0.07139654
Ni       7.61433283       2.96996910       2.17443527        4       1.00000000       0.05874185       0.06731212       0.04864635
Ni      10.19587371       2.97166147       2.18370916        4       1.00000000       0.08683710       0.02689356       0.17669681
Ni       3.77715198       5.10413594       2.18140621        4       1.00000000      -0.03039984      -0.04688921       0.15575580
Ni       6.36484077       5.14032721       2.14042404        3       1.00000000       0.03559564       0.06749461       0.02375689
Ni       8.86915817       5.07544762       2.12823015        3       1.00000000       0.01273851      -0.11651175       0.12677812
Ni      11.43564678       5.07289438       2.11852679        3       1.00000000       0.06584003      -0.12252588       0.20462149
Ni       5.11447869       7.23269977       2.10062404        3       1.00000000       0.00213191      -0.13274460       0.05879614
Ni       7.56185473       7.27497115       2.08357108        3       1.00000000      -0.08691999      -0.03194278       0.06213124
Pt      10.18219606       7.24063158       2.08344565        3       0.00000000       0.05966073      -0.19603001       0.07178649
Ni      12.69754396       7.24018811       2.06978274        3       1.00000000       0.07205461      -0.16806607       0.09937706
Ni       0.04404947       1.47067450       4.27765937        6       1.00000000       0.09944812       0.04627324      -0.15518392
Ni       2.44716886       1.46883201       4.25477928        6       1.00000000      -0.08552823       0.05423486      -0.17282293
Pt       5.06740258       1.45637453       4.18579236        5       0.00000000      -0.03692545      -0.02337553      -0.10195133
Ni       7.60645653       1.45948919       4.24464828        5       1.00000000       0.04732528      -0.04318702      -0.23006565
Ni       1.26150951       3.62958122       4.29098070        6       1.00000000       0.03932266      -0.00967118      -0.10536705
Ni       3.73857303       3.69413604       4.23634699        5       1.00000000      -0.08486341       0.08875411      -0.26345896
Pt       6.36688171       3.70341546       4.24337263        5       0.00000000       0.05384190      -0.04711394      -0.06140936
Ni       8.91848001       3.68687257       4.19867020        5       1.00000000       0.12327749       0.08713435      -0.23486695
Ni       2.51027226       5.75919996       4.27547044        6       1.00000000      -0.09379908      -0.09307360      -0.17433793
Ni       5.06637179       5.81029871       4.25795171        6       1.00000000       0.05272054      -0.03763087      -0.20342903
Ni       7.58808040       5.81379545       4.21878072        5       1.00000000       0.00959518       0.05270209      -0.27062191
Ni      10.17522940       5.76612537       4.23930443        5       1.00000000       0.06094005      -0.05966858      -0.10406673
Pt       3.81607878       7.91613952       4.21540770        5       0.00000000      -0.02708813      -0.05379352       0.07575896
Ni       6.33536813       7.98544340       4.20492883        5       1.00000000      -0.12796562      -0.04015207      -0.24233731
Pt       8.79652923       7.97546028       4.18548036        5       0.00000000      -0.05518418       0.05145388       0.05205776
Ni      11.41954074       7.95553401       4.19965162        5       1.00000000      -0.01535789      -0.12978440      -0.07024157
Pt       0.07666806      -0.06294486       6.47007803        9       0.00000000      -0.04571510       0.12206980       0.16858647
Ni       2.50697852      -0.02786064       6.42464288        8       1.00000000       0.07856012       0.02131057      -0.05803091
Pt       5.03037718      -0.03411695       6.47257570        9       0.00000000       0.08836266       0.02358315       0.54206748
Pt       7.59315231      -0.06323946       6.43489203        8       0.00000000       0.03160308       0.12222174       0.42311878
Ni       1.25142161       2.19951799       6.38611164        8       1.00000000      -0.00484163       0.11961702      -0.20323423
Pt       3.72020773       2.25060394       6.33468859        7       0.00000000      -0.07909807       0.18446082       0.61411133
Ni       6.32033381       2.21441698       6.32195631        7       1.00000000      -0.01659151      -0.01989660       0.31890958
Pt       8.87862809       2.26527229       6.26244411        7       0.00000000       0.03031110      -0.07848727       0.70665468
Ni       2.49149918       4.39444748       6.36613617        8       1.00000000       0.04421757      -0.00447057      -0.32852179
Ni       5.05533517       4.40261988       6.29966141        7       1.00000000      -0.12233889       0.04270516       0.13984964
Ni       7.55502957       4.36444373       6.37907513        8       1.00000000      -0.05543760      -0.01900186      -0.05272387
Ni      10.19358957       4.36688580       6.33926956        7       1.00000000       0.09742004      -0.01888791      -0.28220437
Ni       3.79775080       6.45404785       6.37624483        8       1.00000000       0.04867294      -0.09360075      -0.21166220
Ni       6.31412727       6.48836534       6.35181564        8       1.00000000      -0.06779053      -0.08667053      -0.28408582
Pt       8.83357835       6.44271333       6.39498188        8       0.00000000       0.04165487      -0.15875106       0.16969234
Ni      11.42923172       6.47704161       6.32888560        7       1.00000000      -0.03763148       0.08206954      -0.22610799
