64
Lattice="10.231336182918525 0.03172507885728392 -0.04290242351164175 5.143142815686738 8.850414187038114 -0.0951784360450966 -0.03502968211076878 -0.06951069367067816 8.756726968327742" Properties=species:S:1:pos:R:3:tags:I:1:initial_magmoms:R:1:forces:R:3 unique_id=23d2bb5df18a4222ab02215375562c1b stress="-0.006910239183896993 -1.833114416529286e-05 2.534165378444541e-05 -1.833114416529286e-05 -0.006870584745641041 3.166156843180372e-05 2.534165378444541e-05 3.166156843180372e-05 -0.006069384332477362" energy=-394.9444122118949 pbc="T T T"
Ni       0.00535332       0.01433656       0.20167903        4       1.00000000       0.00304782       0.02626999       0.16997229
Ni       2.55817271      -0.00241525       0.22328564        4       1.00000000       0.03529727      -0.03174438       0.23209036
Ni       5.12061472      -0.01810700       0.06117215        4       1.00000000       0.00196090      -0.01760119       0.01379202
Ni       7.67680535      -0.01498975       0.03002341        4       1.00000000       0.00291251      -0.05676181      -0.02037540
Ni       1.24260748       2.21397777       0.09554941        4       1.00000000      -0.09443384       0.00030295       0.04841844
Pt       3.78607145       2.20985279       0.17513403        4       0.00000000      -0.02182837      -0.05085732      -0.08596443
Pt       6.45464331       2.21683667       0.16127747        4       0.00000000       0.02443816      -0.02212132       0.02124470
Ni       9.00180481       2.26021594       0.09992886        4       1.00000000       0.04777904       0.03193456       0.07660375
Ni       2.55635115       4.43671423       0.02511716        4       1.00000000      -0.08003932      -0.04248918      -0.03460844
Ni       5.09490636       4.43795755       0.02345620        4       1.00000000      -0.06984821      -0.08000300      -0.00278088
Ni       7.74739194       4.42556781       0.01517119        4       1.00000000       0.11258236      -0.05828538       0.01078992
Ni      10.23211122       4.41944309      -0.00606867        4       1.00000000      -0.03520791      -0.07572026      -0.02879044
Ni       3.84370039       6.60617890      -0.00534986        4       1.00000000      -0.01611229      -0.10147413      -0.02825248
Pt       6.40835831       6.66192496      -0.04708804        4       0.00000000      -0.04595570      -0.02079232      -0.25547632
Ni       8.96946153       6.61546531       0.06576177        4       1.00000000      -0.09206134      -0.14650993       0.11701164
Ni      11.52851768       6.63468042      -0.07562390        4       1.00000000      -0.07713971      -0.12524499      -0.13628529
Ni       1.28392143       0.75089940       2.13260814        3       1.00000000      -0.02194290       0.06479569       0.03803314
Ni       3.82946414       0.73914913       2.19348671        3       1.00000000       0.04627431      -0.00603139       0.14492344
Ni       6.36480069       0.76545109       2.22320568        3       1.00000000      -0.00315795      -0.01181131       0.14756916
Pt       8.96474456       0.82023505       2.14380518        3       0.00000000      -0.06792807      -0.01838603       0.07602399
Ni       2.51514540       2.91612563       2.15549260        3       1.00000000      -0.11873983      -0.04415752      -0.02749162
Ni       5.10408455       2.92157074       2.19158704        3       1.00000000       0.00701993      -0.01884020       0.07933328
Ni       7.73856158       2.97564830       2.16383215        3       1.00000000       0.13922874       0.09888684       0.08253913
Ni      10.23192777       2.96101983       2.14075698        3       1.00000000       0.03033369      -0.01200158       0.07835170
Ni       3.85032085       5.11297639       2.08260438        3       1.00000000       0.00832630      -0.08193979      -0.12523932
Pt       6.43398647       5.14185266       2.09624134        3       0.00000000       0.01909004      -0.00130995      -0.04824329
Ni       8.96221901       5.12006040       2.12786602        3       1.00000000       0.05276527      -0.03571116       0.05369312
Pt      11.50264440       5.08306266       2.11406185        3       0.00000000       0.02066530      -0.00093305      -0.01792205
Ni       5.13773711       7.36858892       2.08040091        3       1.00000000      -0.00244440      -0.02889793      -0.06721576
Ni       7.68232576       7.38725425       2.08472044        3       1.00000000      -0.02192221      -0.03324708       0.03459340
Pt      10.21266514       7.39211432       2.03774754        3       0.00000000       0.01954986      -0.01255697       0.03189748
Pt      12.82620378       7.36434227       2.02400686        3       0.00000000       0.00363824      -0.04179171      -0.03420690
Ni      -0.04015192       1.51380875       4.32483464        2       1.00000000      -0.06258544       0.08172302       0.00915688
Pt       2.47738947       1.49206992       4.24102801        2       0.00000000      -0.06447848      -0.02727469       0.03124250
Ni       5.13992986       1.42373687       4.26471037        2       1.00000000      -0.02511456       0.00514179      -0.04338539
Ni       7.65962306       1.46237259       4.27488575        2       1.00000000       0.01849044       0.03844344      -0.01425569
Ni       1.20472369       3.68219756       4.34793978        2       1.00000000      -0.03643791      -0.00090926      -0.01768170
Pt       3.76915122       3.70187551       4.24065408        2       0.00000000      -0.05828629       0.08561041      -0.11689690
Pt       6.47396406       3.63024093       4.26605297        2       0.00000000      -0.01239247       0.08368177      -0.04577466
Ni       9.00469468       3.70360874       4.25228383        2       1.00000000       0.05467684       0.06146876      -0.09686367
Ni       2.47302371       5.87005931       4.34188988        2       1.00000000      -0.09406230       0.04602549      -0.06373808
Pt       5.08296720       5.87535958       4.31103225        2       0.00000000      -0.05785226      -0.01593502      -0.17217761
Ni       7.74285364       5.83956774       4.26153675        2       1.00000000       0.11119636      -0.02582917      -0.10508298
Ni      10.26342121       5.83157438       4.27146160        2       1.00000000      -0.00740793       0.01126597      -0.06014815
Pt       3.74617561       8.10975706       4.30722935        2       0.00000000      -0.02109090       0.04084650       0.06088002
Pt       6.39798198       8.07795537       4.17008975        2       0.00000000      -0.04544281       0.06503003       0.01463841
Pt       9.03165893       8.06878154       4.23940277        2       0.00000000      -0.06584292      -0.01395762       0.08064785
Ni      11.51032108       8.09885811       4.27589365        2       1.00000000      -0.03338851       0.00336731      -0.07312910
Pt      -0.07181062      -0.08362748       6.58837887        1       0.00000000      -0.01888835      -0.01974984       0.21105834
Pt       2.54711012      -0.04704521       6.58894779        1       0.00000000       0.06736019       0.03103873       0.23934900
Ni       5.14963594      -0.07046503       6.46537943        1       1.00000000       0.05515039      -0.02382022      -0.03835310
Ni       7.59139409      -0.07817959       6.46684143        1       1.00000000      -0.05152044      -0.04550458      -0.01591602
Ni       1.25626172       2.23032286       6.45705356        1       1.00000000       0.04813489       0.06578395      -0.04487205
Pt       3.79797139       2.25214143       6.42712071        1       0.00000000       0.01719844       0.12086069       0.09892414
Pt       6.39119618       2.14155071       6.39411664        1       0.00000000       0.01960377      -0.04608020       0.14181467
Pt       8.98261622       2.28456192       6.42603228        1       0.00000000       0.07634294       0.12966908       0.06670540
Ni       2.49966691       4.44801782       6.43463470        1       1.00000000      -0.02486502       0.13589769      -0.07394457
Ni       5.10216937       4.44525730       6.45331783        1       1.00000000       0.01798343       0.09608563      -0.02723011
Ni       7.65004315       4.42375489       6.41589659        1       1.00000000      -0.02470642       0.04871018      -0.05027838
Ni      10.29221564       4.41135700       6.37942401        1       1.00000000       0.20686070       0.05490783      -0.08722728
Ni       3.77128773       6.54975380       6.43307891        1       1.00000000      -0.07886828      -0.03981815      -0.05054475
Ni       6.39371571       6.55257488       6.32240375        1       1.00000000       0.12437987      -0.00187499      -0.26594882
Pt       9.01412085       6.50978161       6.43359554        1       0.00000000       0.12073213      -0.04423817       0.12347113
Ni      11.54640864       6.61517055       6.35379572        1       1.00000000       0.03897320       0.05446453      -0.15846772
