64
Lattice="10.275141428886375 -0.028854005356739047 0.006848716524413869 5.112582412803323 8.93328874791109 0.012993796182278812 0.0 0.0 21.58458514842746" Properties=species:S:1:pos:R:3:tags:I:1:initial_magmoms:R:1:forces:R:3 unique_id=98aaa9cb48a74208b0b6405fcec98de7 energy=-376.51186364993515 stress="0.005181353279734751 -6.084379776692322e-05 2.5573082143408195e-05 -6.084379776692322e-05 0.005438828651288803 -8.349522382285481e-05 2.5573082143408195e-05 -8.349522382285481e-05 -0.0013735052210464716" pbc="T T T"
Ni       0.04652704       0.02138351       0.11398681        1       1.00000000       0.14590843      -0.03167085      -0.13882320
Ni       2.52633870       0.00594242       0.15017778        2       1.00000000      -0.12294318       0.04701331      -0.03891298
Pt       5.06694884      -0.05374668       0.07119920        1       0.00000000      -0.13080890       0.18563997      -1.08010729
Pt       7.77376897      -0.10772483       0.00000000        0       0.00000000      -0.00754824      -0.07970139      -0.25936135
Ni       1.23862310       2.24284375       0.05805162        1       1.00000000      -0.12390598       0.03080255       0.51339926
Pt       3.74613446       2.28561314       0.07065334        1       0.00000000       0.02227936       0.00402799       0.04635290
Pt       6.42723773       2.27524153       0.11637188        1       0.00000000      -0.04733419       0.05377318      -0.81622153
Ni       9.04039607       2.23191840       0.12492928        1       1.00000000       0.04424390       0.13625621      -0.08709048
Ni       2.54907613       4.48968148       0.02594739        0       1.00000000       0.05433302       0.00616431       0.27238623
Ni       5.08746685       4.49014413       0.13937699        1       1.00000000      -0.05884634       0.11898706       0.08808212
Pt       7.77854003       4.48878618       0.06765628        1       0.00000000       0.01309208       0.05753965       0.03174154
Ni      10.29660000       4.43267208       0.03504994        0       1.00000000       0.07000766      -0.09621272       0.31450874
Ni       3.81852232       6.65436614       0.06319386        1       1.00000000      -0.00180951      -0.14421610       0.42758929
Pt       6.37260970       6.73407711       0.14762843        1       0.00000000      -0.02760693       0.02476146      -0.26034021
Ni       8.98063961       6.65986077       0.03745277        0       1.00000000      -0.04812841       0.01729390       0.10995437
Ni      11.55329222       6.62523638       0.02709038        0       1.00000000       0.04056038       0.00716099       0.16029150
Ni       1.31928569       0.74092933       2.15986468        4       1.00000000       0.12951964      -0.00389546       0.06585850
Ni       3.79456439       0.76379605       2.18308695        4       1.00000000      -0.06629464       0.04048366       0.17813162
Pt       6.38542573       0.77262351       2.24714954        4       0.00000000      -0.06132327       0.08176791       0.10071063
Pt       9.10116949       0.74504170       2.16387950        4       0.00000000       0.07090652       0.02225455       0.03971135
Ni       2.56259285       2.96808041       2.18714402        4       1.00000000       0.00429982      -0.01201134       0.14199035
Ni       5.08131130       3.02880199       2.21129528        4       1.00000000      -0.19197485       0.12089276       0.18399771
Ni       7.73775218       3.02623898       2.20266942        4       1.00000000       0.11042490       0.13238967       0.18982713
Ni      10.27967551       2.95937948       2.16987234        4       1.00000000       0.13346316       0.04926417       0.08927995
Ni       3.87680927       5.21148278       2.18850050        4       1.00000000       0.12828391       0.01473762       0.11605966
Ni       6.39295953       5.21781518       2.20488680        4       1.00000000      -0.05915929       0.07108439       0.14860761
Ni       8.94474981       5.16151196       2.21449770        4       1.00000000      -0.10858353      -0.16624566       0.24470726
Pt      11.60156417       5.13054645       2.12054752        3       0.00000000       0.13026995      -0.12482836       0.02401199
Ni       5.13034520       7.41093870       2.21539644        4       1.00000000       0.05428439      -0.16717774       0.16585407
Ni       7.63560842       7.43910591       2.20775395        4       1.00000000      -0.17108784      -0.01473756       0.18793847
Pt      10.19613879       7.34482394       2.16552738        4       0.00000000      -0.04447875      -0.16130572      -0.18103252
Ni      12.87268633       7.37530636       2.18206869        4       1.00000000       0.17408570      -0.09737638       0.05973688
Ni       0.02716425       1.49973599       4.33970218        5       1.00000000       0.11742186      -0.07615288      -0.19088040
Pt       2.56259688       1.51184461       4.29076552        5       0.00000000      -0.02861042      -0.06159100      -0.07656867
Ni       5.09970547       1.52214272       4.34058211        5       1.00000000      -0.07717208       0.12901483      -0.26056905
Pt       7.77395518       1.51994271       4.33732235        5       0.00000000       0.13248719      -0.04383633       0.00091176
Pt       1.28313543       3.72025134       4.39894430        6       0.00000000      -0.02781810      -0.02795813      -0.02410480
Ni       3.84632638       3.74982664       4.33033390        5       1.00000000       0.02667302       0.08425657      -0.28872307
Pt       6.39319067       3.79904844       4.25832411        5       0.00000000      -0.03386628       0.01909083      -0.13918018
Ni       8.97582290       3.72268475       4.33887171        5       1.00000000      -0.05849741      -0.01591566      -0.27813225
Ni       2.60274893       5.91869590       4.38290488        6       1.00000000       0.16748485      -0.22398788      -0.09534043
Ni       5.11159942       5.94503409       4.30685809        5       1.00000000       0.00652810      -0.09106476      -0.38426373
Ni       7.66977441       5.93550634       4.32303031        5       1.00000000      -0.12655553       0.00121874      -0.38277174
Pt      10.21097902       5.87807675       4.43463652        6       0.00000000      -0.06680725      -0.03820948      -0.01119354
Pt       3.91008028       8.10074411       4.33285039        5       0.00000000       0.14408148      -0.08495872      -0.02780694
Ni       6.39094993       8.16768608       4.30724931        5       1.00000000      -0.03555889      -0.01775933      -0.37314472
Pt       8.88518231       8.15276834       4.30466805        5       0.00000000      -0.14333125      -0.04418902      -0.07369931
Pt      11.58763217       8.10860137       4.36730021        6       0.00000000       0.07980085      -0.15170852      -0.13320487
Pt      -0.03129980       0.01199248       6.55149129        9       0.00000000       0.11449561       0.07549037       0.13555267
Pt       2.56913799       0.04511022       6.58458515        9       0.00000000      -0.05717226      -0.06207682       0.24800340
Pt       5.16220044      -0.06142052       6.46748588        8       0.00000000       0.02188856       0.09300220       1.05981003
Ni       7.71806640      -0.05376436       6.45424740        8       1.00000000       0.01155220       0.04286303       0.33264819
Ni       1.30588462       2.29034899       6.53456474        8       1.00000000       0.03571170       0.05568237      -0.16673204
Ni       3.81519707       2.26227662       6.44916720        7       1.00000000       0.01673531       0.02448596      -0.02687608
Pt       6.40029561       2.24718892       6.47176529        8       0.00000000      -0.09051010       0.02750703       0.79308279
Pt       9.05948053       2.31446169       6.55614915        9       0.00000000       0.04088876       0.14079917       0.16432293
Ni       2.52090252       4.49171631       6.52719095        8       1.00000000      -0.10063810       0.09793581      -0.28788316
Pt       5.01495448       4.48422474       6.53392856        8       0.00000000      -0.13861037       0.04043146      -0.05663200
Ni       7.73744722       4.48683537       6.44984095        7       1.00000000       0.05745874       0.07133656      -0.09809595
Ni      10.28774804       4.48405920       6.55605415        9       1.00000000       0.08014257       0.05922364      -0.08328528
Ni       3.77653507       6.69127515       6.52185555        8       1.00000000      -0.09396441      -0.06216125      -0.30911622
Pt       6.43379715       6.66028602       6.42889242        7       0.00000000      -0.07534078       0.06908440       0.28798897
Ni       8.99893630       6.64184827       6.54441856        8       1.00000000      -0.03564222      -0.03502939      -0.08209447
Ni      11.57442101       6.63437295       6.55024804        9       1.00000000       0.08261567      -0.11773987      -0.21086139
