64
Lattice="10.119861152414042 0.01516920584963567 -0.0035369092663015667 5.073067493828095 8.764040700331002 -0.035812554961901194 0.0 0.0 21.47490114205474" Properties=species:S:1:pos:R:3:tags:I:1:initial_magmoms:R:1:forces:R:3 unique_id=0da89d63e00248418dac0c1367b0d7f0 energy=-368.2380564530222 stress="0.0035932808307172995 6.37345774716348e-05 4.491330094053217e-05 6.37345774716348e-05 0.0034149119708360536 -0.0003235517671589735 4.491330094053217e-05 -0.0003235517671589735 -0.0028866860290810616" pbc="T T T"
Ni       0.03831106      -0.03998826       0.17732181        2       1.00000000       0.11340807       0.00253117      -0.37586834
Ni       2.51390092      -0.02971319       0.18546459        2       1.00000000       0.04085571      -0.01683655      -0.10718946
Ni       5.07250128      -0.00675201       0.07389035        1       1.00000000      -0.06447411       0.02408651       0.06339728
Ni       7.56201845       0.00378091       0.14226951        1       1.00000000      -0.03409964       0.10632753      -0.59900498
Ni       1.27129843       2.19385091       0.10021982        1       1.00000000       0.02169459      -0.05234418       0.24359583
Pt       3.79796839       2.19218079       0.16446073        2       0.00000000      -0.02569100      -0.01875017      -0.67519381
Ni       6.32344218       2.20536638       0.08840360        1       1.00000000      -0.00229253       0.01414647       0.14625138
Pt       8.85747895       2.24921724       0.00000000        0       0.00000000       0.00022658      -0.02319815      -0.21465627
Ni       2.53983358       4.39786538       0.03846865        0       1.00000000       0.13898379      -0.04218460       0.03834145
Ni       5.07026839       4.40515083       0.04786257        0       1.00000000      -0.09732110      -0.06071162       0.10206737
Ni       7.58660098       4.41744502       0.04724942        0       1.00000000       0.09295901       0.05284313       0.05035871
Ni      10.12630817       4.41430936       0.03570815        0       1.00000000      -0.12520441       0.05990778      -0.02040321
Ni       3.83417055       6.54545521       0.03214202        0       1.00000000       0.11334731      -0.03054024       0.09388522
Ni       6.32973212       6.58907960       0.04598340        0       1.00000000       0.02903523       0.09889646       0.18005114
Ni       8.83380786       6.56157012       0.11823597        1       1.00000000      -0.14862381      -0.05872924      -0.22968521
Ni      11.38784133       6.57477368       0.00108803        0       1.00000000      -0.05810220      -0.00202632      -0.00595763
Ni       1.31142763       0.72486701       2.18383988        4       1.00000000       0.01013580       0.09114736       0.14167780
Ni       3.74562281       0.73036572       2.19292235        4       1.00000000      -0.11643985      -0.01782192       0.12399927
Ni       6.30944766       0.78093816       2.13448357        3       1.00000000      -0.03450305       0.09476929      -0.05876621
Pt       8.89582663       0.79383499       2.19797104        4       0.00000000      -0.00212846       0.07006659       0.02145591
Ni       2.53404648       2.87833356       2.20645847        4       1.00000000       0.03040290      -0.11521825       0.16471345
Ni       5.07032768       2.92499988       2.17869923        4       1.00000000       0.01386165       0.04620562       0.03762071
Ni       7.58605757       2.93844795       2.17046307        4       1.00000000       0.04225005       0.03048994       0.07398446
Ni      10.12956863       2.92279923       2.17247703        4       1.00000000      -0.01003809      -0.03698001       0.11088341
Ni       3.82267226       5.05940224       2.15174531        4       1.00000000      -0.00206159      -0.13170247       0.04245583
Pt       6.33590571       5.13939932       2.12098946        3       0.00000000       0.01869181       0.03999450      -0.00550609
Ni       8.84222138       5.08105195       2.15720476        4       1.00000000      -0.02322544      -0.09672257       0.09826451
Pt      11.38165309       5.04855859       2.11547543        3       0.00000000      -0.02396682      -0.13127439      -0.01921795
Ni       5.12176527       7.30132893       2.12873532        3       1.00000000       0.01223728       0.07459083       0.09565547
Ni       7.55971878       7.33343613       2.15455322        4       1.00000000      -0.05862502       0.05485378       0.18530459
Pt      10.05121093       7.34079813       2.15577174        4       0.00000000      -0.07217302       0.05470909       0.06651554
Pt      12.68291664       7.27487750       2.09836585        3       0.00000000       0.11871195       0.01763339       0.01983804
Ni       0.01813536       1.45686831       4.30966339        6       1.00000000       0.07665511      -0.09460064      -0.05596696
Ni       2.49689826       1.41730718       4.24524206        5       1.00000000      -0.02235306      -0.16143446      -0.17396532
Pt       5.06269117       1.39044470       4.22895310        5       0.00000000      -0.00772803      -0.14162781       0.07614271
Ni       7.61531532       1.47686260       4.30477460        6       1.00000000       0.07251387      -0.03282149      -0.11612755
Pt       1.26586856       3.61469879       4.33792889        6       0.00000000       0.03946195      -0.04638288       0.08126325
Ni       3.79424866       3.69705427       4.25490319        6       1.00000000       0.04945178       0.03824443      -0.19022735
Pt       6.35766924       3.67278822       4.32973778        6       0.00000000       0.00716398       0.00337412       0.06909361
Ni       8.86605793       3.66091150       4.29183791        6       1.00000000       0.01243447       0.09767014      -0.17871238
Ni       2.54251695       5.80547853       4.32959309        6       1.00000000      -0.01925352      -0.03097693      -0.07180158
Ni       5.06739626       5.82298053       4.31172297        6       1.00000000       0.08829469      -0.00670289      -0.06262080
Ni       7.60931215       5.86192390       4.27392271        6       1.00000000       0.05786657       0.08042532      -0.12306437
Ni      10.11988000       5.83588909       4.28169794        6       1.00000000      -0.07315108      -0.04608756      -0.10412324
Pt       3.83122116       7.96795417       4.27191033        6       0.00000000       0.06113986       0.00493922       0.12671057
Ni       6.37406346       7.99979401       4.22180894        5       1.00000000       0.06420843      -0.02600778      -0.13112307
Ni       8.83890815       7.99453750       4.25632694        6       1.00000000      -0.13867501      -0.02175245      -0.11245476
Ni      11.36912558       7.97583299       4.28756612        6       1.00000000      -0.01183949      -0.14182312      -0.02548946
Pt      -0.00523245      -0.00987759       6.47490114        9       0.00000000      -0.06790262       0.07731248       0.39879088
Pt       2.55057328      -0.02177294       6.41719223        8       0.00000000      -0.02609639       0.05190604       0.17074809
Ni       5.06154764      -0.03088462       6.41437532        8       1.00000000      -0.08502856       0.01158345      -0.02699005
Pt       7.50351647      -0.00472413       6.45708848        9       0.00000000       0.05972315       0.09048607       0.33917783
Ni       1.23594766       2.21190917       6.42082824        8       1.00000000       0.05235397      -0.05387204       0.04567611
Pt       3.80190459       2.27220419       6.35856292        8       0.00000000      -0.10090879       0.17956544       0.67307764
Ni       6.35053521       2.21515082       6.42555410        8       1.00000000      -0.00675248       0.09171245      -0.00845127
Ni       8.85194490       2.24303921       6.28467815        7       1.00000000      -0.04579556      -0.00143315       0.27058274
Ni       2.52563302       4.42285218       6.40454459        8       1.00000000       0.07731987       0.01392990      -0.06762237
Ni       5.07195662       4.42298508       6.40773267        8       1.00000000      -0.06209711       0.01580694      -0.06413086
Ni       7.59516162       4.34829212       6.41190868        8       1.00000000       0.10413398      -0.00545732      -0.03814906
Ni      10.13396279       4.34500322       6.40290749        8       1.00000000      -0.07493156      -0.01576729      -0.07140619
Ni       3.79946777       6.48329906       6.39163249        8       1.00000000      -0.01035307       0.06024259      -0.11230209
Ni       6.30966234       6.49367187       6.37578131        8       1.00000000       0.04600739       0.05551553      -0.21177615
Pt       8.89903372       6.47841637       6.39393563        8       0.00000000      -0.02878661      -0.09808270       0.02663096
Ni      11.41245331       6.51894896       6.36743842        8       1.00000000       0.01509227      -0.04604235      -0.12025769
