64
Lattice="10.177829824098959 0.02773931395633861 -0.024180679161513174 5.112937862619217 8.78712889636847 -0.06465546147645171 0.0 0.0 21.498076659039718" Properties=species:S:1:pos:R:3:tags:I:1:initial_magmoms:R:1:forces:R:3 unique_id=f7d79335aae24c188af96ca1767baada energy=-369.9927946736815 stress="0.002029969229900107 -5.010970558181424e-05 -8.626212198746261e-05 -5.010970558181424e-05 0.0015054028878570408 -0.0003173947530568509 -8.626212198746261e-05 -0.0003173947530568509 -0.005255663405014927" pbc="T T T"
Ni       0.03422170      -0.05203728       0.16996560        2       1.00000000       0.08486851      -0.04007425      -0.48966220
Ni       2.49912281       0.00607917       0.11968309        1       1.00000000       0.05574816       0.10808414      -0.32350292
Pt       5.11147764      -0.05687196       0.16255989        2       0.00000000      -0.09187927      -0.00142944      -0.74905666
Ni       7.63890097      -0.03584267       0.12958639        1       1.00000000      -0.06985626      -0.08538216      -0.45948790
Ni       1.27126905       2.21620620       0.08042687        1       1.00000000      -0.03871630       0.05008794       0.23284271
Pt       3.78678380       2.26593214       0.14558052        1       0.00000000       0.01384499      -0.03852176      -0.70619423
Ni       6.36721433       2.25071448       0.06694067        1       1.00000000      -0.04158758      -0.01978578       0.18032564
Pt       8.91056078       2.28211240       0.07649424        1       0.00000000       0.04244699       0.17212129      -0.97443122
Ni       2.52934713       4.43444906       0.04928011        0       1.00000000       0.04963215      -0.02777149       0.33884504
Ni       5.11721064       4.44153241       0.04250282        0       1.00000000      -0.10136848       0.00135111       0.28002751
Ni       7.61002994       4.44359487       0.04320428        0       1.00000000       0.05957480       0.03168697       0.24583315
Ni      10.22213712       4.44876158       0.03567048        0       1.00000000      -0.03475382      -0.04037994       0.32194138
Ni       3.83170725       6.56052901       0.03628886        0       1.00000000       0.00878058       0.00105910       0.28081496
Ni       6.34439311       6.56634785       0.00000000        0       1.00000000      -0.04208712      -0.00030553       0.18376627
Ni       8.93288475       6.53240371       0.10306048        1       1.00000000       0.13129619      -0.06218224      -0.42806769
Ni      11.49424483       6.55261591       0.02632762        0       1.00000000      -0.02863018       0.05066741       0.26386035
Ni       1.30147742       0.76763150       2.12341747        4       1.00000000       0.00433355       0.15169281       0.08571330
Ni       3.77570471       0.73916512       2.15969705        5       1.00000000      -0.11040755      -0.00374832       0.19500525
Ni       6.36755233       0.74077676       2.14695663        4       1.00000000       0.01255112       0.06091712       0.10467618
Pt       8.88218499       0.72654759       2.11367127        4       0.00000000       0.02724848      -0.11583809       0.15128873
Ni       2.51249757       2.95742196       2.19162238        5       1.00000000      -0.02865691       0.07521357       0.10748394
Ni       5.10320949       2.97583716       2.11526462        4       1.00000000       0.03510079       0.04271908       0.05579961
Ni       7.61123986       2.97967253       2.13446482        4       1.00000000      -0.03107010       0.04487479       0.08985747
Ni      10.22667075       3.01067794       2.12100821        4       1.00000000       0.06441505       0.06570468       0.10299313
Ni       3.82732080       5.10102603       2.08128854        4       1.00000000      -0.03864288      -0.07037069      -0.01059694
Ni       6.33919567       5.10707104       2.05872048        4       1.00000000      -0.01040116      -0.00292589       0.04541818
Ni       8.95212184       5.09050843       2.08265330        4       1.00000000       0.00366025      -0.06114162       0.06324642
Ni      11.44664960       5.12559977       2.06756046        4       1.00000000      -0.01797518      -0.02996575       0.04285065
Ni       5.09624090       7.24275335       2.06487837        4       1.00000000      -0.09236781      -0.09250096       0.07512618
Pt       7.63677805       7.33089257       2.05481580        4       0.00000000      -0.06684035      -0.04421175      -0.01653568
Ni      10.22915451       7.26915316       2.14476229        4       1.00000000       0.02071545      -0.09542902       0.17160725
Ni      12.70273683       7.27087260       2.03582897        3       1.00000000      -0.01045647      -0.08403660       0.04798106
Pt       0.08000280       1.49907547       4.23124917        7       0.00000000       0.10689275      -0.08041211      -0.02039772
Ni       2.54847152       1.46592714       4.20898209        7       1.00000000       0.04766169      -0.03613569      -0.23866415
Pt       5.06628268       1.42019798       4.14984677        6       0.00000000       0.09535403      -0.02785885      -0.13324842
Ni       7.61508534       1.45651261       4.23765981        7       1.00000000      -0.02402881      -0.08914018      -0.21611815
Ni       1.27718586       3.64560590       4.25962024        8       1.00000000       0.04040286      -0.00533972      -0.11468832
Ni       3.79126376       3.65992913       4.19423480        7       1.00000000      -0.00434565       0.00409606      -0.22729358
Pt       6.35165743       3.65043507       4.24398660        7       0.00000000       0.01712625      -0.05328536      -0.01356697
Ni       8.95251766       3.70770572       4.18324617        7       1.00000000       0.09466259       0.05320491      -0.23319353
Pt       2.51159573       5.76314640       4.22362595        7       0.00000000      -0.02400340      -0.01615502      -0.04307129
Ni       5.08832767       5.81721466       4.23704800        7       1.00000000       0.00845151      -0.04882379      -0.16247958
Pt       7.65089971       5.85768910       4.21020086        7       0.00000000      -0.01348211       0.05486227       0.02551679
Ni      10.19373152       5.83126543       4.19192826        7       1.00000000      -0.01447178       0.01389714      -0.15924360
Pt       3.84221784       7.96912025       4.18604597        7       0.00000000       0.06254773       0.06562201      -0.05531616
Ni       6.38975203       8.03372235       4.18723403        7       1.00000000       0.04590211       0.01960056      -0.15865085
Ni       8.92463150       8.02906109       4.16616868        7       1.00000000      -0.01398805       0.00187825      -0.23728298
Ni      11.43673970       8.00186550       4.13624804        6       1.00000000      -0.00362813      -0.08086269      -0.21058740
Pt       0.00090261      -0.08985828       6.49807666       11       0.00000000      -0.16945000       0.11170082       0.38209602
Pt       2.51719716      -0.02454436       6.38982241       10       0.00000000       0.26396130       0.05420493       0.20621965
Pt       5.09389690      -0.03645023       6.33076667        9       0.00000000      -0.21401080      -0.16060714       0.86450946
Pt       7.60949436      -0.05516637       6.43704713       10       0.00000000       0.10108653       0.15311689       0.36267359
Ni       1.26877492       2.23515005       6.39573673       10       1.00000000       0.03556579       0.04854683      -0.02738665
Pt       3.79029068       2.31229908       6.32068233        9       0.00000000      -0.12332892      -0.03404956       0.65615267
Ni       6.34408916       2.22970862       6.39036327       10       1.00000000       0.02826173       0.00430822       0.03599972
Pt       8.87994526       2.30597945       6.28658934        9       0.00000000      -0.15481580      -0.12528861       1.00054346
Ni       2.51213559       4.40599727       6.38617548       10       1.00000000       0.05760693      -0.05142027      -0.17706705
Ni       5.09399512       4.43037949       6.38131055       10       1.00000000      -0.09718101       0.01994698      -0.19763661
Ni       7.57005291       4.38857999       6.39139653       10       1.00000000      -0.02767021      -0.02835390      -0.04092568
Ni      10.25448792       4.37951347       6.34020580        9       1.00000000       0.05726752      -0.00633051      -0.24590939
Ni       3.82801692       6.47013279       6.38519459       10       1.00000000       0.00903753      -0.00631312      -0.15641329
Ni       6.33224712       6.50083371       6.35912767       10       1.00000000      -0.03770439       0.06823704      -0.10687443
Pt       8.94272776       6.45082384       6.42226489       10       0.00000000       0.12489131       0.16454337       0.25203600
Ni      11.48547503       6.51195301       6.35305396       10       1.00000000      -0.03309072       0.07243147      -0.11950050
