64
Lattice="10.476816961368678 -0.004104573207793114 0.028574282567990678 5.234853816014702 9.111242001619024 0.04132371688307505 0.0 0.0 21.747633985109204" Properties=species:S:1:pos:R:3:tags:I:1:initial_magmoms:R:1:forces:R:3 unique_id=ec7df0a80c32430cb19f9190c30e1d4c energy=-388.0361703008908 stress="0.005215995252720911 -0.00014768053787633277 0.00016536191343427547 -0.00014768053787633277 0.0055699527704141955 -7.586036777623194e-05 0.00016536191343427547 -7.586036777623194e-05 -0.0024839773486162366" pbc="T T T"
Pt       0.00200626      -0.06831746       0.00000000        0       0.00000000       0.03011722      -0.10233225      -0.06056168
Pt       2.66930586      -0.02047367       0.10391616        1       0.00000000       0.01008663      -0.12723316      -0.20622334
Ni       5.23987657      -0.00237873       0.05200910        1       1.00000000      -0.01057073       0.02494897       0.15657349
Pt       7.83595130      -0.03184779       0.10831450        1       0.00000000       0.04100018       0.05181144      -0.77296975
Pt       1.32803853       2.27758191       0.11039815        1       0.00000000       0.18222029       0.03652115      -0.64098551
Pt       3.96207865       2.27060628       0.04001128        0       0.00000000      -0.12051464      -0.01382091       0.07926164
Pt       6.52915832       2.33882701       0.09746770        1       0.00000000       0.09731484      -0.01895411      -0.61760644
Pt       9.14446591       2.29571600       0.00035681        0       0.00000000      -0.09074327      -0.10928422      -0.19783475
Pt       2.69801455       4.59603807       0.10570443        1       0.00000000      -0.06579736      -0.15557870      -0.32722499
Ni       5.25526633       4.56766012       0.06389998        1       1.00000000       0.05060219      -0.09461130       0.38374138
Ni       7.82844356       4.56866328       0.12584601        1       1.00000000       0.00815594       0.00793987       0.11102240
Pt      10.44010286       4.57450524       0.00952942        0       0.00000000       0.06410468       0.10596010      -0.12364514
Ni       3.93842533       6.82930476       0.15069214        2       1.00000000      -0.03893656       0.13657888       0.03880844
Pt       6.50040141       6.73455443       0.10649269        1       0.00000000       0.13323317       0.08090081       0.35243491
Pt       9.15975072       6.85550855       0.15659831        2       0.00000000      -0.02677083       0.05887351      -0.39362710
Pt      11.79367701       6.86765619       0.07240060        1       0.00000000      -0.05469866       0.00285789       0.01962309
Pt       1.41856172       0.69107971       2.35843439        4       0.00000000       0.01670344      -0.06457765       0.13847793
Ni       3.92665179       0.72741985       2.30043917        3       1.00000000      -0.01122955      -0.09067826       0.28004624
Pt       6.45668820       0.69168377       2.26474065        3       0.00000000      -0.13805082       0.02551435       0.11361413
Pt       9.18429855       0.69922536       2.29463565        3       0.00000000       0.07600319       0.05057503       0.19180272
Ni       2.64915351       3.02089424       2.29282330        3       1.00000000      -0.02737543      -0.05834825       0.33387795
Pt       5.17678107       3.08380246       2.33930327        3       0.00000000      -0.10672148       0.11547747       0.23002109
Pt       7.82191832       3.10870251       2.32310214        3       0.00000000      -0.03639632       0.01459491       0.26277672
Pt      10.49335283       3.06219138       2.34001287        3       0.00000000       0.01475761       0.06320251       0.24411516
Pt       3.98410688       5.39630061       2.30311711        3       0.00000000       0.12997519       0.15440990       0.11774144
Ni       6.54500744       5.35624358       2.29914953        3       1.00000000      -0.04854809       0.07943484       0.22932035
Pt       9.08741401       5.40122568       2.35574731        4       0.00000000      -0.01614125       0.07032945       0.16230130
Pt      11.81252873       5.39841708       2.33580054        3       0.00000000      -0.15142324       0.13155991       0.17192351
Ni       5.28170895       7.57218330       2.28887801        3       1.00000000       0.15744051       0.02339196       0.27215044
Ni       7.85317768       7.59506155       2.35665822        4       1.00000000      -0.01935354      -0.05024021       0.44545219
Ni      10.43690225       7.62496244       2.31115330        3       1.00000000      -0.15930524       0.04275058       0.25899914
Ni      13.10895208       7.57801845       2.31368032        3       1.00000000       0.05110063       0.02031131       0.29409301
Pt       0.04856951       1.49344336       4.51331094        5       0.00000000      -0.04610702      -0.15297180      -0.10691002
Ni       2.64194728       1.52092482       4.46139630        5       1.00000000      -0.02987386       0.02772346      -0.32022284
Pt       5.12604865       1.52169045       4.50077985        5       0.00000000      -0.12358046      -0.19125934      -0.07900078
Pt       7.85780821       1.59834465       4.50438149        5       0.00000000      -0.03975146       0.01694583      -0.26379645
Pt       1.38819221       3.80960999       4.45012399        5       0.00000000       0.03068217       0.02505806      -0.31028982
Ni       3.95413718       3.80964808       4.49969248        5       1.00000000       0.12460387       0.01246772      -0.14074334
Ni       6.55603002       3.84188328       4.49660886        5       1.00000000      -0.00787464       0.00305217      -0.21115542
Ni       9.15734932       3.83414887       4.53896519        5       1.00000000       0.01071314       0.02286533      -0.21770685
Ni       2.65001520       6.08939879       4.49835707        5       1.00000000       0.07457808       0.01035548      -0.24526506
Pt       5.33661628       6.02728344       4.50355143        5       0.00000000       0.06062542      -0.10414425      -0.01382334
Ni       7.85093122       6.10572535       4.50094677        5       1.00000000       0.03242698       0.08650679      -0.22089958
Pt      10.44341374       6.07133481       4.53142204        5       0.00000000       0.01367920      -0.13481221      -0.08039172
Pt       3.98273592       8.28323569       4.46193913        5       0.00000000       0.12803561      -0.14750649      -0.26548982
Ni       6.61001685       8.32034257       4.50548646        5       1.00000000       0.09492028      -0.18437624      -0.23760725
Ni       9.12549828       8.35959764       4.45680837        5       1.00000000      -0.12246842      -0.08060454      -0.44033327
Pt      11.74190893       8.32175470       4.52065481        5       0.00000000      -0.14816499      -0.00931653      -0.17461883
Ni       0.02266263       0.00683533       6.60396126        6       1.00000000       0.06643853      -0.07205402      -0.00410225
Pt       2.63641830       0.01091718       6.55952891        6       0.00000000      -0.04879752       0.06914198       0.15599571
Ni       5.24081758       0.01521102       6.68421519        7       1.00000000      -0.01114513       0.01317041      -0.30148193
Pt       7.87228703       0.01112569       6.65632925        7       0.00000000       0.02820108       0.04910477       0.73063673
Pt       1.31340940       2.29795711       6.64615902        6       0.00000000       0.19970759      -0.03728190       0.70598011
Ni       3.93756362       2.29691160       6.61395978        6       1.00000000      -0.20077862       0.06450141      -0.07732277
Pt       6.48789658       2.32505026       6.64808376        6       0.00000000      -0.02417528       0.14490671       0.64797233
Ni       9.18929190       2.31115860       6.62137958        6       1.00000000      -0.06086287       0.07992080       0.04294662
Pt       2.67166323       4.57833342       6.61543266        6       0.00000000       0.13696059       0.07680755       0.49063145
Ni       5.26395120       4.57272310       6.68992462        7       1.00000000      -0.01009781      -0.06522613      -0.36432130
Pt       7.86481558       4.57938572       6.66707311        7       0.00000000      -0.00378920       0.04594347      -0.25078471
Ni      10.48406801       4.56103577       6.62504876        6       1.00000000      -0.00537488      -0.06011071      -0.02547454
Pt       4.00213466       6.83908425       6.74763399        7       0.00000000      -0.11955173      -0.00612903       0.00001587
Ni       6.56494757       6.84496392       6.63815563        6       1.00000000       0.11723547       0.07702977      -0.23779530
Pt       9.19867859       6.87053275       6.65848203        7       0.00000000      -0.18025158       0.07477504       0.34936313
Ni      11.79546138       6.83742578       6.65382865        7       1.00000000       0.12359879      -0.06676939      -0.08150475
