64
Lattice="10.551265331397017 0.002664645163191599 0.015990527938905492 5.277940316101964 9.165148028829162 0.004316863324138844 0.0 0.0 21.81031547345329" Properties=species:S:1:pos:R:3:tags:I:1:initial_magmoms:R:1:forces:R:3 unique_id=8219b5f93e3d44caacaffe58a52e6e5a energy=-390.4370224849186 stress="0.0057544195824484334 -0.00013623182594745526 -7.721155728903389e-05 -0.00013623182594745526 0.006344739300875398 -9.283046323003874e-05 -7.721155728903389e-05 -9.283046323003874e-05 0.00019142837598057176" pbc="T T T"
Pt       0.01824659       0.03461978       0.00000000        0       0.00000000      -0.00792422      -0.14143762      -0.20309991
Ni       2.64309614       0.01088520       0.09875709        1       1.00000000      -0.04704453      -0.04643633       0.10013822
Pt       5.24066483       0.00151823       0.01395016        0       0.00000000       0.12784240       0.04948373      -0.11284719
Pt       7.90757415       0.01604176       0.09211204        1       0.00000000      -0.08730605       0.07415394      -0.53251730
Pt       1.32126662       2.28000778       0.01447176        0       0.00000000      -0.04045158       0.13694037       0.01339997
Ni       3.94908101       2.28332619       0.10861479        1       1.00000000       0.01068754       0.06845807       0.17787403
Pt       6.63914038       2.32076378       0.09854076        1       0.00000000       0.11327308      -0.04599798      -0.35038452
Ni       9.23997555       2.31503497       0.05694304        1       1.00000000      -0.02104269      -0.01118192       0.39905860
Pt       2.61350756       4.58586471       0.10985157        1       0.00000000      -0.14330236       0.08301270      -0.49395962
Pt       5.30375086       4.56240858       0.11194555        1       0.00000000       0.07687801       0.04386260      -0.46393647
Ni       7.93118549       4.57519532       0.11606296        1       1.00000000      -0.02679062       0.05004931       0.27419966
Pt      10.50350828       4.56427366       0.10129772        1       0.00000000      -0.04281375      -0.06486325       0.35530372
Pt       3.93622167       6.87403104       0.08532188        1       0.00000000       0.10480216      -0.00795270      -0.91917928
Pt       6.63812099       6.85663243       0.11206446        1       0.00000000      -0.02996396      -0.12381036      -0.62154758
Pt       9.24995132       6.85163378       0.03607766        0       0.00000000       0.06375440      -0.13129532       0.02888668
Ni      11.85753179       6.87021753       0.11177820        1       1.00000000      -0.06380542      -0.01864299       0.14139383
Pt       1.30658692       0.79404694       2.30841856        2       0.00000000       0.02750236      -0.00454969       0.23111188
Pt       3.94803428       0.75903577       2.26002489        2       0.00000000       0.00951705      -0.12739362       0.17959619
Pt       6.61073377       0.76641236       2.37302209        3       0.00000000       0.04691581       0.02210218       0.45689179
Pt       9.25370212       0.85161276       2.34524983        2       0.00000000       0.03362793       0.39301812       0.26204398
Pt       2.58908543       3.08941890       2.31923889        2       0.00000000      -0.16210785       0.07329411       0.28779357
Pt       5.30551400       3.09092440       2.35862244        3       0.00000000       0.10262215       0.02073882       0.46943253
Pt       7.98577725       3.16376887       2.35909272        3       0.00000000       0.17718599       0.26654773       0.33484227
Ni      10.54370931       3.09577915       2.31568022        2       1.00000000      -0.00307808       0.25398666       0.26231903
Pt       3.95549853       5.32676937       2.35190535        3       0.00000000      -0.05681767      -0.04781782       0.33390288
Ni       6.64104969       5.32990850       2.31023685        2       1.00000000       0.22542548      -0.07113277       0.37731730
Ni       9.24263209       5.32393989       2.32420884        2       1.00000000       0.11510720      -0.03777255       0.42152247
Ni      11.82884667       5.33007813       2.30548356        2       1.00000000      -0.23892266      -0.18888442       0.30751239
Pt       5.28761967       7.62111705       2.32271356        2       0.00000000      -0.08132936       0.10603769       0.25778911
Pt       7.94427269       7.55139934       2.33884868        2       0.00000000       0.14129141      -0.19474757       0.44650350
Pt      10.56157305       7.53704842       2.34983769        2       0.00000000      -0.05675048      -0.27357452       0.32401606
Pt      13.15033867       7.60574594       2.32414367        2       0.00000000      -0.03673332      -0.03742253       0.22175281
Ni      -0.03057090       1.56069458       4.57813607        5       1.00000000      -0.27129012       0.20500674       0.02571823
Pt       2.61694490       1.56752438       4.56196988        5       0.00000000      -0.01935965       0.16668277      -0.18929660
Pt       5.33162406       1.53515059       4.55900584        5       0.00000000      -0.03155850      -0.07295006      -0.10579264
Ni       7.95360932       1.56419657       4.55838220        5       1.00000000       0.23054157       0.33647719      -0.24937837
Pt       1.19521447       3.81926206       4.53731911        4       0.00000000      -0.57386492       0.01043854      -0.22920671
Ni       3.97203223       3.80885153       4.54876998        4       1.00000000      -0.03135377      -0.04593379      -0.31222579
Ni       6.64386802       3.82414332       4.53788734        4       1.00000000       0.31484570       0.00391260      -0.36434739
Ni       9.22934531       3.82174390       4.54882437        4       1.00000000      -0.15927698      -0.00887841      -0.20763074
Pt       2.57124555       6.10638754       4.50949117        4       0.00000000      -0.27512243      -0.00672441      -0.26663530
Pt       5.34738202       6.03410510       4.49359772        4       0.00000000       0.22163139      -0.15766960      -0.27084172
Ni       7.95573660       6.06334116       4.54042198        4       1.00000000       0.22517720      -0.28565893      -0.41061748
Ni      10.52898608       6.08660103       4.55603105        5       1.00000000      -0.24749641      -0.21443100      -0.21908670
Pt       3.94772071       8.47790944       4.54089864        4       0.00000000      -0.01273459       0.07637356      -0.24762137
Pt       6.59953668       8.41776998       4.55619427        5       0.00000000       0.03163409       0.06026121      -0.21372491
Pt       9.29637305       8.31426485       4.61063283        5       0.00000000       0.04481933      -0.16973645      -0.07455128
Ni      11.87046995       8.40035348       4.57409594        5       1.00000000       0.00706666      -0.01214893      -0.27821411
Ni       0.01217223       0.03848146       6.71180005        6       1.00000000       0.03759261       0.21222758      -0.20809524
Pt       2.64686430       0.00416471       6.81031547        7       0.00000000      -0.07099769       0.00092253       0.21493347
Ni       5.28169448      -0.01343470       6.72340946        6       1.00000000       0.06812923       0.04278043      -0.06536809
Pt       7.92459993       0.04420942       6.70065665        6       0.00000000      -0.10243983       0.07960150       0.42496720
Ni       1.28058253       2.28202554       6.71716070        6       1.00000000      -0.25433778      -0.05686163      -0.28514013
Pt       3.95060977       2.26304337       6.79820774        7       0.00000000       0.00921542       0.09841556       0.21813015
Pt       6.65956960       2.28511956       6.69904046        6       0.00000000       0.30115743       0.17474235       0.41910939
Ni       9.27436129       2.28956640       6.76859597        7       1.00000000       0.20031886      -0.01774164      -0.75422497
Pt       2.58520501       4.54519508       6.71077186        6       0.00000000      -0.09478886      -0.08562855       0.38991653
Pt       5.29961498       4.55642342       6.69794600        6       0.00000000       0.05971953      -0.15891062       0.46686454
Pt       8.03062501       4.57559359       6.72942241        6       0.00000000       0.25449655       0.00308906      -0.43308540
Ni      10.54598465       4.56705092       6.73300917        6       1.00000000      -0.04205420      -0.02901606      -0.41388155
Pt       3.96975603       6.90320385       6.71818528        6       0.00000000      -0.05364862       0.02070803       0.56649034
Pt       6.65401451       6.87878288       6.72223688        6       0.00000000       0.26800724      -0.10845258       0.46769826
Ni       9.25662939       6.86149729       6.72718315        6       1.00000000      -0.05034121      -0.14292502      -0.13243613
Pt      11.77644675       6.88218074       6.76798417        7       0.00000000      -0.21393567       0.01525598      -0.22955609
