64
Lattice="10.707521701914876 0.005716142527200305 -0.006536409374765759 5.358711175597645 9.303795642736693 0.021841814878710564 0.0 0.0 21.8920275147872" Properties=species:S:1:pos:R:3:tags:I:1:initial_magmoms:R:1:forces:R:3 unique_id=3b6cd6e1d52046f9b0ec12dd2201090b stress="0.0042338280929472005 5.7809203216895414e-05 -7.19420992544578e-05 5.7809203216895414e-05 0.004430870745748385 -0.00013796537158603775 -7.19420992544578e-05 -0.00013796537158603775 -0.0013355300430187202" energy=-400.1451161392914 pbc="T T T"
Pt      -0.00156049       0.00521162       0.08081594        1       0.00000000       0.05087152       0.02272431      -0.32981594
Pt       2.69167597       0.00756417       0.09687335        1       0.00000000       0.04084158       0.02544334      -0.24080023
Pt       5.34516481       0.01165310       0.02500034        0       0.00000000      -0.11155707      -0.00371699      -0.00311041
Pt       8.02691816       0.00908285       0.00000000        0       0.00000000       0.02127496       0.00503262      -0.06871234
Pt       1.33719335       2.32874967       0.08636658        1       0.00000000      -0.05161869       0.01787056      -0.26129270
Pt       4.01881718       2.31867856       0.02717624        0       0.00000000      -0.05138929      -0.10455844      -0.02198949
Pt       6.68941766       2.32605755       0.07571147        1       0.00000000       0.04622657       0.04807837      -0.38739410
Pt       9.36917988       2.32800209       0.00841098        0       0.00000000       0.05120418       0.03977462      -0.08317018
Pt       2.68249429       4.64534235       0.09951571        1       0.00000000      -0.08152509       0.00157381      -0.34863162
Pt       5.35639981       4.65012621       0.01448504        0       0.00000000       0.02569631      -0.00475487      -0.06881064
Pt       8.02835817       4.65815576       0.08492544        1       0.00000000       0.04229672       0.01706952      -0.38695584
Pt      10.70939894       4.65275358       0.08977952        1       0.00000000      -0.00988252       0.00579882      -0.37353438
Pt       4.02002977       6.97848269       0.09730588        1       0.00000000      -0.01347460       0.01768040      -0.46963254
Pt       6.69657159       6.97784936       0.02552458        0       0.00000000       0.06847216       0.04945867      -0.03351802
Pt       9.36848180       6.98778226       0.09571341        1       0.00000000      -0.01542451      -0.03351517      -0.25618597
Pt      12.04597371       6.99125445       0.09896069        1       0.00000000      -0.04444686      -0.06738250      -0.38684698
Pt       1.36838669       0.78356287       2.39049423        2       0.00000000       0.03492821      -0.03519427       0.41514705
Ni       4.01490780       0.78047760       2.35801376        2       1.00000000      -0.00357556       0.01965541       0.42935510
Pt       6.65274557       0.77859677       2.36526383        2       0.00000000      -0.03023065       0.06031540       0.39252327
Pt       9.37436861       0.79809101       2.38966637        2       0.00000000      -0.03956932       0.03632044       0.45238970
Pt       2.68882484       3.07426321       2.39922836        2       0.00000000       0.04251813      -0.04961891       0.40078869
Pt       5.32998214       3.07992490       2.37438279        2       0.00000000      -0.00279718      -0.05726834       0.39854727
Pt       8.03439176       3.10455787       2.36699847        2       0.00000000      -0.04082740      -0.05176515       0.41971365
Pt      10.72093794       3.10053679       2.42897323        2       0.00000000       0.04375870      -0.05586738       0.55334554
Pt       4.02446906       5.42268893       2.37827077        2       0.00000000       0.07875908      -0.04687659       0.41326558
Pt       6.70082536       5.44707245       2.40401754        2       0.00000000      -0.01574219       0.02378103       0.45289009
Pt       9.36222389       5.44858632       2.39989450        2       0.00000000      -0.02938647       0.00945971       0.42442774
Pt      12.03980908       5.42466851       2.40043489        2       0.00000000      -0.05452971      -0.01706967       0.49887615
Pt       5.37586807       7.76306056       2.38550290        2       0.00000000       0.07270143       0.01614729       0.41134425
Pt       8.05682475       7.78968527       2.43993048        2       0.00000000       0.01701045       0.05107066       0.53239399
Pt      10.67773794       7.80659673       2.40856042        2       0.00000000      -0.04305201       0.13114120       0.41696055
Pt      13.37982304       7.77463763       2.38180720        2       0.00000000      -0.04846138       0.08116453       0.42115588
Ni       0.00520166       1.57789597       4.66749946        4       1.00000000       0.07974985       0.03567577      -0.34401937
Pt       2.65591570       1.56064699       4.63428532        3       0.00000000      -0.05039297      -0.03078855      -0.34147699
Pt       5.30491987       1.52110216       4.67759154        4       0.00000000      -0.22161536      -0.12899177      -0.18335258
Pt       8.06836375       1.56795620       4.70019468        4       0.00000000       0.08952416      -0.00582242      -0.11588023
Ni       1.32809990       3.86909587       4.66034799        4       1.00000000      -0.01166685      -0.06599240      -0.42798842
Pt       4.00455064       3.86774298       4.69361351        4       0.00000000       0.12450119      -0.08702811      -0.13482837
Pt       6.69658972       3.90923216       4.66869145        4       0.00000000       0.00572012      -0.08869647      -0.35334606
Pt       9.40608355       3.86646744       4.66433019        4       0.00000000       0.05100102      -0.13360476      -0.19068425
Pt       2.65934782       6.18981094       4.65179904        4       0.00000000      -0.03012347      -0.03481324      -0.40239262
Pt       5.40494961       6.21550212       4.71343568        4       0.00000000       0.12812282      -0.02421336      -0.09751957
Ni       8.03601974       6.23172968       4.67611435        4       1.00000000       0.03283145       0.04242763      -0.34030397
Pt      10.65876151       6.22703170       4.64069252        3       0.00000000      -0.14305321       0.02321382      -0.33298635
Pt       4.02509529       8.56774646       4.68280368        4       0.00000000      -0.01008904      -0.04293602      -0.30043746
Pt       6.74124477       8.52339014       4.68577555        4       0.00000000       0.09089717      -0.10315798      -0.17789674
Ni       9.36415160       8.54095705       4.66713067        4       1.00000000      -0.01294140       0.01414144      -0.37003152
Pt      12.00772470       8.56647965       4.70385002        4       0.00000000      -0.04724579       0.12968687      -0.11880392
Pt      -0.03057289       0.04103498       6.85355785        6       0.00000000       0.06425591       0.21721469       0.22890591
Pt       2.72382686       0.02729405       6.85472485        6       0.00000000       0.20037242       0.07842199       0.19132911
Ni       5.35114220       0.03051526       6.87685380        6       1.00000000      -0.06931172       0.01894101      -0.35929370
Ni       8.02506541       0.03376814       6.87427350        6       1.00000000       0.01455661      -0.00124684      -0.32404767
Pt       1.32332286       2.33829980       6.83695201        5       0.00000000      -0.07328079       0.02343366       0.17924166
Ni       4.02465868       2.33936148       6.88340414        6       1.00000000       0.03873611      -0.04572228      -0.38850971
Pt       6.66814070       2.31247475       6.87464683        6       0.00000000      -0.10652553      -0.04847520       0.35720023
Ni       9.36318051       2.33378350       6.87051766        6       1.00000000      -0.03500247      -0.03543982      -0.36675405
Pt       2.71378806       4.63547055       6.87901102        6       0.00000000      -0.11711296      -0.04948930       0.42004814
Ni       5.35819628       4.66812110       6.88843601        6       1.00000000       0.03452237      -0.07501409      -0.32992150
Pt       7.98979431       4.68832575       6.86065550        6       0.00000000      -0.10012782       0.14109724       0.21308262
Pt      10.70410901       4.64792659       6.86094571        6       0.00000000       0.17930921       0.02406306       0.35191641
Pt       4.05086767       6.99141300       6.89202751        6       0.00000000      -0.02668234      -0.01783198       0.43081405
Ni       6.69283899       6.98605608       6.88561917        6       1.00000000       0.04449678       0.01469838      -0.34000708
Pt       9.33749470       7.02553707       6.84643835        5       0.00000000      -0.12731215       0.10758588       0.17667054
Pt      12.04683246       7.05571697       6.89080772        6       0.00000000       0.05481721      -0.00330929       0.47855036
