64
Lattice="10.160644312359409 0.017198723195807137 -0.01419615412842979 5.095216687379982 8.758208210431343 -0.057557190080102794 -0.011591111308186061 -0.047573307981590464 8.687661578760515" Properties=species:S:1:pos:R:3:tags:I:1:initial_magmoms:R:1:forces:R:3 unique_id=c1b3216714d947b4af3ec1f753d2932b stress="-0.006705335630616344 8.20262238693519e-06 1.6554324142338006e-05 8.20262238693519e-06 -0.006653678414909006 -2.167733075843696e-06 1.6554324142338006e-05 -2.167733075843696e-06 -0.005724167537010459" energy=-390.6214892832264 pbc="T T T"
Ni       0.03430870      -0.05235342       0.20239566        4       1.00000000       0.05260960      -0.07012092       0.14361118
Ni       2.49478433       0.00320030       0.15506169        4       1.00000000      -0.03062697       0.05579873      -0.04766570
Pt       5.10400932      -0.06177513       0.20182238        4       0.00000000      -0.04366877      -0.07145721      -0.08101508
Ni       7.62867160      -0.04346332       0.17202267        4       1.00000000      -0.00391306      -0.11766678       0.06964342
Ni       1.26674266       2.20972670       0.11697278        4       1.00000000      -0.02750229       0.08523262       0.10677027
Pt       3.77870887       2.25669216       0.18209944        4       0.00000000      -0.03433417       0.02349598      -0.10221241
Ni       6.35549244       2.23920366       0.10867776        4       1.00000000      -0.02669726       0.04425073       0.12479170
Pt       8.89454881       2.26378985       0.12389000        4       0.00000000      -0.01693460       0.07376193      -0.19047835
Ni       2.52151406       4.42119027       0.08392728        4       1.00000000      -0.01043185       0.02697044       0.06437842
Ni       5.10526765       4.42604562       0.08221825        4       1.00000000      -0.04723633       0.03858562       0.04215362
Ni       7.59381598       4.42427615       0.08641205        4       1.00000000      -0.04117003       0.05077642       0.10570566
Ni      10.20246022       4.42720345       0.08156866        4       1.00000000       0.06211053       0.02093450       0.04392275
Ni       3.81908513       6.53951946       0.07258101        4       1.00000000      -0.02035221      -0.05765982       0.03899573
Ni       6.32740715       6.54215500       0.04152022        4       1.00000000      -0.06453210      -0.04080721      -0.06556935
Ni       8.91144396       6.50382730       0.14724464        4       1.00000000       0.08061234      -0.12320174       0.14701786
Ni      11.46932383       6.52178568       0.06833988        4       1.00000000       0.01440089      -0.06891141       0.02950776
Ni       1.29956382       0.76536244       2.15569946        3       1.00000000       0.00873999       0.10281740       0.02846374
Ni       3.76952325       0.73509480       2.19455400        3       1.00000000      -0.07000035       0.01559286      -0.01296976
Ni       6.35884981       0.72941828       2.18539733        3       1.00000000       0.01703416      -0.00938979       0.02910812
Pt       8.86762262       0.70616416       2.16381076        3       0.00000000       0.03955776      -0.03185930       0.14761189
Ni       2.50862288       2.95580325       2.22943469        3       1.00000000      -0.01016832       0.09541621       0.05825797
Ni       5.08876122       2.96615131       2.15389415        3       1.00000000      -0.02522917       0.09327374       0.01717911
Ni       7.59699240       2.96366478       2.17512568        3       1.00000000       0.00755386       0.04522239       0.05954162
Ni      10.21181205       2.99533664       2.16491851        3       1.00000000       0.05642369       0.06899899       0.02571220
Ni       3.79925668       5.09215132       2.14722960        3       1.00000000      -0.04694585      -0.02445192       0.00121384
Ni       6.32194145       5.08751896       2.09799756        3       1.00000000      -0.02573588       0.02026256       0.03010991
Ni       8.93860974       5.06826612       2.12574468        3       1.00000000       0.02965783      -0.03862213       0.05002204
Ni      11.44498668       5.10929229       2.14861347        3       1.00000000       0.02117203      -0.02303064       0.05023855
Ni       5.07865389       7.21441664       2.10438029        3       1.00000000      -0.06249707      -0.12694153       0.04062540
Pt       7.61773711       7.30377587       2.09523603        3       0.00000000      -0.06276819      -0.01134017       0.00591438
Ni      10.21157746       7.23503109       2.19005649        3       1.00000000      -0.00519501      -0.11026909       0.06942477
Ni      12.67154315       7.22102468       2.09434412        3       1.00000000       0.00190612      -0.10946233       0.01663113
Pt       0.08360384       1.49824598       4.25947048        2       0.00000000       0.05356476      -0.03297072       0.00074244
Ni       2.54615268       1.46705354       4.23792720        2       1.00000000       0.03608793       0.04272395      -0.10621086
Pt       5.05949756       1.41194724       4.18106684        2       0.00000000       0.02001286      -0.00104938      -0.10913641
Ni       7.60601448       1.43796013       4.27400973        2       1.00000000      -0.00426229      -0.07846659      -0.05109442
Ni       1.30353664       3.68516814       4.28510203        2       1.00000000       0.03323442       0.01769408      -0.06930915
Ni       3.75295840       3.70229213       4.23002688        2       1.00000000      -0.00018064       0.04919643      -0.14452786
Pt       6.33503649       3.63606484       4.27843940        2       0.00000000       0.02048902      -0.02568136      -0.02500901
Ni       8.94365164       3.69309411       4.21879373        2       1.00000000       0.08733282       0.05446030      -0.16785686
Ni       2.51290436       5.75810666       4.26618251        2       1.00000000      -0.02027755      -0.01944753      -0.15255526
Ni       5.04967998       5.78350023       4.26801958        2       1.00000000       0.00528547      -0.06830764      -0.14141200
Pt       7.64035915       5.83528884       4.24703122        2       0.00000000       0.03585755       0.00964900       0.02419193
Ni      10.22793412       5.80432455       4.23250975        2       1.00000000       0.00873642      -0.02821419      -0.05819203
Pt       3.79521085       7.88589481       4.21836400        2       0.00000000       0.00865478      -0.01392096       0.02766489
Ni       6.36363868       8.00345139       4.22082277        2       1.00000000      -0.03473667       0.01420607      -0.08974653
Ni       8.90913134       7.99579663       4.20280173        2       1.00000000       0.01557014      -0.04759989      -0.07085337
Ni      11.42279616       7.93244177       4.17970400        2       1.00000000       0.01704440      -0.07959890      -0.08928628
Pt       0.00098458      -0.09432393       6.50996858        1       0.00000000      -0.05924144       0.00480509       0.17571957
Pt       2.51669166      -0.02685717       6.41283448        1       0.00000000       0.08372908       0.02270527      -0.06375413
Pt       5.09140714      -0.04024743       6.35585193        1       0.00000000      -0.06851028      -0.02891318       0.05847630
Pt       7.60081568      -0.06721893       6.46507325        1       0.00000000       0.05061695       0.01165340       0.10967971
Ni       1.27012109       2.23313276       6.41800205        1       1.00000000       0.03861991       0.06929562       0.01012082
Pt       3.78400885       2.31163788       6.34133564        1       0.00000000      -0.02229387       0.08648905       0.02340304
Ni       6.33592849       2.21832140       6.42052883        1       1.00000000      -0.03583609       0.02562196       0.02410128
Pt       8.86795572       2.29308339       6.31892294        1       0.00000000      -0.05517123       0.09528084       0.04138506
Ni       2.51131623       4.41251530       6.37260150        1       1.00000000       0.01412524       0.06950749      -0.07460873
Ni       5.08076477       4.41897111       6.40709756        1       1.00000000      -0.03338045       0.09095198      -0.01301284
Ni       7.55544914       4.36959551       6.42265902        1       1.00000000      -0.13879161       0.02603667       0.05458223
Ni      10.24626938       4.36027881       6.36853192        1       1.00000000       0.15773391      -0.00624243      -0.10168814
Ni       3.80578290       6.43754343       6.39248924        1       1.00000000      -0.01653096      -0.06168886      -0.03180413
Ni       6.31774055       6.47676615       6.38765937        1       1.00000000      -0.01675314       0.01286783      -0.11908540
Pt       8.93280063       6.42279104       6.45222041        1       0.00000000       0.07076425      -0.05113272       0.19503851
Ni      11.47956194       6.47472322       6.35232913        1       1.00000000       0.03266701       0.01389020      -0.11260477
