64
Lattice="10.558069741748184 0.020425370138572214 -0.010488382974947889 5.296723760295857 9.121033298430273 -0.0007031515095623786 0.0 0.0 21.782194376962806" Properties=species:S:1:pos:R:3:tags:I:1:initial_magmoms:R:1:forces:R:3 unique_id=9bc54a26361740e78cbac186b9cba497 stress="0.0033695522786761425 0.00017976383810929555 -0.00021838553868390106 0.00017976383810929555 0.0037867405488272027 0.0001440924185276116 -0.00021838553868390106 0.0001440924185276116 -0.0036302704020988227" energy=-390.3563932715024 pbc="T T T"
Pt      -0.00996405       0.04727574       0.12329481        1       0.00000000       0.10839059       0.15522150      -0.48772572
Pt       2.64941816       0.05973649       0.11164112        1       0.00000000      -0.00179658       0.10604224      -0.40778241
Ni       5.32586581       0.05011247       0.13522481        1       1.00000000       0.02012629       0.05687512       0.15875455
Ni       7.87134601       0.04151796       0.07199182        1       1.00000000      -0.10355549      -0.04219696       0.41747271
Ni       1.33211891       2.32814289       0.12365711        1       1.00000000       0.06227805      -0.03332684       0.14667227
Pt       3.95456720       2.31490715       0.04755275        0       0.00000000       0.02156492       0.12096771       0.16108964
Ni       6.60283952       2.23841608       0.15701591        2       1.00000000      -0.02528235      -0.04065555       0.26318280
Pt       9.22607532       2.30326825       0.00000000        0       0.00000000      -0.12759339       0.06524663       0.09145065
Ni       2.61737838       4.52758156       0.11923902        1       1.00000000       0.00363492      -0.00101530       0.01705854
Pt       5.28913360       4.50662579       0.12733426        1       0.00000000       0.07552114      -0.07676740      -0.39680593
Pt       7.92831077       4.51272305       0.11842498        1       0.00000000      -0.11221034      -0.11078650      -0.45740049
Ni      10.59865173       4.54710855       0.04866212        0       1.00000000       0.01318757       0.01966886       0.28281134
Pt       3.92224678       6.85021757       0.13584124        1       0.00000000      -0.18106096      -0.01651489      -0.55443259
Pt       6.61144056       6.82734171       0.11386541        1       0.00000000       0.02749257      -0.17734373      -0.57585981
Pt       9.30342520       6.84796092       0.10760650        1       0.00000000       0.04387407       0.06040031      -0.67205207
Pt      11.90479380       6.88601342       0.09116247        1       0.00000000       0.12814681       0.11287838      -0.54145567
Ni       1.33954192       0.79318840       2.30178234        4       1.00000000       0.04115672       0.05558085       0.34455987
Pt       3.96202002       0.89000862       2.29919473        4       0.00000000       0.10771100       0.09296656       0.23213273
Ni       6.59835294       0.81517852       2.23668987        3       1.00000000      -0.05575099       0.17000187       0.11799724
Pt       9.12707333       0.80185475       2.25075664        4       0.00000000      -0.18472392       0.04256451       0.11928096
Ni       2.64181551       3.02064650       2.29593008        4       1.00000000      -0.05297105      -0.07487692       0.29636434
Ni       5.34035529       3.04521091       2.29975409        4       1.00000000       0.17463132      -0.03866787       0.28801132
Ni       7.85034059       3.04457509       2.29078903        4       1.00000000      -0.14046189      -0.00090111       0.22062534
Pt      10.61077591       3.01296534       2.25363146        4       0.00000000       0.01909621      -0.13305329       0.10406648
Pt       3.97999982       5.20606714       2.29372798        4       0.00000000      -0.01402233      -0.20112983       0.21490472
Ni       6.60180404       5.25416787       2.29050302        4       1.00000000       0.00715058      -0.09413930       0.35188598
Pt       9.22375872       5.25350481       2.28947484        4       0.00000000       0.06157197      -0.07693046       0.24378883
Pt      11.91182996       5.28459755       2.22763578        3       0.00000000      -0.01540239      -0.05045477       0.15012062
Pt       5.28492986       7.61501774       2.33218484        4       0.00000000      -0.04674273      -0.03432729       0.36804435
Pt       7.90839418       7.63841457       2.33091490        4       0.00000000       0.06497637      -0.01452185       0.39123131
Pt      10.65897128       7.70168616       2.30668623        4       0.00000000      -0.01238590       0.14968976       0.33236984
Ni      13.19869641       7.64621237       2.28168431        4       1.00000000       0.05649168       0.03520836       0.31589372
Pt       0.06819217       1.56502279       4.47255116        6       0.00000000       0.00539542       0.00995356      -0.24194128
Ni       2.63029227       1.58700028       4.48071143        6       1.00000000       0.01833527       0.14596338      -0.28880431
Pt       5.26066144       1.62845718       4.47396610        6       0.00000000      -0.05009679       0.10724449      -0.08464241
Pt       7.89537159       1.60532060       4.48297631        6       0.00000000       0.03628539       0.04837301      -0.14234120
Ni       1.35229587       3.76913312       4.48583831        6       1.00000000       0.08621543      -0.06745150      -0.27967399
Ni       3.92343620       3.76068852       4.48596943        6       1.00000000      -0.14070034      -0.05368804      -0.26481488
Ni       6.60548098       3.79729125       4.43835990        5       1.00000000       0.00098700       0.00555583      -0.43242094
Ni       9.25729757       3.78657303       4.50431220        6       1.00000000       0.11328021      -0.06830429      -0.25184859
Pt       2.63993720       6.02720081       4.45726208        6       0.00000000       0.04911397      -0.15715076      -0.29993638
Pt       5.30174799       6.01425703       4.45455111        6       0.00000000      -0.09049671      -0.05581272      -0.27920188
Pt       7.90360242       6.02064090       4.45425448        6       0.00000000       0.02592286      -0.02684333      -0.29721618
Pt      10.57214264       6.00017770       4.49680161        6       0.00000000      -0.04558652      -0.21676806      -0.16834618
Pt       3.91041118       8.38065784       4.48216751        6       0.00000000      -0.15089033       0.05505356      -0.21156362
Ni       6.60827151       8.40449437       4.49933501        6       1.00000000       0.01033911       0.01585023      -0.39711548
Pt       9.25780705       8.41860690       4.48764734        6       0.00000000       0.10643766       0.04504182      -0.22591463
Ni      11.89410907       8.40308277       4.49512741        6       1.00000000      -0.03553948       0.09518153      -0.23817630
Pt      -0.07019853       0.06520397       6.67778070        8       0.00000000       0.19193386      -0.04581950       0.50912939
Pt       2.63315116       0.08043580       6.64499498        7       0.00000000      -0.25303162       0.07929550       0.43981956
Pt       5.30496065       0.04766587       6.77040631        9       0.00000000       0.04888393      -0.07125755      -0.03952660
Ni       7.90996667       0.03685686       6.72951997        8       1.00000000      -0.01823803      -0.05032358      -0.27947587
Pt       1.27925403       2.34078337       6.74152197        8       0.00000000       0.04172981      -0.05249400      -0.17239899
Ni       3.94806807       2.29233289       6.65849166        8       1.00000000      -0.02771593       0.02340753      -0.13872215
Pt       6.64860863       2.25217260       6.78219438        9       0.00000000       0.06759946       0.19433103      -0.12944418
Ni       9.24622718       2.30441650       6.64225005        7       1.00000000      -0.00797283       0.07013465      -0.10381443
Pt       2.61627185       4.52215898       6.74522131        8       0.00000000       0.06299735      -0.03466866      -0.15350829
Pt       5.27055741       4.49342592       6.64642206        7       0.00000000       0.10569360      -0.16658548       0.30592096
Pt       7.99504353       4.49579712       6.64523016        7       0.00000000      -0.11104602      -0.21004615       0.28475129
Ni      10.56248926       4.55189697       6.72257152        8       1.00000000      -0.02028869      -0.00332580      -0.34334897
Pt       3.94290386       6.86489791       6.70435223        8       0.00000000       0.03120914      -0.05893042       0.62163236
Pt       6.60576665       6.85672786       6.66130838        8       0.00000000      -0.01095899       0.16106695       0.56870194
Pt       9.26437168       6.82302758       6.68734667        8       0.00000000      -0.00765684       0.10120888       0.70907559
Pt      11.89160286       6.87324199       6.66476217        8       0.00000000       0.00481718       0.15610511       0.48891116
