64
Lattice="10.394676813625425 -0.013557795219415967 0.02997501533356313 5.185597011733388 8.924550663636092 -0.019412012500604644 0.0 0.0 21.577536896412326" Properties=species:S:1:pos:R:3:tags:I:1:initial_magmoms:R:1:forces:R:3 unique_id=153a6a93855440a8aa20f3eb57bac184 energy=-380.62609786964583 stress="0.00454502632359231 -0.00013834141172664217 0.00037760297915621655 -0.00013834141172664217 0.0038866252242508847 -0.00013084053630115793 0.00037760297915621655 -0.00013084053630115793 -0.004266557385138281" pbc="T T T"
Ni      -0.01272749      -0.02266884       0.11581606        1       1.00000000       0.01941313       0.03339746      -0.15388618
Ni       2.63008267      -0.02202848       0.05106398        1       1.00000000       0.03814942       0.01436628       0.34996189
Ni       5.19919609      -0.04909159       0.09871448        1       1.00000000       0.02356345       0.02048201      -0.27894351
Ni       7.78917555      -0.08896169       0.13036810        1       1.00000000      -0.09684025      -0.08461321      -0.05073193
Pt       1.30671039       2.22997815       0.10284378        1       0.00000000      -0.00982456      -0.01184050      -0.28300467
Pt       3.88014997       2.16138073       0.03083864        0       0.00000000       0.01755756       0.03979032       0.06894819
Pt       6.49789959       2.12078091       0.03633556        0       0.00000000       0.07443930       0.01594023      -0.06943142
Pt       9.12153283       2.20448853       0.06488213        1       0.00000000       0.02920056       0.09535739      -0.57814027
Ni       2.57670972       4.49927754       0.04144915        0       1.00000000      -0.00668998      -0.02500390      -0.15012033
Pt       5.15482026       4.48306954       0.06469994        1       0.00000000       0.23702653      -0.06445564      -0.85178806
Pt       7.83382791       4.50228452       0.05720762        1       0.00000000      -0.21661783      -0.05049187      -0.81334149
Ni      10.42356388       4.50088137       0.01150974        0       1.00000000       0.01649887      -0.02918864       0.13940577
Ni       3.84401942       6.73511682       0.01217198        0       1.00000000      -0.00222546       0.03659905       0.34648553
Pt       6.49572774       6.79519759       0.11787386        1       0.00000000      -0.00076265      -0.09439330      -0.50944367
Ni       9.12678534       6.72401181       0.00144481        0       1.00000000      -0.03332635       0.04156527       0.25006957
Ni      11.70508209       6.68733447       0.00000000        0       1.00000000       0.09175930       0.05506737       0.34913532
Ni       1.33858325       0.74382897       2.15527887        3       1.00000000       0.06184868      -0.00064839       0.13122972
Ni       3.86040800       0.74606406       2.16073560        3       1.00000000      -0.09595797       0.03150587       0.12408695
Ni       6.51427877       0.73312494       2.19139194        3       1.00000000       0.04715577       0.05921747       0.17757376
Pt       9.09945914       0.72515028       2.20208684        3       0.00000000       0.03144519      -0.02449078       0.14637874
Ni       2.60811647       2.91917277       2.21763425        3       1.00000000       0.06455253      -0.08417027       0.29034445
Ni       5.18813593       2.93166507       2.17606077        3       1.00000000      -0.03264924      -0.03899216       0.18277424
Ni       7.79065062       2.92889468       2.18520145        3       1.00000000      -0.02238241      -0.04324986       0.16779829
Ni      10.41551390       2.93242393       2.24748451        3       1.00000000       0.03470931      -0.03632746       0.29788652
Pt       3.87766603       5.20406498       2.17662911        3       0.00000000      -0.00688006       0.01786062       0.11884788
Ni       6.49953016       5.21144645       2.16621768        3       1.00000000      -0.01627810       0.03476930       0.24154169
Pt       9.06018507       5.17338160       2.22767023        3       0.00000000       0.07232698      -0.00404646       0.12179335
Pt      11.69701518       5.13641677       2.14459836        2       0.00000000      -0.08376901      -0.08079008       0.11133204
Ni       5.18318988       7.44684234       2.13244845        2       1.00000000      -0.10419055       0.01994394       0.18871585
Ni       7.79755881       7.46816471       2.14884953        2       1.00000000       0.04630816       0.10630540       0.13300916
Pt      10.41881775       7.48622707       2.09589654        2       0.00000000       0.00828691      -0.06356958       0.12001701
Ni      12.98210507       7.42738613       2.13700861        2       1.00000000       0.01914599      -0.01533605       0.14183360
Ni       0.02862440       1.53087870       4.25906539        5       1.00000000       0.02390323       0.02770222      -0.29868174
Ni       2.61095471       1.52076792       4.26741671        5       1.00000000       0.01147974       0.04126147      -0.26059350
Pt       5.19954090       1.47896502       4.27718129        5       0.00000000       0.00842723       0.05768395      -0.11712313
Ni       7.79744168       1.46111212       4.31040022        5       1.00000000      -0.04241738      -0.04058459      -0.24298461
Ni       1.31992724       3.66736103       4.26729320        5       1.00000000       0.02234711      -0.05212898      -0.27562099
Ni       3.83461888       3.66879854       4.29093465        5       1.00000000      -0.10029828      -0.05337767      -0.26151428
Pt       6.57411440       3.67609570       4.21474062        4       0.00000000       0.09677353      -0.06625398      -0.33184217
Ni       9.15305963       3.65188810       4.28065433        5       1.00000000       0.13632458      -0.13631209      -0.31777005
Ni       2.58241680       5.92553924       4.32510810        5       1.00000000       0.00560430      -0.07083925      -0.10134269
Pt       5.18979449       5.92417546       4.28854827        5       0.00000000      -0.08438683       0.04833647      -0.11422934
Ni       7.80923341       5.93089404       4.29483694        5       1.00000000      -0.03141133       0.06027337      -0.24464879
Pt      10.44218944       5.87647858       4.43531082        6       0.00000000      -0.02183615      -0.03757366       0.07694123
Pt       3.81656704       8.16477273       4.27875802        5       0.00000000      -0.03356948       0.07389996      -0.01396918
Pt       6.49678087       8.25644643       4.21007400        4       0.00000000      -0.10761363       0.27823015      -0.12966606
Pt       9.07515061       8.15503865       4.30565462        5       0.00000000      -0.06902714       0.01289515      -0.03637156
Ni      11.69164645       8.15190673       4.30657493        5       1.00000000      -0.06518744       0.02555990      -0.15302905
Pt       0.01962250      -0.04137968       6.55945385        9       0.00000000      -0.06056587       0.24805266       0.16699395
Ni       2.63209808      -0.01843946       6.50815340        8       1.00000000      -0.07142339       0.05892550      -0.17109410
Pt       5.14975338      -0.04417512       6.57753690        9       0.00000000       0.17906850       0.05832037       0.08278398
Pt       7.74861509      -0.08889809       6.56841433        9       0.00000000      -0.19235028       0.18507481       0.10740806
Pt       1.37090883       2.20880512       6.37350028        7       0.00000000      -0.03232195      -0.00460273       0.24142076
Ni       3.90241122       2.18670476       6.40568430        7       1.00000000      -0.06590678       0.01238128      -0.02313269
Ni       6.50107849       2.18451249       6.42560956        7       1.00000000       0.05128961      -0.07100298       0.04299253
Pt       9.10423999       2.21361342       6.37309290        7       0.00000000       0.02027812      -0.15995598       0.49639941
Pt       2.55880796       4.51382222       6.46167579        8       0.00000000       0.08008407      -0.15818815      -0.12151414
Pt       5.17737585       4.36408978       6.41962898        7       0.00000000       0.01755030      -0.04286855       0.77200456
Pt       7.88198950       4.46462153       6.39695540        7       0.00000000      -0.02057781       0.08386705       0.65095077
Ni      10.41671740       4.45307300       6.50396998        8       1.00000000       0.01444456      -0.12321654      -0.09693913
Ni       3.87672676       6.66597928       6.48600586        8       1.00000000       0.05081826      -0.03911133      -0.12867540
Pt       6.56752387       6.69676274       6.44525645        7       0.00000000       0.13967463      -0.22812276       0.56070443
Ni       9.14113392       6.66011074       6.51021347        8       1.00000000      -0.02470849      -0.00630374      -0.08146144
Ni      11.68151401       6.64803133       6.51084686        8       1.00000000      -0.03945875       0.14741883      -0.13673363
