64
Lattice="10.311689230710515 0.018615984155677973 -0.03282667950164637 5.171966530550523 8.888481782706593 -0.008521868853123305 0.0 0.0 21.547567042737207" Properties=species:S:1:pos:R:3:tags:I:1:initial_magmoms:R:1:forces:R:3 unique_id=92534d9d21d946eda580da5aae0ac06f energy=-374.7556802603726 stress="0.005518733613886438 0.0002521768857102403 -0.00016278432324751615 0.0002521768857102403 0.005801762650841075 -8.085806630158601e-05 -0.00016278432324751615 -8.085806630158601e-05 -0.0017746870651989804" pbc="T T T"
Ni      -0.00313815       0.02642818       0.14213937        1       1.00000000       0.07893480      -0.01700882      -0.18814357
Ni       2.56695879       0.01373955       0.16741699        2       1.00000000      -0.03037442       0.03090248      -0.13146065
Ni       5.15142294       0.00243008       0.10790508        1       1.00000000      -0.03415595       0.20686969      -0.36861912
Ni       7.73598349      -0.02963971       0.11854158        1       1.00000000      -0.08440925      -0.13548032      -0.21895678
Ni       1.25789575       2.22981577       0.06773653        1       1.00000000      -0.06081213       0.02620554       0.43324517
Pt       3.80664304       2.24268435       0.14435882        1       0.00000000       0.00544475       0.01063090      -0.53556485
Pt       6.46996224       2.18466055       0.05829275        1       0.00000000      -0.00272130      -0.03707246      -0.00924204
Ni       9.06749700       2.23655318       0.07941040        1       1.00000000       0.05420461       0.11910951      -0.06014370
Ni       2.57667635       4.47348804       0.03028976        0       1.00000000       0.08738778      -0.01700604       0.24394494
Ni       5.12994228       4.47125906       0.13530767        1       1.00000000      -0.05222624       0.02765715       0.08561076
Pt       7.80850838       4.46000466       0.05408085        1       0.00000000       0.03562858       0.04705413      -0.01057648
Ni      10.34977642       4.44941774       0.01242813        0       1.00000000       0.03218891      -0.06682771       0.27381520
Ni       3.83701693       6.66437362       0.06784515        1       1.00000000      -0.03237460      -0.01033911       0.43994272
Pt       6.41450768       6.71509614       0.14157717        1       0.00000000      -0.04697947       0.02977922      -0.52345407
Ni       9.04300155       6.68655269       0.10313406        1       1.00000000      -0.18957208      -0.08586804      -0.36714773
Ni      11.63663332       6.67822845       0.00000000        0       1.00000000       0.09589622       0.02019030       0.19272505
Ni       1.29251346       0.76853792       2.11536493        3       1.00000000      -0.00871464       0.13584831      -0.05598893
Ni       3.85270424       0.76580322       2.15890035        4       1.00000000       0.04682062       0.03690576       0.17589467
Ni       6.43218621       0.78387220       2.16716749        4       1.00000000      -0.03769847       0.20449633       0.24915841
Pt       9.02482735       0.79511738       2.11945026        3       0.00000000      -0.02522876       0.10212001       0.15632301
Ni       2.57125192       2.97446446       2.17121575        4       1.00000000       0.02913232       0.08474499       0.01977886
Ni       5.14583956       2.98856833       2.18966621        4       1.00000000      -0.07900046       0.03556841       0.17315092
Ni       7.74390421       2.99120846       2.18174614        4       1.00000000       0.03512209       0.06329361       0.21038823
Ni      10.31294740       2.97656171       2.13810723        3       1.00000000       0.03961098       0.01594002       0.10516638
Ni       3.90184746       5.18423157       2.16720480        4       1.00000000       0.11085973      -0.05821500       0.08779510
Ni       6.43314933       5.18892937       2.18536912        4       1.00000000      -0.03826507       0.03622247       0.15184274
Ni       9.00313738       5.17123443       2.17009752        4       1.00000000      -0.05334596      -0.15918492       0.21200283
Pt      11.65737467       5.14157041       2.09596279        3       0.00000000       0.08313576      -0.05247597       0.01380612
Ni       5.12937504       7.37568890       2.15368318        4       1.00000000      -0.21261316      -0.17632849       0.03211816
Ni       7.73271405       7.40925348       2.14109750        3       1.00000000       0.03543162      -0.08725770       0.09569556
Pt      10.31557278       7.43286870       2.05254185        3       0.00000000       0.09990810      -0.10504615      -0.06224198
Ni      12.92647811       7.39836640       2.08752135        3       1.00000000       0.10823374      -0.10568264      -0.00442465
Ni      -0.02761070       1.54723889       4.30801155        6       1.00000000      -0.07237036       0.06754530      -0.17737751
Pt       2.52363554       1.59090950       4.20803258        5       0.00000000      -0.03044436      -0.01476716      -0.02899027
Ni       5.16428684       1.53277403       4.27037983        6       1.00000000      -0.03511341       0.04616382      -0.31415118
Ni       7.73347664       1.52959609       4.28259591        6       1.00000000       0.06144944      -0.04716338      -0.24679806
Ni       1.28481449       3.69791075       4.35201961        7       1.00000000       0.03549644      -0.04782246      -0.07089256
Ni       3.84572124       3.76664150       4.26172803        6       1.00000000      -0.02239499       0.07049299      -0.34702583
Pt       6.45474505       3.70814822       4.23780573        5       0.00000000      -0.04329745       0.01316762      -0.00756230
Ni       9.02134578       3.69694009       4.26109219        6       1.00000000       0.00999437      -0.11172665      -0.35293418
Ni       2.60836437       5.86711188       4.34583624        6       1.00000000       0.08339655      -0.16202902      -0.08761243
Ni       5.11847958       5.88734866       4.25574204        6       1.00000000      -0.02787211      -0.12578061      -0.36023708
Ni       7.72987061       5.88532365       4.25965888        6       1.00000000       0.01474085      -0.05386961      -0.37610933
Pt      10.33348734       5.82260041       4.30070672        6       0.00000000       0.05793544      -0.02250698       0.00406103
Pt       3.86927697       8.09358334       4.27694594        6       0.00000000       0.04918404      -0.10332220       0.05473486
Pt       6.42653009       8.12975642       4.17282659        5       0.00000000      -0.05579627       0.00979337      -0.20983939
Pt       9.00991777       8.16802984       4.23969089        5       0.00000000      -0.03804315       0.05173959      -0.05346816
Pt      11.62433432       8.17720622       4.23078788        5       0.00000000       0.03200951      -0.00847384      -0.01285903
Pt      -0.02349607       0.03697916       6.53107050        9       0.00000000      -0.06932072       0.22668760       0.26332035
Pt       2.54495495       0.04013610       6.54756704        9       0.00000000       0.13960143      -0.07591468       0.41759823
Pt       5.16465672       0.02071904       6.51354388        9       0.00000000      -0.05587752       0.12478953       0.47785400
Pt       7.71814372      -0.00896335       6.52104768        9       0.00000000       0.07308908       0.20268972       0.32064709
Ni       1.26030262       2.29916563       6.46356356        9       1.00000000      -0.00516360       0.10455305      -0.25280996
Pt       3.82017030       2.29780717       6.40383720        8       0.00000000       0.04247140       0.07285130       0.50976423
Ni       6.44905511       2.25591146       6.37514393        8       1.00000000      -0.04742200      -0.05449461       0.09459741
Pt       9.01788942       2.34291972       6.42616924        8       0.00000000      -0.02285076      -0.09329610      -0.00025324
Ni       2.51708274       4.48419834       6.44883612        8       1.00000000      -0.04897701      -0.00998891      -0.36857621
Pt       5.10542333       4.46518047       6.46976771        9       0.00000000      -0.09669394       0.00628883       0.00422406
Ni       7.72847224       4.43635210       6.37187610        8       1.00000000      -0.06017751       0.06551408       0.04593405
Ni      10.36272999       4.43323043       6.45015404        9       1.00000000       0.13869906      -0.03605866      -0.16936466
Ni       3.81009704       6.62819344       6.46593197        9       1.00000000      -0.06693327      -0.04092001      -0.24328678
Pt       6.42454628       6.62965470       6.39610329        8       0.00000000       0.06964200      -0.09326273       0.50963091
Pt       9.06617268       6.56768228       6.51052882        9       0.00000000      -0.05689272      -0.07403344       0.33598703
Ni      11.64034730       6.62118169       6.45743458        9       1.00000000       0.05848285      -0.00659124      -0.17464536
