64
Lattice="10.33113722573092 -0.031743415328756665 0.03874112961517184 5.13807800878788 8.915983356961728 0.020183252481361838 0.0 0.0 21.57226496363403" Properties=species:S:1:pos:R:3:tags:I:1:initial_magmoms:R:1:forces:R:3 unique_id=f4a63d90a0e74a62be3cec3cde2694a6 energy=-376.54837478286964 stress="0.005468574254497544 -4.40193761128014e-05 0.0004678567320435238 -4.40193761128014e-05 0.005578177726430528 0.00013255845707541014 0.0004678567320435238 0.00013255845707541014 -0.0020833952696014887" pbc="T T T"
Ni      -0.01561149       0.02546297       0.13465540        1       1.00000000      -0.03900777       0.04604245       0.02821140
Ni       2.58263944      -0.00291891       0.15021808        2       1.00000000      -0.02458002       0.02674585      -0.09010125
Ni       5.16744880      -0.02468707       0.11232443        1       1.00000000       0.01147797       0.20924432      -0.36463038
Ni       7.77306572      -0.05743842       0.07510403        1       1.00000000       0.02438697      -0.03485487       0.41739669
Ni       1.26715476       2.22274210       0.02443152        0       1.00000000      -0.02153054      -0.08047323       0.31720504
Pt       3.80449905       2.22248713       0.05565668        1       0.00000000       0.07620158      -0.04371457      -0.00927441
Pt       6.48077881       2.15226613       0.15165761        2       0.00000000       0.02465536      -0.08063627      -0.50179330
Ni       9.05475136       2.16875415       0.11374925        1       1.00000000      -0.07367250      -0.12998816      -0.03688864
Ni       2.55610440       4.46461242       0.00000000        0       1.00000000      -0.00893868      -0.00994384       0.13271364
Ni       5.14829736       4.44839794       0.10926591        1       1.00000000       0.18514823      -0.08950076      -0.30845637
Pt       7.80874343       4.45297789       0.06831090        1       0.00000000       0.00873354      -0.06271898       0.02084647
Ni      10.34558131       4.43940960       0.02770639        0       1.00000000       0.02274023      -0.01209006       0.13547863
Ni       3.82375664       6.71641479       0.12316856        1       1.00000000      -0.03499991       0.19080300      -0.14137741
Pt       6.42027372       6.72956831       0.16015868        2       0.00000000      -0.05565848       0.04811659      -0.56322323
Ni       9.04343299       6.68350136       0.04658949        0       1.00000000      -0.05240134       0.00478107       0.17511494
Ni      11.62086027       6.67624670       0.03348697        0       1.00000000       0.13108139       0.08361733       0.18643937
Ni       1.29711568       0.73233731       2.10573498        3       1.00000000       0.00694426       0.02165053      -0.03225438
Ni       3.87176323       0.75600303       2.14968505        3       1.00000000       0.03941957       0.08506031       0.15558069
Ni       6.49117129       0.73416026       2.20206007        4       1.00000000       0.10981588       0.08776032       0.21587361
Ni       9.01984203       0.70020925       2.15146748        4       1.00000000      -0.13519657      -0.00276457      -0.00383633
Ni       2.58644808       2.94441278       2.15264828        4       1.00000000      -0.04694425      -0.04782203       0.09982895
Ni       5.15799193       2.93503394       2.19581967        4       1.00000000      -0.08703159      -0.14258224       0.22948791
Ni       7.75301181       2.93363514       2.20295794        4       1.00000000       0.06641463      -0.10127919       0.13724834
Pt      10.29167062       2.87965190       2.16354889        4       0.00000000       0.03927283      -0.01856074       0.02702081
Pt       3.89192296       5.17850512       2.11295945        3       0.00000000       0.03586792      -0.08672122       0.02975244
Ni       6.48707578       5.17785085       2.18081371        4       1.00000000       0.12411488      -0.05154279       0.14863050
Ni       8.99605548       5.18364445       2.20582936        4       1.00000000      -0.09703894      -0.04216453       0.20121483
Pt      11.61650222       5.17753646       2.12162913        3       0.00000000      -0.05157332      -0.05352503      -0.00879425
Ni       5.13057069       7.47422185       2.14446778        3       1.00000000      -0.08643660       0.10225577       0.03802016
Ni       7.73317491       7.42355782       2.17201585        4       1.00000000       0.04114326      -0.02520948       0.09596168
Pt      10.29235741       7.44482456       2.08983088        3       0.00000000       0.00501435      -0.00873005      -0.07578095
Ni      12.91828103       7.44294415       2.15397785        4       1.00000000      -0.01060171       0.09862677      -0.03098676
Ni      -0.01262781       1.52043108       4.29616828        6       1.00000000      -0.00925593       0.01627084      -0.19355322
Pt       2.63380059       1.53985588       4.26744388        6       0.00000000       0.00033820      -0.00219365      -0.13503219
Ni       5.18024591       1.49836275       4.29302682        6       1.00000000       0.06045594       0.06428472      -0.34539156
Ni       7.78660742       1.48617621       4.29429662        6       1.00000000       0.09794868       0.05059847      -0.35506059
Pt       1.30067606       3.71807268       4.38877220        7       0.00000000      -0.05399466      -0.04329595      -0.03471819
Ni       3.88302041       3.70120096       4.32401723        6       1.00000000       0.11672558       0.01725751      -0.20918196
Pt       6.51172865       3.66761083       4.22980733        5       0.00000000      -0.02491788      -0.04459715      -0.08229093
Ni       9.03077503       3.67900070       4.33599282        6       1.00000000      -0.02107951      -0.09667793      -0.28319021
Ni       2.56784299       5.92842571       4.33746231        6       1.00000000       0.02054396       0.00542447      -0.14467739
Pt       5.14543566       5.90456295       4.26925843        6       0.00000000      -0.02729552       0.01687981      -0.10111794
Ni       7.76717384       5.88776726       4.31096268        6       1.00000000      -0.05026322      -0.04668727      -0.31750468
Pt      10.28812997       5.87816797       4.41770818        7       0.00000000      -0.01713208       0.05105725      -0.08300710
Pt       3.84660184       8.23586432       4.24113851        5       0.00000000      -0.02267980       0.09872819      -0.07509900
Pt       6.43890820       8.19364165       4.21724304        5       0.00000000      -0.02643723       0.10598354      -0.17885795
Pt       9.02163936       8.15554545       4.30354261        6       0.00000000      -0.09716480       0.01823287      -0.06297999
Pt      11.64196786       8.19114741       4.33067959        6       0.00000000       0.04039143       0.08122345      -0.05844403
Pt      -0.00039165       0.04201847       6.53145281        9       0.00000000       0.08670952      -0.00139073       0.15980325
Pt       2.62275422       0.05111938       6.57226496       10       0.00000000       0.01346366      -0.00472334       0.36487171
Pt       5.22072971      -0.08007392       6.55867870       10       0.00000000      -0.07150665       0.04287091       0.41822400
Ni       7.76446535      -0.02733475       6.51798948        9       1.00000000       0.01241026       0.06240765      -0.08773706
Ni       1.32407211       2.28074235       6.49667399        9       1.00000000      -0.00962614      -0.03307592      -0.08831316
Ni       3.85885690       2.24844493       6.41718796        8       1.00000000       0.05447818      -0.05772207       0.11220197
Pt       6.48609255       2.18444660       6.43320632        8       0.00000000      -0.01563665      -0.04805928       0.52926123
Pt       9.09488019       2.28794760       6.49165967        9       0.00000000       0.02566730       0.09718401      -0.01037318
Ni       2.54207646       4.43643771       6.48866253        9       1.00000000      -0.01634825       0.03876002      -0.12147793
Pt       5.10616285       4.39696202       6.52672509        9       0.00000000      -0.08366176      -0.02117549       0.26802251
Ni       7.80451065       4.45707236       6.41863793        8       1.00000000       0.05099876       0.03746409      -0.02805434
Ni      10.35022262       4.45950522       6.53755252        9       1.00000000      -0.01879136       0.04255073      -0.07305284
Pt       3.75122427       6.67645046       6.54178073        9       0.00000000       0.06056072      -0.12070840       0.10904244
Pt       6.52929581       6.62996629       6.46243827        9       0.00000000      -0.06617393      -0.02348921       0.59496822
Ni       9.06809406       6.61851731       6.52686172        9       1.00000000      -0.08065704      -0.03419350      -0.00970897
Ni      11.60094186       6.61969923       6.53329294        9       1.00000000      -0.05489043      -0.14907035      -0.10219934
