64
Lattice="10.348447730846914 -0.005859932879471998 -0.02528150750273582 5.169149014685359 8.857625071792082 -0.0844221921315961 0.0 0.0 21.565402392619255" Properties=species:S:1:pos:R:3:tags:I:1:initial_magmoms:R:1:forces:R:3 unique_id=68978704f8b84b79851c740dc82636b2 stress="0.005822392633946905 6.760762722520362e-05 5.958342511579984e-05 6.760762722520362e-05 0.004718699060303734 -6.77837389152416e-05 5.958342511579984e-05 -6.77837389152416e-05 -0.0017192117649574758" energy=-376.4564417718903 pbc="T T T"
Ni       0.01251033      -0.06406589       0.18590249        2       1.00000000       0.08678798      -0.04124164      -0.04605783
Ni       2.55102927      -0.05551355       0.19449273        2       1.00000000      -0.00662285      -0.05646311       0.03508564
Pt       5.17387272      -0.07239377       0.13329063        1       0.00000000      -0.06497807       0.00106172      -0.86956255
Ni       7.77629567      -0.06239540       0.15743518        2       1.00000000      -0.04598180      -0.10680335      -0.16277569
Pt       1.27850247       2.20655576       0.09875302        1       0.00000000      -0.05962282      -0.05762816       0.08675642
Pt       3.84853798       2.22135865       0.17395939        2       0.00000000       0.03177740       0.02413554      -0.51225149
Pt       6.49196148       2.21846478       0.07790335        1       0.00000000      -0.03680274      -0.04724386      -0.22790613
Pt       9.06116683       2.25029593       0.09441670        1       0.00000000       0.10224531       0.09941660      -0.51733503
Ni       2.56483443       4.46598312       0.09029755        1       1.00000000       0.01944756       0.03709185      -0.13322878
Pt       5.20714644       4.53145822       0.00000000        0       0.00000000       0.05280108       0.11023632      -0.18677246
Ni       7.76701040       4.47604266       0.02398440        0       1.00000000      -0.01812576       0.09960634       0.15148684
Ni      10.34430673       4.46527067       0.00895461        0       1.00000000       0.00248997       0.04638138       0.20958973
Ni       3.86070433       6.68272924       0.03305423        0       1.00000000      -0.00119508       0.11934533       0.33134922
Ni       6.47870390       6.68046334       0.05011904        1       1.00000000       0.03239478       0.11160460       0.41168235
Ni       9.01549092       6.60727714       0.08343896        1       1.00000000      -0.10913021       0.05285829      -0.06304823
Ni      11.66541100       6.60514093       0.00387809        0       1.00000000       0.08258229      -0.00262014       0.29770779
Ni       1.31274043       0.70622181       2.24732280        4       1.00000000       0.03162189      -0.00018607       0.30929214
Ni       3.81400742       0.72660752       2.22566728        4       1.00000000      -0.25058496      -0.03998671       0.13143548
Ni       6.48943811       0.73432337       2.22545951        4       1.00000000       0.11006395       0.01835447       0.16148903
Pt       9.06502035       0.71367258       2.21639657        4       0.00000000       0.11750099       0.11237583      -0.05690304
Ni       2.56404334       2.89369973       2.27511696        5       1.00000000      -0.01979980      -0.18034034       0.41271815
Ni       5.18176530       2.93424676       2.21747627        4       1.00000000       0.02315795       0.06720195       0.15993854
Ni       7.73721642       2.92998946       2.22478125        4       1.00000000      -0.03175159      -0.09242160       0.16900554
Ni      10.36285114       2.91099128       2.24766037        4       1.00000000       0.05834867      -0.13344183       0.39333908
Pt       3.88950059       5.16038723       2.19770299        4       0.00000000       0.01306763       0.00110295       0.03996213
Ni       6.47201002       5.17337216       2.16068574        4       1.00000000      -0.04174682       0.05444252       0.07598029
Pt       8.97360401       5.10518112       2.17489341        4       0.00000000      -0.02768982      -0.09678362       0.08294829
Pt      11.63542020       5.08861217       2.17728145        4       0.00000000      -0.02322723      -0.23173541       0.12177425
Ni       5.21483825       7.36734978       2.12067994        3       1.00000000       0.10226703      -0.03438444       0.05463723
Ni       7.68517179       7.37889809       2.11717317        3       1.00000000      -0.14794007       0.00089751       0.07775853
Pt      10.36747483       7.35946382       2.18576607        4       0.00000000       0.03204155       0.00381730      -0.00312965
Ni      12.92779110       7.36637950       2.10704252        3       1.00000000       0.02011031      -0.02557744       0.04626750
Ni       0.03937672       1.48028016       4.34772194        7       1.00000000       0.13965904       0.00673296      -0.23946450
Ni       2.51464124       1.47276311       4.31753574        7       1.00000000      -0.08985367       0.05124448      -0.23553759
Pt       5.18049269       1.44608160       4.24328470        6       0.00000000      -0.07490101      -0.09107154      -0.13476072
Ni       7.75672440       1.44560827       4.32781333        7       1.00000000       0.03007826      -0.07336355      -0.28734046
Ni       1.26328685       3.63582769       4.34966527        7       1.00000000      -0.03798175      -0.07593391      -0.13673761
Ni       3.82187110       3.66735858       4.31093747        7       1.00000000      -0.11276723      -0.02106648      -0.34368271
Pt       6.53863383       3.66482598       4.32658193        7       0.00000000       0.09985822      -0.01976559      -0.10908322
Ni       9.08903170       3.67524001       4.30731069        7       1.00000000       0.19433165       0.03083754      -0.19935342
Ni       2.53681503       5.86696599       4.34721455        7       1.00000000      -0.07111861      -0.00803958      -0.11682086
Pt       5.19463438       5.88760454       4.37079260        8       0.00000000       0.08738628       0.04451184       0.04060758
Ni       7.75096688       5.85475292       4.31884147        7       1.00000000       0.01361415      -0.01421080      -0.13656076
Ni      10.36329991       5.82251416       4.34672386        7       1.00000000       0.08059115      -0.06120123       0.00692520
Pt       3.84149078       8.08339812       4.25856743        7       0.00000000      -0.00479958       0.04637180      -0.02033092
Ni       6.44861872       8.10713251       4.24838805        6       1.00000000      -0.12542812       0.17000274      -0.33987618
Pt       8.95800316       8.04671158       4.22717165        6       0.00000000      -0.20277772       0.07356456      -0.04988282
Ni      11.64585783       8.04020664       4.26823215        7       1.00000000       0.02532408      -0.10898565      -0.15860763
Pt      -0.00348208      -0.08275040       6.56540239       11       0.00000000       0.03219484       0.15925755       0.11406588
Pt       2.54584337      -0.05770848       6.55044059       11       0.00000000       0.00945463       0.08774769       0.21894048
Pt       5.18613119      -0.07512160       6.46228893       10       0.00000000       0.01737935      -0.02113492       0.85537069
Pt       7.74330214      -0.08984665       6.54572779       10       0.00000000      -0.08766590       0.23186923       0.22673820
Ni       1.26457483       2.19883238       6.41607332        9       1.00000000       0.03577005       0.03672980      -0.07213025
Pt       3.87113098       2.23616150       6.43289353        9       0.00000000      -0.06032793       0.11786454       0.44142959
Ni       6.46743663       2.20307993       6.43543082        9       1.00000000       0.05129509      -0.01634671       0.11552424
Pt       9.04998532       2.25549283       6.37213366        9       0.00000000      -0.03831190      -0.10967018       0.39656605
Pt       2.52056838       4.45017825       6.46083069       10       0.00000000       0.09917019      -0.14365333      -0.10137797
Ni       5.18718537       4.40444387       6.41063486        9       1.00000000      -0.04212732      -0.04801116       0.24714469
Ni       7.71417219       4.38017863       6.48147328       10       1.00000000      -0.06112109      -0.05102481      -0.17001160
Ni      10.34953798       4.37809782       6.44525693        9       1.00000000       0.02679581      -0.04475755      -0.27666151
Ni       3.86748511       6.56876404       6.48567826       10       1.00000000       0.02307856      -0.02852316      -0.15963568
Ni       6.44412449       6.54594567       6.48053579       10       1.00000000       0.07713805      -0.00810947      -0.14122857
Pt       9.03297615       6.46294506       6.47658935       10       0.00000000       0.00433609      -0.05663847       0.03681425
Ni      11.62840814       6.56660215       6.43443710        9       1.00000000      -0.07178036       0.13170055      -0.25227515
