64
Lattice="10.249307864401677 -0.012930348701350463 0.03688246309330348 5.1134559217456745 8.835010713678138 0.021602056590630164 0.0 0.0 21.504347844870683" Properties=species:S:1:pos:R:3:tags:I:1:initial_magmoms:R:1:forces:R:3 unique_id=a1ee35d424a64ce4b4688afd1bfd7c6e stress="0.0054125142763279226 0.00015886550426339689 0.00018561115249143384 0.00015886550426339689 0.005384932836991334 8.409163434461504e-05 0.00018561115249143384 8.409163434461504e-05 -0.0015535634030860498" energy=-373.35668115719494 pbc="T T T"
Ni       0.00587189       0.02324061       0.09497491        1       1.00000000       0.09311044      -0.01684931      -0.15395753
Ni       2.52938687       0.01080156       0.13943645        1       1.00000000      -0.06509437       0.06802485      -0.13641391
Pt       5.12499299      -0.03985999       0.08089909        1       0.00000000      -0.02694407       0.20902402      -1.00170527
Ni       7.72617567      -0.04928092       0.13110277        1       1.00000000      -0.06078345      -0.10406423      -0.28598591
Ni       1.24017825       2.21645184       0.03680323        0       1.00000000      -0.07561567       0.04117566       0.39646391
Pt       3.76466118       2.26627588       0.12212600        1       0.00000000       0.01871005      -0.02514294      -0.53284953
Pt       6.44968574       2.20341221       0.05448045        1       0.00000000       0.03366128      -0.03140305      -0.05850485
Ni       9.02024823       2.19747125       0.10366597        1       1.00000000       0.06343354       0.16034084      -0.09129785
Ni       2.55052093       4.45231109       0.00000000        0       1.00000000       0.04068079       0.01283360       0.28066578
Ni       5.08707940       4.44714289       0.04790162        0       1.00000000      -0.04004819       0.08187478       0.30891997
Pt       7.75926148       4.43073717       0.05468737        1       0.00000000       0.07723112       0.04579944       0.00476562
Ni      10.28764334       4.39469029       0.04117042        0       1.00000000       0.07522054      -0.06624035       0.32289987
Ni       3.80004549       6.61777266       0.04413460        0       1.00000000       0.00175231      -0.01428459       0.38464694
Pt       6.35448064       6.66556805       0.12539350        1       0.00000000      -0.05794728       0.07094955      -0.38232723
Ni       8.97493345       6.60452624       0.11584414        1       1.00000000      -0.09413824      -0.05307353      -0.26997191
Ni      11.56283484       6.58124283       0.03815789        0       1.00000000       0.05671320       0.03297677       0.21217108
Ni       1.29457363       0.73785881       2.11062321        2       1.00000000      -0.00469079       0.01277419       0.10262530
Ni       3.82718516       0.75437324       2.15693000        3       1.00000000       0.04492079      -0.00594470       0.20474653
Ni       6.41661953       0.76921185       2.18904135        3       1.00000000      -0.06338234       0.16803298       0.28644744
Pt       8.99141248       0.76099734       2.14492041        2       0.00000000       0.00169823       0.08672068       0.11866688
Ni       2.55063522       2.95402566       2.16036186        3       1.00000000       0.02697123       0.03006171       0.03051128
Ni       5.12054090       2.96803750       2.18369346        3       1.00000000      -0.04291917       0.05423999       0.12068592
Ni       7.70700650       2.95869637       2.19501071        3       1.00000000       0.03844120       0.06664416       0.22885955
Ni      10.25516641       2.93369856       2.16809155        3       1.00000000       0.03111642       0.00934911       0.16121902
Ni       3.88006884       5.14858753       2.14309402        2       1.00000000       0.12795111      -0.04759676       0.05588791
Ni       6.39096854       5.14891526       2.18614641        3       1.00000000      -0.03369952       0.01409274       0.09392726
Ni       8.94589605       5.11069923       2.20464950        3       1.00000000      -0.08657350      -0.22120246       0.29353359
Pt      11.57472336       5.07456165       2.17514184        3       0.00000000       0.13657105      -0.11809262       0.08081460
Ni       5.12277207       7.33810172       2.17128475        3       1.00000000       0.03445623      -0.11425180       0.10318184
Ni       7.64164045       7.35487354       2.17082787        3       1.00000000      -0.13037052      -0.05455776       0.18747939
Pt      10.23021954       7.28484365       2.16306635        3       0.00000000      -0.02589584      -0.13885925      -0.13733885
Ni      12.84987175       7.32076481       2.12719386        2       1.00000000       0.12023454      -0.12551102       0.01759877
Ni       0.00407687       1.52668924       4.25125769        5       1.00000000      -0.10532756       0.08946935      -0.15381257
Pt       2.50980596       1.54822997       4.18462696        4       0.00000000      -0.09400898       0.02493461       0.07194577
Ni       5.15248440       1.50314634       4.24103159        4       1.00000000      -0.04459055      -0.02527231      -0.39763020
Ni       7.70874834       1.49911811       4.28520437        5       1.00000000       0.04161326      -0.00746802      -0.23728608
Ni       1.26847501       3.71495813       4.31070259        5       1.00000000      -0.04513171       0.01888653       0.00282279
Ni       3.84137417       3.75126259       4.24571340        4       1.00000000      -0.07055450       0.08792650      -0.29960229
Pt       6.41158133       3.69156960       4.26537317        5       0.00000000      -0.04174527       0.00101589      -0.03952451
Ni       9.00860839       3.69856686       4.27111518        5       1.00000000       0.06069660       0.02048998      -0.27202120
Ni       2.58268568       5.82601342       4.31368860        5       1.00000000       0.02763394      -0.11792777      -0.09125457
Ni       5.10788363       5.84990226       4.24375577        4       1.00000000       0.00607876      -0.12768376      -0.32425283
Ni       7.69543542       5.84706693       4.24521672        4       1.00000000       0.00934933      -0.05378848      -0.38711949
Ni      10.27063463       5.80041840       4.32132155        5       1.00000000       0.00837155      -0.08973304      -0.08373174
Pt       3.91322701       8.03714589       4.24281975        4       0.00000000       0.10911550      -0.08674538       0.13977126
Ni       6.39985372       8.07359188       4.23356237        4       1.00000000      -0.06058785      -0.03907040      -0.34900337
Pt       8.89621771       8.06189064       4.24432813        4       0.00000000      -0.10700308       0.02178545      -0.02965346
Pt      11.57315106       8.05633224       4.25115240        5       0.00000000      -0.01808397      -0.09537077       0.01654273
Pt       0.02125948       0.02298993       6.44985967        7       0.00000000       0.02909412       0.07399971       0.26810691
Pt       2.56401074       0.02606559       6.48272446        8       0.00000000       0.03103612      -0.08398076       0.41676365
Pt       5.15548550       0.02192201       6.37667288        7       0.00000000      -0.03014380       0.19719701       1.05651211
Pt       7.70876498      -0.04322921       6.50434784        8       0.00000000       0.01503224       0.17565641       0.32548065
Ni       1.29121113       2.28928349       6.41359131        7       1.00000000       0.03771970       0.15445336      -0.21402903
Pt       3.86015428       2.34294634       6.36093627        7       0.00000000       0.03030288       0.03808104       0.46106027
Ni       6.43079217       2.25165342       6.35701441        7       1.00000000      -0.02130794      -0.02363982       0.16782135
Pt       8.99593228       2.30861368       6.42609608        7       0.00000000      -0.04229189      -0.04161516      -0.02255685
Ni       2.54925840       4.46862984       6.39965168        7       1.00000000      -0.01788291      -0.01941736      -0.39285654
Ni       5.11517987       4.42657882       6.42172466        7       1.00000000      -0.07698283       0.04100870      -0.27749027
Ni       7.68264167       4.38804729       6.35989690        7       1.00000000      -0.03947434      -0.00464342       0.05317446
Ni      10.33260670       4.40196188       6.42577834        7       1.00000000       0.14748369      -0.00841673      -0.30542586
Ni       3.81483709       6.54796363       6.42451013        7       1.00000000      -0.02632340      -0.12255985      -0.31490726
Pt       6.36484216       6.52935286       6.33989375        6       0.00000000       0.11580577       0.08410133       0.34854860
Pt       9.03475005       6.48798838       6.46313609        8       0.00000000      -0.04638994      -0.08437304       0.14997100
Ni      11.57962960       6.54407210       6.45418214        8       1.00000000       0.00372594      -0.02514049      -0.23272900
