64
Lattice="10.758653417442487 -0.0029288346826559565 0.007176636206331188 5.376790263482575 9.292818477584538 -0.01482993487040225 0.0 0.0 21.983291128743403" Properties=species:S:1:pos:R:3:tags:I:1:initial_magmoms:R:1:forces:R:3 unique_id=a4b426ebf8494a5d86a02fed9cb53fee energy=-402.70236513786745 stress="0.0035674223905503392 -1.7570390125217704e-05 -0.00013532980093164913 -1.7570390125217704e-05 0.0034869536891179546 4.2413828035603655e-05 -0.00013532980093164913 4.2413828035603655e-05 -0.0016179289070511488" pbc="T T T"
Pt       0.01639509       0.00197970       0.10222596        1       0.00000000       0.17762526       0.15048232      -0.31104539
Pt       2.69818326       0.03037739       0.11668431        1       0.00000000      -0.09214647       0.12650315      -0.19706680
Pt       5.36174491       0.01645424       0.11584072        1       0.00000000      -0.03412522      -0.09983701      -0.10007975
Pt       8.06347349      -0.00441024       0.09272089        1       0.00000000      -0.05701851       0.12894527      -0.28870479
Pt       1.37982062       2.31026712       0.11136426        1       0.00000000       0.02348465      -0.13870678      -0.29925575
Ni       4.03618661       2.32068310       0.09807107        1       1.00000000       0.04558649       0.02064295       0.34720375
Pt       6.67162475       2.32198769       0.11422133        1       0.00000000      -0.15517324       0.02041146      -0.15325641
Pt       9.41114464       2.31989836       0.09694674        1       0.00000000      -0.05304454       0.02408336      -0.40299078
Pt       2.70391844       4.62147501       0.08383110        1       0.00000000      -0.01716475      -0.06422095      -0.25591922
Pt       5.35983894       4.60840947       0.09597516        1       0.00000000      -0.02465993      -0.19593632      -0.24221466
Pt       8.06059614       4.64571824       0.08662405        1       0.00000000      -0.02771161      -0.05644493      -0.40142887
Pt      10.76624797       4.64241733       0.08757992        1       0.00000000       0.02504834      -0.08561227      -0.41805763
Pt       4.03243388       6.96341333       0.00000000        0       0.00000000       0.00454956      -0.07419072       0.09263789
Pt       6.72052134       6.96861213       0.00902714        0       0.00000000       0.04725086      -0.05755478       0.04408732
Pt       9.42085529       6.98370047       0.09762748        1       0.00000000       0.09992452       0.13261930      -0.27710856
Pt      12.09625392       6.97350626       0.02391735        0       0.00000000      -0.11883282       0.03533833      -0.00319915
Ni       1.35204338       0.77087507       2.34013726        2       1.00000000       0.06898645      -0.02626898       0.48173435
Pt       4.05085726       0.79334594       2.36271547        3       0.00000000       0.06530402       0.09824231       0.30148798
Pt       6.67419929       0.77778538       2.39334561        3       0.00000000      -0.07902271      -0.01544902       0.49898995
Pt       9.43393829       0.76560263       2.37117462        3       0.00000000      -0.08487276      -0.07480003       0.44610392
Pt       2.73052979       3.05537301       2.33222809        2       0.00000000       0.14837114      -0.02380806       0.25676689
Ni       5.37139969       3.07901485       2.34246137        2       1.00000000      -0.07605764      -0.07036303       0.40924529
Pt       8.03399876       3.08674427       2.36656879        3       0.00000000      -0.02584453      -0.00370451       0.41774484
Pt      10.78433184       3.06657224       2.36842105        3       0.00000000       0.09505494       0.01941798       0.45633059
Pt       4.04608002       5.39015809       2.36071871        3       0.00000000      -0.02169484       0.09927590       0.47243729
Pt       6.70939709       5.39763073       2.36361904        3       0.00000000      -0.01314768       0.09347527       0.44891202
Pt       9.42580535       5.44390825       2.36078593        3       0.00000000      -0.01869945       0.05272105       0.47203613
Pt      12.09352219       5.43875712       2.36333085        3       0.00000000       0.05936745       0.01045554       0.43332621
Pt       5.39665744       7.75540617       2.35825176        3       0.00000000       0.00489061      -0.07958291       0.37772549
Pt       8.08483437       7.77352592       2.35846227        3       0.00000000       0.01324700       0.10102283       0.40367351
Ni      10.75775557       7.74217680       2.33817985        2       1.00000000      -0.01484506       0.04711720       0.42202943
Pt      13.41485441       7.73764469       2.36538146        3       0.00000000      -0.01954012       0.00103387       0.38002782
Pt       0.01638819       1.52763464       4.62802633        4       0.00000000       0.06738333      -0.05418461      -0.48795669
Pt       2.72501155       1.53114331       4.61786264        4       0.00000000       0.06761798      -0.03670819      -0.45392320
Ni       5.37881872       1.54391196       4.65166630        5       1.00000000      -0.04055893       0.01240672      -0.44774784
Pt       8.03335075       1.52775155       4.65109506        5       0.00000000      -0.04965276      -0.07194720      -0.41647352
Pt       1.35926740       3.86760943       4.64532207        4       0.00000000       0.12106294       0.00275642      -0.45168020
Pt       4.06383124       3.82258172       4.62106685        4       0.00000000       0.02095364      -0.11013322      -0.49478767
Pt       6.69266255       3.82840468       4.62653150        4       0.00000000      -0.07303616      -0.05499379      -0.46128241
Pt       9.40920442       3.86537486       4.64551833        4       0.00000000      -0.05034102       0.02665567      -0.47813038
Pt       2.69406379       6.20145075       4.70449582        5       0.00000000       0.03569691       0.07090593      -0.17866315
Pt       5.37739948       6.19664809       4.70523349        5       0.00000000      -0.03451838       0.04670165      -0.17666793
Pt       8.05453626       6.19406335       4.66924773        5       0.00000000      -0.10181195       0.04135198      -0.36880166
Pt      10.77144088       6.21080622       4.65150339        5       0.00000000       0.07395998       0.09697357      -0.36460657
Pt       4.02898831       8.49765536       4.66537689        5       0.00000000      -0.03028455      -0.02113811      -0.36278336
Pt       6.73477462       8.51093043       4.64159430        4       0.00000000       0.10460305      -0.00616968      -0.38374544
Pt       9.44376396       8.53542594       4.61170303        4       0.00000000       0.05979401       0.08774221      -0.50638602
Pt      12.07878166       8.51965223       4.64189030        4       0.00000000      -0.04027072      -0.02926617      -0.38884457
Pt       0.00128247      -0.08401077       6.93127391        6       0.00000000      -0.02620124      -0.13893150       0.29189407
Pt       2.67780951      -0.04091866       6.93902024        6       0.00000000      -0.02044752      -0.10037114       0.25004891
Pt       5.39781453      -0.03563397       6.92403598        6       0.00000000      -0.01044922       0.03142830       0.19066559
Pt       8.07618094      -0.08618317       6.93278929        6       0.00000000       0.03604857      -0.14637371       0.34521698
Pt       1.35621071       2.30756522       6.93002432        6       0.00000000      -0.01337886      -0.03375623       0.28346928
Pt       4.04767926       2.31301400       6.98329113        7       0.00000000       0.07923901       0.07115438      -0.05878763
Pt       6.71134881       2.30547779       6.91658298        6       0.00000000      -0.09740646      -0.04712263       0.25701557
Pt       9.41345938       2.30073875       6.92811729        6       0.00000000      -0.01112370      -0.10766022       0.37774231
Pt       2.70186013       4.69585667       6.92502528        6       0.00000000       0.08668641       0.08903706       0.31586293
Pt       5.37489936       4.69326803       6.92623549        6       0.00000000      -0.05662921       0.10444011       0.24327537
Pt       8.05174443       4.66341716       6.92306482        6       0.00000000      -0.04857521       0.04887063       0.37386882
Pt      10.77945943       4.66482010       6.92723311        6       0.00000000       0.01447154       0.05608018       0.41334005
Ni       4.03776544       6.95910007       6.91793814        6       1.00000000       0.00308168      -0.01832252      -0.27759843
Ni       6.71218802       6.95678783       6.92168504        6       1.00000000      -0.00712766       0.02103946      -0.30155739
Pt       9.42024870       6.96189655       6.91945008        6       0.00000000      -0.00061121       0.06329875       0.26319569
Ni      12.11676323       6.95661700       6.92415227        6       1.00000000      -0.00326370       0.01092807      -0.35734445
