64
Lattice="10.154975554452264 0.012648253384656628 -0.012133916738958446 5.088441485970804 8.762687418307339 -0.030826181595538144 0.0 0.0 21.43797788844295" Properties=species:S:1:pos:R:3:tags:I:1:initial_magmoms:R:1:forces:R:3 unique_id=1c07b09de1eb4d08aee0cd3658d77603 stress="0.002266660401315436 -2.3150375687715844e-05 -9.126716970999431e-05 -2.3150375687715844e-05 0.0016181227144717002 -0.00017251891898554592 -9.126716970999431e-05 -0.00017251891898554592 -0.005170878074722744" energy=-369.3297240656011 pbc="T T T"
Ni       0.02847327      -0.01113118       0.13774331        1       1.00000000       0.05578504       0.09359587      -0.50613879
Ni       2.48501518       0.00174985       0.15731022        2       1.00000000       0.04682558      -0.02445898      -0.14074058
Pt       5.13412308      -0.00642550       0.16712713        2       0.00000000      -0.12493942      -0.02144041      -0.76921614
Ni       7.64454162      -0.03356003       0.15269009        2       1.00000000      -0.00017778      -0.06237536      -0.41826567
Ni       1.26741352       2.20674436       0.08094392        1       1.00000000      -0.03571050       0.01021222       0.29317362
Pt       3.76930791       2.26364333       0.15121468        2       0.00000000      -0.00642018      -0.03847198      -0.65441953
Ni       6.35290996       2.24306856       0.07404948        1       1.00000000      -0.06002324      -0.04120192       0.15352373
Pt       8.89236530       2.26033223       0.06530093        1       0.00000000       0.07308677       0.10696389      -0.78407378
Ni       2.51689844       4.42486255       0.05501143        1       1.00000000       0.05742858      -0.02023412       0.37143426
Ni       5.09504531       4.42577532       0.05047923        1       1.00000000      -0.14753852       0.02088169       0.24071694
Ni       7.55907027       4.38063054       0.05332615        1       1.00000000       0.05608986       0.03064576       0.08612839
Ni      10.22519543       4.38969749       0.05555900        1       1.00000000       0.01809148       0.00232115       0.27987767
Ni       3.79188645       6.53701737       0.01501588        0       1.00000000      -0.04659634      -0.03020073       0.19890758
Ni       6.32946121       6.54592358       0.00000000        0       1.00000000       0.08355959       0.00114910       0.03363685
Pt       8.86788111       6.50663704       0.14342357        1       0.00000000       0.03805325       0.06540931      -0.78552039
Ni      11.48265579       6.53611738       0.04655205        0       1.00000000      -0.07051334       0.05249265       0.29190163
Ni       1.30665519       0.77165490       2.15990499        4       1.00000000       0.00561322       0.13370317       0.15505748
Ni       3.74437690       0.70794478       2.16038034        4       1.00000000      -0.14131181      -0.04482637       0.16994030
Ni       6.36380061       0.74069426       2.15935270        4       1.00000000       0.07546935       0.05991810       0.13337748
Pt       8.88212434       0.78291719       2.17207669        4       0.00000000       0.10049484      -0.10032370       0.28359550
Ni       2.49832010       2.95025052       2.19983015        4       1.00000000      -0.03586316       0.04539407       0.12480840
Ni       5.08461297       2.96660884       2.12028492        3       1.00000000       0.00625124       0.02790464       0.05621276
Ni       7.59419455       2.96754884       2.14048333        3       1.00000000      -0.02682065       0.01614777       0.12603033
Ni      10.21209370       2.97598254       2.16684910        4       1.00000000       0.12513308       0.03174798       0.13749453
Ni       3.77187204       5.06414375       2.12094866        3       1.00000000      -0.08641740      -0.06348864       0.04720071
Ni       6.36221238       5.06870698       2.05639468        3       1.00000000       0.07507819      -0.03723050      -0.00606194
Ni       8.93053676       5.05613994       2.14328340        3       1.00000000       0.13114689      -0.15758930       0.03183532
Ni      11.43376991       5.10955808       2.12606172        3       1.00000000       0.00532544      -0.01618111       0.11621309
Pt       5.12376206       7.21240617       2.08051935        3       0.00000000      -0.06929017      -0.03643699       0.04470823
Ni       7.64275650       7.34066006       2.13205112        3       1.00000000      -0.03112405       0.11761928       0.11010088
Ni      10.18670210       7.26431206       2.19532420        4       1.00000000       0.05031905      -0.07138482       0.20771346
Ni      12.64571636       7.24217801       2.09121708        3       1.00000000      -0.01447272      -0.09225267       0.11425192
Ni       0.05932549       1.49219056       4.23550513        6       1.00000000       0.12182321       0.00431713      -0.11529314
Ni       2.48037494       1.48112520       4.19912389        6       1.00000000      -0.04236485       0.00575588      -0.15845040
Pt       5.04266336       1.42531095       4.13875525        5       0.00000000       0.00557740      -0.01404745      -0.15316163
Ni       7.60849756       1.46181763       4.24070556        6       1.00000000      -0.09118867      -0.09181414      -0.17126106
Ni       1.27469784       3.64972327       4.24902332        6       1.00000000       0.03765385      -0.03053850      -0.11168563
Ni       3.74131541       3.70878333       4.19466998        6       1.00000000      -0.07326434       0.02674184      -0.16354037
Pt       6.33633930       3.65081185       4.24754941        6       0.00000000      -0.01434769      -0.03138357      -0.01672377
Ni       8.95593692       3.67488492       4.17660753        6       1.00000000       0.08142227       0.06308198      -0.22135756
Ni       2.50850591       5.77095337       4.23996270        6       1.00000000      -0.07009848      -0.06428383      -0.18350931
Ni       5.03768968       5.79809280       4.27249991        7       1.00000000      -0.02451715      -0.03017387      -0.11226530
Pt       7.62110872       5.86848929       4.14720396        5       0.00000000      -0.09788463      -0.01474722      -0.08235746
Ni      10.22673038       5.80554460       4.19138255        6       1.00000000       0.05893635      -0.04132384      -0.16801201
Pt       3.78292316       7.94535924       4.23401606        6       0.00000000      -0.01788051       0.00822918       0.00782651
Ni       6.36921377       8.05620340       4.18993303        6       1.00000000       0.01439366       0.09030777      -0.18437270
Ni       8.88669477       8.01788576       4.15827582        6       1.00000000      -0.04123976       0.05981929      -0.27041942
Ni      11.41016347       7.94817375       4.16482550        6       1.00000000      -0.06783867      -0.12874793      -0.17648854
Pt       0.01099617      -0.05681079       6.43415295       10       0.00000000      -0.15453178       0.19426089       0.32770807
Pt       2.51775988      -0.01031468       6.36958507       10       0.00000000       0.27909176       0.01882648       0.13301494
Pt       5.08832467      -0.02529125       6.31106854        9       0.00000000      -0.18329381      -0.15657781       0.90812859
Pt       7.59677507      -0.05083892       6.43797789       10       0.00000000       0.09659243       0.15716028       0.42035354
Ni       1.26188823       2.24396883       6.34252754        9       1.00000000       0.03198582       0.01848956      -0.17597208
Pt       3.77954921       2.32538456       6.29929101        9       0.00000000      -0.12925844      -0.00963392       0.62822066
Ni       6.34117884       2.23331819       6.38071845       10       1.00000000       0.02106256      -0.00707770       0.05289102
Pt       8.89376580       2.29165819       6.23477729        8       0.00000000      -0.00952652      -0.16499715       0.83438283
Ni       2.50610705       4.42635987       6.33758040        9       1.00000000       0.06182026      -0.05528165      -0.32889214
Ni       5.07944451       4.43431416       6.37164356       10       1.00000000      -0.09416231       0.00231622      -0.16994110
Ni       7.55869842       4.37924795       6.37971016       10       1.00000000       0.00198798      -0.01620028      -0.07909246
Ni      10.23875883       4.37167239       6.32705589        9       1.00000000       0.05301064      -0.00586469      -0.26151576
Ni       3.80532718       6.46064307       6.35771268       10       1.00000000      -0.02773689      -0.03473047      -0.12363298
Ni       6.31340330       6.49790293       6.34163089        9       1.00000000       0.02855973       0.03915124      -0.14088213
Pt       8.92377133       6.44069567       6.30484762        9       0.00000000       0.17279376       0.16837098       0.76263586
Ni      11.47432021       6.48851860       6.32114207        9       1.00000000      -0.03410934       0.08258627      -0.24973931
