64
Lattice="10.481492248139288 0.01070885407189853 0.07994686342359364 5.250020263741328 9.129047593610522 0.03175400950932099 0.06527634064125978 -0.007749345569074528 9.096784415151344" Properties=species:S:1:pos:R:3:tags:I:1:initial_magmoms:R:1:forces:R:3 unique_id=56be06dc36fc437db35fdb2c4d110885 stress="0.0010007003707146744 1.1231192344429678e-05 -4.651607394768718e-06 1.1231192344429678e-05 0.001016516829819042 1.2420359463987727e-05 -4.651607394768718e-06 1.2420359463987727e-05 0.000840397880126513" energy=-410.0489253423792 pbc="T T T"
Pt      -0.05670045       0.03112375       0.05938028        4       0.00000000      -0.11279677       0.12104345      -0.07953806
Ni       2.64774565      -0.01958341       0.07446627        4       1.00000000       0.10410404      -0.09838708       0.22898667
Ni       5.25995932      -0.03340292       0.16544746        4       1.00000000       0.13834333      -0.11987937       0.26870290
Ni       7.84810097       0.00624292       0.14485548        4       1.00000000      -0.10660886      -0.05142933       0.30267336
Pt       1.27070725       2.28740248       0.10525514        4       0.00000000       0.00652070       0.05627687       0.18320236
Pt       3.96414477       2.21691351       0.13418798        4       0.00000000       0.08970899      -0.11430868       0.20719041
Pt       6.63557529       2.21242209       0.19107491        4       0.00000000       0.20398695      -0.17796423      -0.00425447
Ni       9.16662166       2.30138353       0.13065538        4       1.00000000      -0.02327572       0.09714062       0.21852343
Pt       2.56929663       4.60443580       0.11773897        4       0.00000000      -0.01520853       0.08042131       0.12381697
Pt       5.31868113       4.54709606       0.18714885        4       0.00000000       0.20521564      -0.11678805       0.18591083
Ni       7.92273196       4.57095508       0.18780468        4       1.00000000       0.24032171      -0.02610689       0.28860632
Ni      10.43919673       4.59912463       0.13563222        4       1.00000000      -0.22728116       0.13147030       0.19218414
Pt       3.87839181       6.91789053       0.18319131        4       0.00000000      -0.09537600       0.02837035       0.11313125
Pt       6.63338347       6.84605695       0.18310585        4       0.00000000       0.11660119       0.01203627       0.21197096
Ni       9.21124712       6.83992420       0.12659715        4       1.00000000       0.15665013      -0.08490717       0.16860582
Ni      11.76895784       6.88049769       0.20804317        4       1.00000000      -0.05539184       0.09838766       0.19385788
Pt       1.28110028       0.69991620       2.29370659        3       0.00000000      -0.05956005      -0.03940739      -0.08580044
Pt       4.03676858       0.75322465       2.33158592        3       0.00000000       0.08929332       0.10010287       0.12780341
Ni       6.60700473       0.76193742       2.34328688        3       1.00000000       0.21170895       0.02858367       0.07781274
Ni       9.13837442       0.74823561       2.34526604        3       1.00000000      -0.23290525       0.02736987      -0.03991597
Pt       2.65819528       3.05100155       2.33115529        3       0.00000000      -0.07645436       0.00157739      -0.09580971
Ni       5.30154717       3.03299706       2.35342780        3       1.00000000       0.12440195      -0.09291425       0.07090693
Pt       7.83044197       3.06262473       2.41235968        3       0.00000000      -0.16518200      -0.03311846       0.17205466
Pt      10.40525680       3.07302317       2.34789740        3       0.00000000      -0.15986387      -0.03279182      -0.08922778
Pt       4.01531397       5.37449386       2.34268614        3       0.00000000       0.01129812       0.07263350      -0.17123899
Ni       6.60871212       5.30601103       2.34779753        3       1.00000000       0.19662313      -0.10684941       0.06229290
Ni       9.16606691       5.32463633       2.34859717        3       1.00000000      -0.11219195      -0.04076825       0.06943876
Pt      11.74824389       5.37778507       2.36272046        3       0.00000000      -0.09751354      -0.01256890      -0.00935110
Ni       5.24539678       7.61383795       2.31591151        3       1.00000000      -0.01076726       0.06122649      -0.02189503
Pt       7.90288925       7.51881872       2.35499981        3       0.00000000       0.03612145      -0.17531980       0.10958308
Pt      10.54155751       7.61977172       2.28309150        3       0.00000000       0.09647856       0.01159917      -0.01845813
Ni      13.13093693       7.67600982       2.37030694        3       1.00000000      -0.00758112       0.25177804       0.02479992
Pt      -0.09135279       1.55899409       4.54744812        2       0.00000000      -0.27130216       0.17609709      -0.11510586
Pt       2.67473206       1.49053614       4.54026032        2       0.00000000      -0.03622151       0.03498604       0.01486180
Ni       5.32615938       1.53470843       4.54129385        2       1.00000000       0.19110473       0.05525867      -0.19387594
Ni       7.87488248       1.55414732       4.56667117        2       1.00000000      -0.14923415       0.12271543      -0.24589285
Pt       1.23586596       3.84688705       4.54275138        2       0.00000000      -0.17525050       0.07540638       0.03032721
Pt       4.05738988       3.75706156       4.49680779        2       0.00000000       0.17872737      -0.04181062       0.03316993
Ni       6.63928131       3.78389374       4.55200210        2       1.00000000       0.19851396      -0.02027562      -0.05382904
Ni       9.16322060       3.83700981       4.59613826        2       1.00000000      -0.23513531       0.14849354      -0.15184649
Pt       2.61720101       6.11331021       4.50081816        2       0.00000000      -0.07324297       0.09633368       0.02021605
Pt       5.37861534       6.05964818       4.48888886        2       0.00000000       0.27153165       0.00162409       0.02916202
Ni       7.94394888       6.03297789       4.57387509        2       1.00000000       0.18695292      -0.27619677      -0.15028909
Ni      10.46378703       6.07221123       4.62899298        2       1.00000000      -0.22390605      -0.04860769       0.00837639
Pt       3.94491540       8.41548311       4.48750278        2       0.00000000      -0.03434451      -0.05112148      -0.26168270
Pt       6.59043393       8.36511292       4.57935698        2       0.00000000      -0.10267653       0.01463793       0.04259194
Pt       9.22615935       8.28694160       4.63370440        2       0.00000000      -0.00563345      -0.19253264       0.09992701
Pt      11.82965647       8.45127390       4.56147600        2       0.00000000      -0.07308493       0.17569891      -0.06930442
Ni       0.02821636       0.01651841       6.70927044        1       1.00000000      -0.13428942       0.02757398      -0.29406553
Ni       2.66134783      -0.01656433       6.79814543        1       1.00000000      -0.06352147       0.02776975      -0.12622520
Pt       5.25804077      -0.03094718       6.84341744        1       0.00000000      -0.05398604      -0.04833021       0.15548255
Ni       7.92719168       0.02345108       6.82588659        1       1.00000000       0.03835516       0.03323992      -0.18516592
Pt       1.26603975       2.23432946       6.72804250        1       0.00000000      -0.16960450      -0.07851357      -0.18321889
Pt       3.97392554       2.23009798       6.73488596        1       0.00000000      -0.04513548       0.00963023      -0.25707925
Pt       6.68134101       2.23764851       6.69385588        1       0.00000000       0.10214393      -0.05893360      -0.11815855
Ni       9.21715816       2.27269608       6.83602602        1       1.00000000      -0.07568453      -0.06198781      -0.09761828
Pt       2.62251768       4.55572241       6.72730766        1       0.00000000       0.01411309      -0.03664228      -0.28500321
Pt       5.33644811       4.55889090       6.74335857        1       0.00000000       0.13695962       0.03464889      -0.12711929
Pt       8.02548316       4.56793008       6.77442446        1       0.00000000       0.14380712      -0.01158818       0.00525047
Ni      10.50296542       4.57556186       6.84133162        1       1.00000000      -0.02023796       0.00018767      -0.13284907
Pt       3.97738782       6.92548498       6.74705056        1       0.00000000      -0.00356007       0.11453935      -0.14556436
Pt       6.68464189       6.89798856       6.76239258        1       0.00000000       0.12751816       0.06226254      -0.14683714
Ni       9.22538495       6.83444254       6.82976000        1       1.00000000       0.00546804      -0.06561219      -0.12498159
Pt      11.76417935       6.83810452       6.87813726        1       0.00000000      -0.11856406      -0.07546016       0.03978128
