64
Lattice="10.14390574737688 0.01562723666699726 -0.00929780318904849 5.0854864576330705 8.74188829657153 -0.04313575562090086 -0.007591624513997035 -0.0362857539581172 8.659532978934305" Properties=species:S:1:pos:R:3:tags:I:1:initial_magmoms:R:1:forces:R:3 unique_id=858718a799bd443fae56f1896ab073aa stress="-0.006620857836967614 1.3643212205226947e-05 1.4740294286148376e-05 1.3643212205226947e-05 -0.006557880300927181 -8.55206447034548e-07 1.4740294286148376e-05 -8.55206447034548e-07 -0.005642004607596632" energy=-389.6739875500847 pbc="T T T"
Ni       0.03064277      -0.05252808       0.19456305        4       1.00000000       0.03708108      -0.07486041       0.13286254
Ni       2.49008481       0.00409519       0.15446608        4       1.00000000      -0.03356646       0.06835815      -0.06270424
Pt       5.09732304      -0.06198987       0.20519309        4       0.00000000      -0.04182713      -0.06320385      -0.09284361
Ni       7.62156372      -0.04507573       0.15939921        4       1.00000000       0.01231480      -0.11642153       0.02629562
Ni       1.26376083       2.20619291       0.12099874        4       1.00000000      -0.02828626       0.08952431       0.09871855
Pt       3.77265653       2.25382230       0.18642648        4       0.00000000      -0.03084924       0.02961732      -0.12164756
Ni       6.34690265       2.23523888       0.11600406        4       1.00000000      -0.02068933       0.04633274       0.12161051
Pt       8.88106347       2.24667371       0.14718512        4       0.00000000      -0.01449134       0.03551421      -0.13214665
Ni       2.51669275       4.41416165       0.09239125        4       1.00000000      -0.00839011       0.03454566       0.05439778
Ni       5.09756427       4.41899364       0.09081441        4       1.00000000      -0.04322510       0.04594686       0.02853069
Ni       7.58269435       4.41363383       0.09722139        4       1.00000000      -0.02897252       0.04009325       0.11243702
Ni      10.18575175       4.41604240       0.09168804        4       1.00000000       0.05627669       0.01283261       0.04064906
Ni       3.81318266       6.52977361       0.08355969        4       1.00000000      -0.01223810      -0.03854418       0.03351139
Ni       6.31503317       6.53098325       0.05412094        4       1.00000000      -0.07528540      -0.02465455      -0.05689944
Ni       8.89698171       6.49074349       0.16188789        4       1.00000000       0.08539330      -0.11140762       0.14925301
Ni      11.45250741       6.50925541       0.08634680        4       1.00000000       0.03367135      -0.04906310       0.05689836
Ni       1.29220541       0.76461359       2.15050750        3       1.00000000      -0.01137522       0.09503024       0.03048730
Ni       3.76237788       0.73590113       2.19194147        3       1.00000000      -0.07523126       0.01172286      -0.01171208
Ni       6.35354620       0.72509006       2.18041529        3       1.00000000       0.01982390      -0.01507935       0.02017439
Pt       8.84910308       0.66131218       2.19629103        3       0.00000000       0.03297330      -0.07265372       0.12169817
Ni       2.50370267       2.95429912       2.22951642        3       1.00000000      -0.00900263       0.08591557       0.05352607
Ni       5.08046046       2.96480148       2.15309000        3       1.00000000      -0.02451404       0.09258666       0.01836699
Ni       7.58727747       2.95435025       2.18058922        3       1.00000000       0.01053967       0.01598742       0.09077563
Ni      10.19461538       2.98498934       2.17318631        3       1.00000000       0.05460365       0.05269990       0.04319376
Ni       3.79272083       5.09226577       2.15336642        3       1.00000000      -0.04256901      -0.03168180      -0.01320005
Ni       6.30823237       5.08333007       2.10319133        3       1.00000000      -0.03176239       0.03008652       0.03921647
Ni       8.92466284       5.05891614       2.13140917        3       1.00000000       0.03067569      -0.04045771       0.06367094
Ni      11.42995410       5.10330464       2.15768553        3       1.00000000       0.03024618      -0.02086958       0.06186076
Ni       5.05262524       7.20729296       2.14906889        3       1.00000000      -0.06305640      -0.12893550       0.06077342
Pt       7.59984382       7.29318283       2.10288629        3       0.00000000      -0.06868606      -0.00881336       0.01407282
Ni      10.19967975       7.22322948       2.20265639        3       1.00000000       0.01081268      -0.09776283       0.08209975
Ni      12.66970965       7.21231248       2.14396872        3       1.00000000       0.01442387      -0.11416513       0.01214491
Pt       0.06876446       1.47448980       4.25182153        2       0.00000000       0.05028398       0.00325343       0.01084748
Ni       2.53611610       1.46735302       4.22722562        2       1.00000000       0.03185599       0.03587048      -0.10706988
Pt       5.05625939       1.41222678       4.17113302        2       0.00000000       0.01980294       0.01028494      -0.12394524
Ni       7.59945631       1.42182116       4.26555684        2       1.00000000      -0.01094567      -0.04280106      -0.04363725
Ni       1.30325170       3.68426310       4.27669447        2       1.00000000       0.05907028       0.05860750      -0.06418776
Ni       3.74773546       3.71198792       4.22152260        2       1.00000000      -0.00012059       0.09267370      -0.13422351
Pt       6.31974753       3.64068879       4.27312037        2       0.00000000      -0.02196899       0.01159697      -0.02086763
Ni       8.93224440       3.68610523       4.21340443        2       1.00000000       0.07583352       0.05812970      -0.13928363
Ni       2.54126627       5.80142356       4.25688916        2       1.00000000       0.00321940       0.01034979      -0.13646441
Ni       5.01004299       5.83537082       4.25924588        2       1.00000000      -0.00780871      -0.01241805      -0.12920874
Pt       7.62384496       5.83100937       4.24743419        2       0.00000000       0.03979453       0.01847173       0.02171404
Ni      10.21991280       5.80196616       4.23074141        2       1.00000000       0.03386568      -0.00853954      -0.04364817
Ni       3.79713845       7.91328531       4.23077017        2       1.00000000      -0.00489132      -0.06806908      -0.00808352
Ni       6.31806905       7.98168092       4.21519733        2       1.00000000      -0.07911489       0.00517667      -0.08803208
Ni       8.89800354       7.98517032       4.20385736        2       1.00000000       0.02558577      -0.05475238      -0.07179807
Ni      11.45322166       7.92296807       4.17704128        2       1.00000000       0.05003078      -0.03983284      -0.08551125
Pt      -0.00701014      -0.10536548       6.45152360        1       0.00000000      -0.06408851      -0.02716090       0.15148525
Pt       2.51057161      -0.02041466       6.38898559        1       0.00000000       0.07909695       0.00629672      -0.08161603
Pt       5.09122707      -0.03489754       6.33619838        1       0.00000000      -0.06270777      -0.04475665       0.07301114
Pt       7.60341554      -0.07879570       6.39055419        1       0.00000000       0.06348831      -0.01762311       0.03571419
Ni       1.26612516       2.23264021       6.39620384        1       1.00000000       0.03831277       0.05223943       0.01472364
Pt       3.77867933       2.31451482       6.32201205        1       0.00000000      -0.02542228       0.07695666       0.02119802
Ni       6.32977704       2.21579729       6.40537381        1       1.00000000      -0.04029185       0.00609716       0.02701175
Pt       8.85366999       2.29060692       6.31349782        1       0.00000000      -0.06118804       0.07137716       0.08989710
Ni       2.51042879       4.41609690       6.35599762        1       1.00000000       0.02252830       0.06917507      -0.08196899
Ni       5.07092175       4.42269886       6.39203912        1       1.00000000      -0.05375771       0.09394861      -0.02225263
Ni       7.54375307       4.36732314       6.41269591        1       1.00000000      -0.13771073       0.00352498       0.06343438
Ni      10.23240984       4.35806474       6.35729577        1       1.00000000       0.14733359      -0.02567051      -0.09957312
Ni       3.79989110       6.44096214       6.35130165        1       1.00000000      -0.01910907      -0.04268612      -0.09355010
Ni       6.30557249       6.47019776       6.37536262        1       1.00000000      -0.01320489      -0.00897574      -0.10927509
Pt       8.92070733       6.41801423       6.44394687        1       0.00000000       0.07176179      -0.06619301       0.20292079
Ni      11.46482167       6.46860582       6.34116235        1       1.00000000       0.02564834      -0.00277176      -0.10383294
