64
Lattice="10.184378461135552 -0.01601262767865536 -0.016959702359623314 5.078321888216717 8.810200067607582 0.012756050030666308 0.0 0.0 21.510874971784258" Properties=species:S:1:pos:R:3:tags:I:1:initial_magmoms:R:1:forces:R:3 unique_id=f3a7a0ee073f427e920b78ffa780a8c7 stress="0.0018644438581820952 2.805409349710596e-05 -0.00013098321998911188 2.805409349710596e-05 0.0018959459273119924 0.00011496563699498604 -0.00013098321998911188 0.00011496563699498604 -0.0052085227006613295" energy=-370.2993349619225 pbc="T T T"
Ni       0.02773079       0.02682514       0.12464869        1       1.00000000       0.08054442       0.05760729      -0.73706916
Ni       2.51175257      -0.00445473       0.17853035        2       1.00000000       0.01131974      -0.05110417      -0.28027338
Ni       5.09677531      -0.01827845       0.02913272        0       1.00000000      -0.14827892      -0.06377907      -0.01769111
Ni       7.63400362      -0.00936234       0.00000000        0       1.00000000       0.06372629      -0.03581099      -0.06374882
Ni       1.22827523       2.22775229       0.09243149        1       1.00000000       0.04456908      -0.00418853       0.23277717
Pt       3.79991450       2.21152884       0.18718917        2       0.00000000      -0.04298449       0.01759121      -0.87964456
Ni       6.39877256       2.23173471       0.04181997        0       1.00000000      -0.06711603       0.12174789       0.02537467
Ni       8.91273437       2.24512374       0.03045214        0       1.00000000       0.03491325       0.00901728       0.09476210
Ni       2.50367477       4.43564512       0.09403322        1       1.00000000       0.06049460      -0.02883658       0.26875276
Ni       5.07233856       4.41454326       0.16075086        2       1.00000000      -0.15564376      -0.04895474      -0.47620824
Ni       7.64918352       4.35106278       0.04628607        0       1.00000000       0.10561459       0.07352440       0.01912083
Ni      10.19372009       4.36190095       0.07683492        1       1.00000000      -0.04753867       0.11058815       0.16340326
Ni       3.80198441       6.58416065       0.04111631        0       1.00000000       0.00989586      -0.05062407       0.07870681
Ni       6.34057278       6.60860624       0.02067402        0       1.00000000       0.06365519       0.01758163       0.02427397
Pt       8.90119431       6.58881701       0.14937037        1       0.00000000      -0.02178433      -0.04034681      -0.56579726
Ni      11.45423874       6.57108515       0.02000058        0       1.00000000      -0.11514382      -0.05472251       0.12121694
Ni       1.30562742       0.77284440       2.11586749        3       1.00000000       0.06467970       0.13630699       0.06077027
Ni       3.77219886       0.67593975       2.15510099        4       1.00000000      -0.01214837      -0.14385004       0.14605355
Pt       6.30014337       0.74449362       2.06886423        3       0.00000000      -0.04179993       0.03759342      -0.00669026
Pt       8.96028681       0.81929227       2.09268349        3       0.00000000      -0.05878513      -0.01024125       0.06571968
Ni       2.50726371       2.98268468       2.16413219        4       1.00000000      -0.05100440       0.07002237       0.10782961
Ni       5.05448770       2.96546619       2.18653904        4       1.00000000      -0.01839355       0.03970751       0.20310387
Ni       7.65760283       2.96056796       2.10682976        3       1.00000000       0.01876156       0.06635992       0.01227183
Ni      10.21375674       2.97609866       2.10999912        3       1.00000000       0.04371555       0.07232401       0.01942183
Ni       3.77685770       5.08177174       2.17264262        4       1.00000000      -0.02590204      -0.05774891       0.11233130
Pt       6.41654552       5.12292977       2.11159786        3       0.00000000       0.12896301       0.01567788       0.04382756
Ni       8.95383481       5.12534399       2.17721233        4       1.00000000       0.10635555      -0.02689523       0.08351959
Ni      11.41134137       5.09441924       2.11516061        3       1.00000000      -0.04782272      -0.00334104      -0.02273032
Pt       5.13807198       7.33872149       2.14200526        3       0.00000000      -0.01224106      -0.04542840       0.03448813
Ni       7.66606689       7.37134740       2.22054950        4       1.00000000       0.00345533       0.03012049       0.23777795
Ni      10.12637347       7.30828488       2.22257965        4       1.00000000      -0.00848880       0.00116620       0.14725896
Pt      12.65227379       7.23215093       2.12235564        3       0.00000000       0.01934550      -0.00732778      -0.00315398
Ni       0.00234273       1.48102294       4.31833168        6       1.00000000      -0.02736775       0.00540990      -0.07707076
Pt       2.47154393       1.42523115       4.20705300        5       0.00000000      -0.11872456      -0.10092375      -0.11775545
Pt       5.05255487       1.39889275       4.29481471        6       0.00000000      -0.00929318      -0.14044716      -0.08254543
Pt       7.65683887       1.44227980       4.37714959        7       0.00000000       0.00051436      -0.02750044       0.01447439
Pt       1.30298527       3.75038194       4.30554503        6       0.00000000       0.04820375      -0.01030029      -0.00994898
Ni       3.79666607       3.74392929       4.26661528        6       1.00000000      -0.00357235       0.05417792      -0.16853218
Pt       6.31993557       3.72385580       4.32071917        6       0.00000000       0.03718953       0.02209845      -0.02972366
Pt       8.92868618       3.74786099       4.30463545        6       0.00000000       0.00349086       0.10059952       0.02727619
Ni       2.52824331       5.87309945       4.35227039        7       1.00000000       0.03989974      -0.02940609      -0.05678206
Ni       5.06961705       5.88414721       4.31651358        6       1.00000000       0.04592697      -0.01735655      -0.11638462
Ni       7.61551270       5.93888756       4.27875053        6       1.00000000      -0.04620323       0.04945493      -0.15770294
Ni      10.20816237       5.92599930       4.24835937        5       1.00000000       0.08544507       0.00363186      -0.22625726
Pt       3.79613411       8.00429785       4.35693898        7       0.00000000       0.00293135      -0.07959650      -0.07058025
Ni       6.36699480       8.02500180       4.30561921        6       1.00000000       0.05393802      -0.09756577      -0.09707296
Ni       8.89422928       8.01620370       4.25670901        6       1.00000000      -0.05325727      -0.02609082      -0.17047468
Ni      11.40185677       7.99613141       4.34518488        6       1.00000000      -0.03259573      -0.05855913      -0.07832420
Pt      -0.06924607       0.03455145       6.49961699       10       0.00000000       0.09836227       0.09450655       0.33798551
Pt       2.54892798      -0.03068978       6.47544801       10       0.00000000       0.05509829      -0.14108678       0.20467967
Ni       5.14965270      -0.02823372       6.42001792        9       1.00000000      -0.08406893      -0.11324323      -0.01306719
Ni       7.56936751      -0.03564850       6.44699516        9       1.00000000       0.02613944      -0.04293226       0.08517906
Ni       1.21414042       2.26067794       6.45402356       10       1.00000000      -0.02085124      -0.06428017      -0.08208942
Pt       3.78492493       2.26083787       6.40668679        9       0.00000000       0.04988864       0.28193981       0.98994815
Ni       6.39592590       2.19046001       6.46780051       10       1.00000000      -0.15206023       0.08052932       0.13647791
Ni       8.89967594       2.24126710       6.45941408       10       1.00000000       0.05238392       0.02382942       0.02703952
Ni       2.48974130       4.47884456       6.45285491       10       1.00000000       0.10858051       0.02540898      -0.11324802
Pt       5.07364030       4.51158294       6.51087497       10       0.00000000      -0.22933452      -0.12761443       0.34602051
Ni       7.63956117       4.38471707       6.45838351       10       1.00000000       0.07016520       0.03644200       0.04779053
Ni      10.21101803       4.38322406       6.46495877       10       1.00000000      -0.00471268       0.04679109      -0.11481648
Ni       3.74094198       6.61150056       6.45323817       10       1.00000000      -0.03981165       0.00216244       0.04645674
Ni       6.34676148       6.61031693       6.39937646        9       1.00000000       0.08535318       0.05928768      -0.04713596
Pt       8.95633165       6.53031355       6.33075548        8       0.00000000       0.03613009       0.04729736       0.54236523
Ni      11.48248684       6.60182012       6.39775201        9       1.00000000      -0.06272106      -0.06040043      -0.22593645
