64
Lattice="10.327055946324778 0.00394205554433085 -0.0009818050468138734 5.166941893406911 8.886742511450706 -0.010443374543577093 0.0 0.0 21.557916796955723" Properties=species:S:1:pos:R:3:tags:I:1:initial_magmoms:R:1:forces:R:3 unique_id=9ca423aa5fd94c5e9124eb521a71550f energy=-376.05209106813385 stress="0.005476120781585909 -2.17581658726222e-05 2.8324693065459585e-05 -2.17581658726222e-05 0.005148366352689428 2.0436716653850652e-05 2.8324693065459585e-05 2.0436716653850652e-05 -0.00247971630802603" pbc="T T T"
Ni       0.00203757       0.02330820       0.14073471        1       1.00000000       0.07406030       0.02062573      -0.21205539
Ni       2.57586878       0.00853990       0.16912058        2       1.00000000      -0.01247139       0.06227391      -0.13777747
Ni       5.16314977      -0.01115518       0.11087689        1       1.00000000      -0.02727627       0.14988510      -0.25534732
Ni       7.75085315      -0.03864379       0.12705211        1       1.00000000      -0.09514356      -0.16125628      -0.15113329
Ni       1.26323659       2.22706526       0.14603943        1       1.00000000      -0.06499003       0.02853941       0.04038280
Pt       3.81721916       2.22935112       0.14615507        1       0.00000000      -0.04259416      -0.03237437      -0.52448255
Pt       6.47734675       2.16274472       0.06930263        1       0.00000000       0.01965560      -0.12833318      -0.09088298
Ni       9.07937388       2.22221017       0.10208479        1       1.00000000       0.05684081       0.14016553      -0.08835037
Ni       2.56368745       4.46505690       0.01599354        0       1.00000000      -0.07012066      -0.05306702       0.16999736
Ni       5.15428447       4.45326776       0.11538102        1       1.00000000       0.15104015      -0.09904059      -0.39651815
Pt       7.78740045       4.44039286       0.00000000        0       0.00000000      -0.00925856      -0.02177917      -0.25420816
Ni      10.36638890       4.43727901       0.02135243        0       1.00000000       0.03784431      -0.07977549       0.26091582
Ni       3.84133591       6.68066730       0.03359244        0       1.00000000      -0.07308933       0.13961738       0.26018941
Pt       6.42422075       6.72302541       0.06226740        1       0.00000000       0.01577703       0.03842033      -0.09728793
Ni       9.06028248       6.69077873       0.09920368        1       1.00000000      -0.08235476      -0.00946133      -0.20456817
Ni      11.64221516       6.66955530       0.01367176        0       1.00000000       0.09862083       0.02366138       0.25109901
Ni       1.29671090       0.75594241       2.12386307        3       1.00000000       0.00873831       0.07032835       0.04726300
Ni       3.86898741       0.74998953       2.17019750        4       1.00000000       0.07166095       0.00522629       0.17539065
Ni       6.45191670       0.75919235       2.20849318        4       1.00000000       0.01709503       0.12597578       0.36281108
Pt       9.03851026       0.77911789       2.13993893        3       0.00000000      -0.01727844       0.11160536       0.11714853
Ni       2.55602916       2.94843697       2.17164077        4       1.00000000      -0.06207064       0.06119778       0.08592586
Ni       5.17713822       2.93342887       2.20348737        4       1.00000000      -0.00499388      -0.13045435       0.25593815
Ni       7.73981121       2.94361370       2.19116338        4       1.00000000      -0.00307978       0.00768890       0.18786342
Ni      10.34457328       2.93578228       2.16950710        4       1.00000000       0.03057447      -0.01393902       0.21087191
Pt       3.89594429       5.16797581       2.12082734        3       0.00000000      -0.02063572      -0.05751886      -0.04940825
Ni       6.45691869       5.17934354       2.16486857        4       1.00000000       0.05877137      -0.02913874       0.11528130
Pt       9.00435789       5.15405593       2.23767339        4       0.00000000      -0.03383318      -0.06041830       0.14067205
Pt      11.63146778       5.13898581       2.16972419        4       0.00000000      -0.02036456      -0.04754283       0.10466077
Ni       5.16443441       7.41514945       2.13668878        3       1.00000000      -0.08666736       0.00413457       0.05070319
Ni       7.73122844       7.42588525       2.14095195        3       1.00000000       0.03236502       0.02070654       0.11910522
Pt      10.37791064       7.46048948       2.10772220        3       0.00000000       0.11352824      -0.01930467       0.04139790
Ni      12.91406264       7.41638797       2.13281701        3       1.00000000       0.04863470      -0.02220531      -0.01686374
Ni      -0.02377584       1.53174953       4.30126765        6       1.00000000      -0.05821462       0.10720898      -0.16578828
Pt       2.56954589       1.56247157       4.20100061        5       0.00000000      -0.02920410       0.06309556      -0.02518114
Ni       5.21074102       1.47596333       4.27890595        6       1.00000000       0.05240161      -0.09989755      -0.30456662
Ni       7.72900908       1.47980029       4.30047732        6       1.00000000       0.00946295      -0.10052152      -0.23448585
Ni       1.26901075       3.74663381       4.32832976        6       1.00000000      -0.04844848       0.03396600      -0.07880267
Ni       3.84753183       3.72273344       4.29534949        6       1.00000000      -0.06889882       0.02877074      -0.25341716
Pt       6.50463713       3.63883791       4.26759628        6       0.00000000       0.00262146      -0.03506257      -0.14151376
Ni       9.07683020       3.70821048       4.31975924        6       1.00000000       0.17551401      -0.05755018      -0.10305446
Ni       2.52969765       5.89259654       4.36980916        7       1.00000000      -0.08942428      -0.08118029      -0.00711645
Pt       5.14843823       5.89476744       4.30276948        6       0.00000000       0.00000808      -0.03534959      -0.04032785
Ni       7.76761770       5.88347504       4.32741357        6       1.00000000      -0.02313517      -0.02860808      -0.15232761
Ni      10.36964222       5.87645062       4.35118670        7       1.00000000       0.08193767      -0.02642025      -0.05090250
Pt       3.78852281       8.13559513       4.26044134        6       0.00000000      -0.07084808      -0.02135985       0.00585512
Pt       6.45928048       8.14351351       4.22234598        5       0.00000000      -0.06480023       0.15345968      -0.15965185
Pt       9.09160664       8.12053045       4.25552895        6       0.00000000       0.01930961       0.05527872      -0.06876324
Ni      11.62350430       8.12988258       4.29484297        6       1.00000000      -0.06152058      -0.04963694      -0.20722184
Pt      -0.02057898      -0.06560751       6.53986475        9       0.00000000      -0.00508803       0.17731779       0.22881558
Pt       2.57706096      -0.04156187       6.55791680       10       0.00000000       0.06612744      -0.00769740       0.37934596
Pt       5.19776722      -0.02747936       6.49966414        9       0.00000000       0.01806322      -0.00681969       0.30007192
Pt       7.72108413      -0.05193079       6.51729328        9       0.00000000      -0.04732156       0.05934790       0.21900823
Pt       1.26885293       2.32165178       6.49675665        9       0.00000000      -0.09998196      -0.06608912       0.03107236
Pt       3.90266014       2.26842070       6.40855007        8       0.00000000       0.10760502       0.09495835       0.52356442
Ni       6.46473197       2.22894704       6.40447681        8       1.00000000      -0.08737208      -0.05646072       0.17564942
Pt       8.98052508       2.30140993       6.44840800        8       0.00000000       0.02457343      -0.06505784      -0.02400535
Ni       2.55710865       4.50315994       6.45142481        9       1.00000000       0.08882151       0.02713146      -0.30658801
Pt       5.18252466       4.48909864       6.53192051        9       0.00000000      -0.00584787      -0.07982504       0.32077552
Ni       7.73843702       4.44136673       6.37609488        8       1.00000000      -0.06453998       0.04473452       0.20006677
Ni      10.35612298       4.46693943       6.44560286        8       1.00000000       0.05475752      -0.04847403      -0.26924780
Ni       3.83113519       6.61982998       6.47949609        9       1.00000000      -0.10702560      -0.03192014      -0.19296574
Ni       6.45994794       6.62933434       6.40648697        8       1.00000000       0.15744352       0.03548047       0.13222324
Pt       9.06082097       6.53096691       6.48309928        9       0.00000000      -0.03854505      -0.02541733       0.08859257
Ni      11.64553226       6.59322243       6.44705485        8       1.00000000       0.00258455      -0.00184488      -0.33784657
