64
Lattice="10.299253197990025 0.006448180497598921 -0.044179523099944835 5.155210887114121 8.810268408040502 -0.09071017876612587 0.0 0.0 21.54648097191412" Properties=species:S:1:pos:R:3:tags:I:1:initial_magmoms:R:1:forces:R:3 unique_id=15a6acca605a4e1fb914d7e5629b6ff7 stress="0.005880443837774161 5.0964555377096466e-05 -0.0003427295418088912 5.0964555377096466e-05 0.004298272796284157 -1.6148048298804567e-05 -0.0003427295418088912 -1.6148048298804567e-05 -0.002102902080406442" energy=-373.4006120533247 pbc="T T T"
Ni       0.01281618      -0.06769213       0.21513872        2       1.00000000       0.09390121      -0.03829459      -0.16441541
Ni       2.56253554      -0.05879783       0.22077437        2       1.00000000      -0.00893999      -0.01608185      -0.06157170
Ni       5.14631453      -0.03704692       0.17671702        2       1.00000000      -0.03705501       0.02233406      -0.45643971
Ni       7.70874114      -0.06249993       0.17537785        2       1.00000000      -0.08856749      -0.05314474      -0.23970290
Pt       1.28216989       2.20226622       0.11440819        1       0.00000000      -0.02346223      -0.09292135       0.02262710
Pt       3.84644255       2.16859826       0.18833401        2       0.00000000      -0.00481045      -0.02196386      -0.56122342
Pt       6.44058311       2.16853997       0.09011399        1       0.00000000      -0.03470124      -0.01494178      -0.22307898
Pt       9.01359035       2.25225648       0.10051069        1       0.00000000       0.03712468       0.07758192      -0.68053737
Ni       2.56455105       4.45568530       0.05550143        1       1.00000000       0.04927369       0.04506318       0.16891494
Pt       5.14562464       4.51050295       0.06957321        1       0.00000000      -0.02658881       0.02478323      -0.00426556
Ni       7.72276376       4.46062128       0.03738163        0       1.00000000      -0.06742024       0.09966348       0.10636496
Ni      10.30587450       4.46080115       0.01391031        0       1.00000000      -0.00182563       0.08104119       0.16513816
Ni       3.83975666       6.63958135       0.06879902        1       1.00000000      -0.03974896       0.08071217       0.33067634
Ni       6.45396255       6.64573362       0.06854546        1       1.00000000       0.02204107       0.06597798       0.34721037
Ni       8.98872284       6.60889842       0.09215048        1       1.00000000      -0.12757669       0.05967078      -0.25046453
Ni      11.60929447       6.60761894       0.00000000        0       1.00000000       0.05957718       0.03705469       0.22689367
Ni       1.30652449       0.70448213       2.25523259        5       1.00000000       0.03688105       0.02707826       0.27245616
Ni       3.80412456       0.72135339       2.21841570        4       1.00000000      -0.20506539      -0.02527607       0.10680217
Ni       6.44168916       0.73133646       2.20692777        4       1.00000000       0.07311745       0.06082860       0.15799502
Pt       9.01716033       0.71777150       2.20748842        4       0.00000000       0.10055327       0.11655245      -0.06274084
Ni       2.57736062       2.90146751       2.27962883        5       1.00000000       0.04332146      -0.11675164       0.28348366
Ni       5.13598992       2.95228278       2.22135118        4       1.00000000      -0.05280786       0.14548357       0.15147491
Ni       7.69269864       2.92509636       2.21661819        4       1.00000000      -0.03686924      -0.05430747       0.11838953
Ni      10.32209390       2.91277269       2.24138182        4       1.00000000       0.12223570      -0.09790633       0.32731204
Ni       3.86438996       5.12870252       2.18652582        4       1.00000000      -0.00462406      -0.04670188       0.09620903
Ni       6.42253942       5.15295236       2.16026720        4       1.00000000       0.01273574       0.04110489       0.05561555
Pt       8.95047766       5.09557081       2.16979056        4       0.00000000       0.02750625      -0.07369785       0.04607539
Pt      11.64826698       5.08688388       2.16274752        4       0.00000000       0.04202864      -0.15890975       0.07477743
Ni       5.17542988       7.29808244       2.11977669        3       1.00000000       0.01793729      -0.08312285       0.01487678
Ni       7.65307709       7.34312965       2.11553619        3       1.00000000      -0.17770184      -0.03009289       0.11932092
Pt      10.32955672       7.36791942       2.09585554        3       0.00000000       0.05971815      -0.03588618       0.12172289
Ni      12.89072641       7.31119461       2.08957822        3       1.00000000       0.10273640      -0.09704207       0.03724135
Ni       0.03816491       1.47309683       4.33996441        7       1.00000000       0.13680013       0.00835331      -0.20105651
Ni       2.49439368       1.47500927       4.30667919        7       1.00000000      -0.06637752       0.01519149      -0.21882336
Pt       5.14352700       1.44040459       4.24466310        6       0.00000000      -0.06695468      -0.06809856      -0.07336887
Ni       7.71428326       1.44599764       4.30747214        7       1.00000000       0.03614312      -0.07429951      -0.23806095
Ni       1.27567599       3.63320908       4.36628377        8       1.00000000       0.04159902      -0.01829957      -0.08497784
Ni       3.78153874       3.67339480       4.28961191        7       1.00000000      -0.14643283       0.02237744      -0.29760718
Pt       6.49816696       3.65232459       4.30952914        7       0.00000000       0.08939122      -0.04045666      -0.08167878
Ni       9.04781504       3.67065019       4.28276396        7       1.00000000       0.19714307       0.01998839      -0.17110811
Ni       2.52897664       5.80681056       4.36264138        8       1.00000000      -0.03783049      -0.07832871      -0.01623628
Pt       5.13253972       5.83872677       4.29961209        7       0.00000000       0.04450133      -0.00564795      -0.07758988
Ni       7.70844091       5.83333344       4.29984610        7       1.00000000      -0.03058858       0.03323875      -0.12825696
Ni      10.32605342       5.79805752       4.31970236        7       1.00000000       0.10060169      -0.04053865      -0.04491472
Pt       3.81716261       8.02959643       4.25100066        7       0.00000000      -0.08516429       0.04554110       0.01372304
Ni       6.41930512       8.06009496       4.23095073        6       1.00000000      -0.09369758       0.09606271      -0.31007401
Pt       8.94075576       8.00681712       4.20826549        6       0.00000000      -0.07661193       0.00143346      -0.01808442
Ni      11.58083780       8.00102881       4.24536612        6       1.00000000      -0.05235137      -0.11482632      -0.11920843
Pt      -0.01415478      -0.08488759       6.54648097       11       0.00000000       0.02441751       0.12925207       0.24481179
Pt       2.52696625      -0.04256045       6.53120143       11       0.00000000       0.00350591       0.13572645       0.23334015
Pt       5.14543644      -0.06183360       6.53999416       11       0.00000000       0.01155835       0.04393993       0.37990063
Pt       7.69207256      -0.08636545       6.51833019       11       0.00000000      -0.07576163       0.13831022       0.34287282
Ni       1.25930243       2.21771367       6.38549088       10       1.00000000       0.03128195       0.08652507      -0.00610709
Pt       3.81055054       2.27973353       6.40833487       10       0.00000000      -0.09544698       0.11984634       0.48876526
Ni       6.42204218       2.20047522       6.40423869       10       1.00000000      -0.00030739      -0.00831427       0.25004066
Pt       9.00242510       2.25690355       6.33591689        9       0.00000000       0.02811000      -0.08538415       0.56939592
Ni       2.51972064       4.40769330       6.43374828       10       1.00000000       0.02564138      -0.01394833      -0.34454447
Ni       5.13615441       4.39715384       6.39239765       10       1.00000000      -0.05846663      -0.00023634       0.13588680
Ni       7.67044379       4.36666570       6.44709957       10       1.00000000      -0.06095065      -0.03081225      -0.05651634
Ni      10.34185901       4.36423373       6.39995554       10       1.00000000       0.14932923      -0.06199655      -0.28236455
Ni       3.82595390       6.49255882       6.45841478       11       1.00000000      -0.03518973      -0.12427487      -0.21534433
Ni       6.40719623       6.51007863       6.44340012       10       1.00000000       0.04039598      -0.01356169      -0.17044804
Pt       8.99802137       6.43243390       6.45043821       11       0.00000000       0.06368025      -0.09064292       0.10424079
Ni      11.59476614       6.49495390       6.39466932       10       1.00000000      -0.00489197       0.04599325      -0.25374469
