64
Lattice="10.090682508800452 0.0020258086852424097 0.00928661075720955 5.047095656184857 8.71594216167069 -0.01830647715837325 0.007582485931668238 -0.02163726247820494 8.641247787294517" Properties=species:S:1:pos:R:3:tags:I:1:initial_magmoms:R:1:forces:R:3 unique_id=7a466483af6044ebb831a6b5ea6188e8 stress="0.0010356775126966825 1.5122683008176406e-06 6.090261911930436e-07 1.5122683008176406e-06 0.0010383212525292632 -4.154123341671496e-06 6.090261911930436e-07 -4.154123341671496e-06 0.0009319260807407331" energy=-388.1069415032788 pbc="T T T"
Ni       0.03922070      -0.03868068       0.18398291        4       1.00000000       0.10308473      -0.00606053       0.31094140
Ni       2.50673794      -0.03203871       0.19611004        4       1.00000000       0.00369333      -0.05205324       0.20944774
Ni       5.05792439      -0.01718919       0.09134524        4       1.00000000      -0.01641973      -0.04314247       0.07515500
Ni       7.54057317      -0.01310593       0.16645485        4       1.00000000       0.02431735       0.02094309       0.25268948
Ni       1.26451561       2.19018292       0.10991879        4       1.00000000      -0.00018037       0.03279003       0.18870467
Pt       3.77614227       2.18439943       0.18451369        4       0.00000000      -0.03274490      -0.02556809       0.34037862
Ni       6.30234003       2.18837235       0.10660341        4       1.00000000      -0.00307160       0.06744424       0.19758885
Pt       8.83526046       2.23435349       0.01836815        4       0.00000000       0.05699087       0.00708604      -0.24576848
Ni       2.50022104       4.38822202       0.08999396        4       1.00000000      -0.03283322       0.03879545       0.12309609
Ni       5.04683454       4.38137199       0.06587375        4       1.00000000      -0.01424030       0.00714777       0.05355795
Ni       7.56221172       4.38988519       0.06908840        4       1.00000000       0.01076828       0.08581258       0.06527060
Ni      10.11876103       4.39584751       0.09853651        4       1.00000000       0.05007940       0.10930085       0.11481865
Ni       3.81088762       6.50790522       0.05221904        4       1.00000000       0.11920038      -0.08650688       0.00607993
Ni       6.30324390       6.55270169       0.06454218        4       1.00000000       0.00678536       0.05957791      -0.03436121
Ni       8.80287001       6.51757576       0.14343699        4       1.00000000      -0.14969275      -0.05382267       0.21338445
Ni      11.34470317       6.51138868       0.04008394        4       1.00000000      -0.05803450      -0.05231885      -0.08204685
Ni       1.30985884       0.73538061       2.18846103        3       1.00000000       0.01178939       0.11059129       0.12511906
Ni       3.73795275       0.71618638       2.19903575        3       1.00000000      -0.11803971       0.01644972       0.02148258
Ni       6.29175866       0.76065827       2.14098011        3       1.00000000       0.02238426       0.00000329      -0.05357472
Pt       8.87250094       0.78143091       2.20947797        3       0.00000000       0.01795299       0.16307509      -0.08868655
Ni       2.48832096       2.91767884       2.22552472        3       1.00000000      -0.00016567      -0.00846137       0.10421635
Ni       5.04816525       2.90887186       2.18855683        3       1.00000000      -0.06309939       0.02207689      -0.00018770
Ni       7.56884179       2.91921008       2.18219787        3       1.00000000       0.07598450       0.02747257      -0.00312502
Ni      10.13738671       2.94878748       2.20914682        3       1.00000000       0.01819342       0.01883367       0.05098498
Ni       3.77206578       5.01949517       2.16258507        3       1.00000000      -0.01433784      -0.14937929       0.02297469
Pt       6.31357169       5.10959388       2.13279876        3       0.00000000       0.00888310       0.07162793      -0.02183589
Ni       8.85148972       5.03582995       2.17604737        3       1.00000000       0.01970885      -0.10962670       0.07892725
Ni      11.34600406       5.01331536       2.17808630        3       1.00000000      -0.02705352      -0.07146624       0.08710196
Ni       5.09483664       7.26040692       2.14122905        3       1.00000000       0.00035092       0.03021813       0.05307107
Ni       7.53785025       7.29165915       2.17142108        3       1.00000000      -0.04959485       0.03730637       0.09631589
Pt      10.03248789       7.24662069       2.17840756        3       0.00000000      -0.05855555      -0.07254887      -0.01747212
Pt      12.62026883       7.17086878       2.12841490        3       0.00000000       0.06220575      -0.12389100      -0.03428029
Ni       0.04590549       1.50304223       4.29460662        2       1.00000000       0.10441017       0.03504736      -0.03754253
Ni       2.46864550       1.46167937       4.23739062        2       1.00000000       0.00069437       0.04383506      -0.01666891
Pt       5.04613913       1.38238177       4.22552901        2       0.00000000      -0.07344432      -0.03666634       0.09745395
Ni       7.60062904       1.46632942       4.30365945        2       1.00000000       0.02434726      -0.03029955      -0.04697704
Ni       1.26295885       3.62704562       4.28667379        2       1.00000000       0.03363434       0.00335365      -0.07904284
Ni       3.73541524       3.67821395       4.24628489        2       1.00000000      -0.02736183       0.00404056      -0.12272444
Pt       6.34330445       3.65237280       4.33205036        2       0.00000000       0.04086369      -0.00937809       0.03728269
Ni       8.88942261       3.64061031       4.29008452        2       1.00000000       0.07834888       0.10126099      -0.19656399
Ni       2.50112405       5.73950942       4.31056414        2       1.00000000      -0.04543538      -0.10590361      -0.11947535
Ni       5.04449279       5.78999229       4.31215604        2       1.00000000      -0.00224344      -0.04992185      -0.09172960
Ni       7.59281097       5.82849396       4.27677355        2       1.00000000       0.10701552       0.03139219      -0.10147824
Ni      10.11912934       5.75276069       4.27940192        2       1.00000000       0.02914917      -0.16386271      -0.09140815
Pt       3.80996960       7.92356892       4.27169978        2       0.00000000       0.04003698       0.00473306       0.20900852
Ni       6.35129532       7.96349129       4.22668581        2       1.00000000       0.01995681       0.02749673      -0.05426767
Ni       8.81030115       7.94629097       4.25963015        2       1.00000000      -0.10183666      -0.08506194       0.01282498
Ni      11.32903563       7.91977811       4.29839949        2       1.00000000      -0.00757476      -0.16377822      -0.00023855
Pt       0.00218583       0.00237239       6.45076442        1       0.00000000      -0.00894016       0.05151811       0.16744843
Pt       2.55123674      -0.01696812       6.39763913        1       0.00000000      -0.04777327       0.02317060       0.08102383
Ni       5.05359990      -0.02974123       6.40164952        1       1.00000000      -0.07414416      -0.01463228      -0.16822925
Pt       7.48912809      -0.00845556       6.44903033        1       0.00000000      -0.13726170       0.00379644       0.10060631
Ni       1.23675829       2.23231105       6.36529433        1       1.00000000      -0.00233005       0.06729383      -0.13667682
Pt       3.78891479       2.26925702       6.34358373        1       0.00000000      -0.00628564       0.21112863      -0.29098715
Ni       6.33540748       2.20338306       6.41910829        1       1.00000000      -0.01211211       0.09687089      -0.00865457
Ni       8.83651199       2.23149848       6.27200091        1       1.00000000      -0.01293010       0.08647000      -0.44740201
Ni       2.49681667       4.39293699       6.36689849        1       1.00000000      -0.08422576       0.08528016      -0.12364548
Ni       5.05729827       4.40331761       6.39963633        1       1.00000000      -0.01811230       0.15757162      -0.07796780
Ni       7.57806623       4.32152294       6.40693337        1       1.00000000       0.06435156      -0.04940928      -0.05708107
Ni      10.12927425       4.30552273       6.37217241        1       1.00000000       0.06879037      -0.09386905      -0.13398967
Ni       3.78522443       6.44934668       6.38557175        1       1.00000000      -0.04926198      -0.06125419      -0.11746952
Ni       6.29042199       6.45943858       6.36892608        1       1.00000000       0.02471701      -0.00706739      -0.22709730
Pt       8.87945137       6.43656424       6.38947633        1       0.00000000       0.06865510      -0.12779393       0.07339231
Ni      11.38035438       6.47065158       6.36652560        1       1.00000000       0.03199340      -0.10706818      -0.24169146
