64
Lattice="10.218181256811194 0.015214083649823696 -0.00408537428777238 5.122266411341651 8.774029551557176 -0.07246444151071182 -0.0033356941377761643 -0.06639426674111461 8.704934909985083" Properties=species:S:1:pos:R:3:tags:I:1:initial_magmoms:R:1:forces:R:3 unique_id=9dbc5f09b30b4806bd4282ce885822af stress="-7.110430964807346e-05 2.9762119252701386e-07 8.722688190898867e-06 2.9762119252701386e-07 -5.0656927490448644e-05 2.1188293671706474e-05 8.722688190898867e-06 2.1188293671706474e-05 -2.6597264857146363e-05" energy=-392.125215543321 pbc="T T T"
Ni       0.04131149      -0.04664599       0.18307157        4       1.00000000       0.12143698      -0.05903261       0.33070870
Ni       2.52855828      -0.03602168       0.18889366        4       1.00000000      -0.05576249      -0.12029157       0.20663565
Ni       5.09976786      -0.02928952       0.16821347        4       1.00000000      -0.07679074      -0.04424511       0.28076919
Ni       7.65982110      -0.02623504       0.15189782        4       1.00000000       0.04369330       0.02048308       0.24455651
Ni       1.28413747       2.19514977       0.09255163        4       1.00000000       0.00465868      -0.00386847       0.23685459
Pt       3.76578150       2.19765111       0.16616485        4       0.00000000      -0.08525186      -0.04057764       0.26901141
Pt       6.38612611       2.21120167       0.07982002        4       0.00000000       0.00415975       0.06392561      -0.01970933
Pt       9.01170816       2.25575070       0.09125853        4       0.00000000       0.09383200      -0.00798419       0.21900233
Ni       2.55219083       4.41164685       0.02689446        4       1.00000000      -0.01214439       0.05385811       0.02288867
Ni       5.09743985       4.43545282       0.03496523        4       1.00000000      -0.07816024       0.03930902       0.05260178
Ni       7.68117148       4.44562875       0.03922036        4       1.00000000       0.05554808       0.11105296       0.08848183
Ni      10.24017394       4.42994420       0.02894970        4       1.00000000       0.04393582       0.14565170       0.02577634
Ni       3.86513457       6.55404479       0.01070056        4       1.00000000       0.11951008      -0.08210634       0.01141004
Ni       6.39183097       6.59373021       0.02891836        4       1.00000000       0.00780785       0.04755248      -0.00294867
Ni       8.92438822       6.56588518       0.09618014        4       1.00000000      -0.13841788      -0.04719611       0.22157359
Ni      11.50053876       6.57067354      -0.00828297        4       1.00000000      -0.07799495      -0.06471770      -0.05270874
Ni       1.32092145       0.72072626       2.19774225        3       1.00000000       0.03533090       0.04250381       0.12284864
Ni       3.77170890       0.71935276       2.19750670        3       1.00000000      -0.19318114      -0.03978891       0.02036576
Ni       6.38079366       0.74914860       2.17913562        3       1.00000000       0.08228086       0.00783566      -0.01860977
Pt       8.99253090       0.76849923       2.22556279        3       0.00000000       0.02014369       0.13087098      -0.11397714
Ni       2.54273199       2.87808565       2.23518648        3       1.00000000       0.00597483      -0.10630988       0.20853193
Ni       5.08903119       2.93061875       2.19532510        3       1.00000000      -0.08671999       0.07844030      -0.03487349
Ni       7.68054330       2.94358546       2.20671985        3       1.00000000       0.09229480       0.01868796       0.02251965
Ni      10.25057315       2.91925624       2.21830527        3       1.00000000       0.04358746      -0.08956498       0.13747747
Ni       3.85455200       5.05964383       2.14777732        3       1.00000000      -0.00322389      -0.11871630       0.04463198
Pt       6.39641765       5.14394376       2.11170574        3       0.00000000      -0.00429066       0.04283806      -0.04216351
Ni       8.93331755       5.08080872       2.14974902        3       1.00000000      -0.01538140      -0.08144046       0.05047089
Pt      11.49458613       5.02374578       2.16339778        3       0.00000000       0.00116738      -0.12845956       0.03747091
Ni       5.16783911       7.29793111       2.10670194        3       1.00000000       0.03785857       0.02191755       0.01954928
Ni       7.64029264       7.33336065       2.13636377        3       1.00000000      -0.06475217       0.05686263       0.09623336
Pt      10.14847490       7.32014297       2.15172221        3       0.00000000      -0.09013190      -0.05187064       0.08617620
Pt      12.80070521       7.26257883       2.08341590        3       0.00000000       0.08481505      -0.07443670      -0.02756128
Ni       0.06734044       1.46738736       4.29259849        2       1.00000000       0.16802267       0.02740278       0.00430015
Ni       2.50045644       1.44395226       4.25972304        2       1.00000000      -0.01995296       0.00541299      -0.05849203
Pt       5.08843745       1.40418686       4.20910436        2       0.00000000      -0.14105818      -0.04910231       0.08847969
Ni       7.66502467       1.44649354       4.28654068        2       1.00000000      -0.01786985      -0.03790469      -0.07046305
Ni       1.28346882       3.61209209       4.32622302        2       1.00000000       0.04164185      -0.03423749       0.00856342
Ni       3.78854385       3.68710906       4.25468283        2       1.00000000      -0.04810217       0.08369316      -0.15822850
Pt       6.41726950       3.67694063       4.31905890        2       0.00000000       0.01424876      -0.00849513      -0.03845699
Ni       8.98975236       3.68310543       4.24116362        2       1.00000000       0.09810231       0.13321869      -0.20168204
Ni       2.55043656       5.76606111       4.32526878        2       1.00000000      -0.03151367      -0.08263746      -0.07513551
Ni       5.11190693       5.81044947       4.30726456        2       1.00000000       0.01711527      -0.05835217      -0.09796973
Ni       7.68104403       5.85103744       4.26206695        2       1.00000000       0.06436662       0.09725838      -0.16050545
Ni      10.23592402       5.79446036       4.28579481        2       1.00000000       0.01817639      -0.07808103      -0.02999746
Pt       3.87943723       7.94734530       4.24816664        2       0.00000000       0.08628030      -0.05517890       0.17741476
Ni       6.43285942       7.99317540       4.19890636        2       1.00000000       0.04115652      -0.01714481      -0.13429998
Ni       8.90926132       7.98612582       4.23098912        2       1.00000000      -0.14683802      -0.04940004       0.00601209
Ni      11.49657070       7.96506996       4.24278172        2       1.00000000       0.02301671      -0.12251440       0.00362976
Pt       0.01688083      -0.08296965       6.49725170        1       0.00000000       0.09970340      -0.02621011       0.18528159
Pt       2.53899560      -0.04377976       6.43276530        1       0.00000000      -0.12712159       0.04132753       0.04283365
Pt       5.11593454      -0.06488648       6.46921583        1       0.00000000       0.10147801       0.01907357       0.04199521
Pt       7.65047106      -0.07716766       6.47806976        1       0.00000000      -0.08593201      -0.04765846       0.04605205
Ni       1.27309868       2.21042247       6.39956609        1       1.00000000       0.02015174       0.10471238      -0.17117121
Pt       3.80210468       2.28446819       6.36485593        1       0.00000000      -0.00062719       0.26622691      -0.26495125
Ni       6.38807315       2.19759939       6.35920530        1       1.00000000      -0.05256365       0.01797911      -0.23415008
Pt       8.95391956       2.26187606       6.30428769        1       0.00000000      -0.01007246       0.16717598      -0.47507886
Ni       2.52844433       4.39810619       6.38235523        1       1.00000000      -0.05329687       0.12708322      -0.20650249
Ni       5.11638493       4.40858070       6.40949603        1       1.00000000      -0.04070304       0.15491889      -0.12127629
Ni       7.62846124       4.36233197       6.41647709        1       1.00000000      -0.15029057       0.01160231      -0.07573841
Ni      10.28743335       4.35677680       6.38103061        1       1.00000000       0.22524783       0.00904447      -0.23446079
Ni       3.83840696       6.44902946       6.38892446        1       1.00000000      -0.02109178      -0.13259934      -0.15347307
Ni       6.36774280       6.47391312       6.37821754        1       1.00000000      -0.01807929      -0.02720799      -0.22945519
Pt       8.94814534       6.42082999       6.38524664        1       0.00000000       0.01548166      -0.13378701       0.08558065
Ni      11.53242192       6.47438420       6.36835031        1       1.00000000       0.01509087      -0.02680178      -0.24264943
