64
Lattice="10.410203549257888 0.014369977224425698 0.08942597561608769 5.217546539957096 9.075657044668302 0.027206464143456864 0.07301600333666124 -0.016505308797642976 8.99205411166082" Properties=species:S:1:pos:R:3:tags:I:1:initial_magmoms:R:1:forces:R:3 unique_id=cb262d54b40248eea82ba43bf7d34692 stress="0.003653373369720679 3.8802543548582085e-05 -2.399652239315443e-06 3.8802543548582085e-05 0.0037110724767828174 9.80667752935079e-06 -2.399652239315443e-06 9.80667752935079e-06 0.0031214579989939234" energy=-405.54023507088795 pbc="T T T"
Pt      -0.07311180       0.02126216       0.16025390        4       0.00000000      -0.08924818      -0.01098615      -0.07824778
Ni       2.63932098      -0.01845722       0.10097493        4       1.00000000       0.10991332      -0.08181641       0.08447443
Ni       5.23178877      -0.02836845       0.19890964        4       1.00000000       0.09467325       0.01763033       0.17132551
Ni       7.79742318      -0.03316779       0.18059503        4       1.00000000      -0.07818457      -0.12452834       0.14634433
Ni       1.30633611       2.26600206       0.16599869        4       1.00000000       0.08890865      -0.03874782       0.12547481
Pt       3.89029426       2.24959220       0.18428433        4       0.00000000       0.04024032       0.00183960      -0.03811564
Pt       6.55628930       2.20150559       0.19595617        4       0.00000000       0.09229590      -0.08261884      -0.04341758
Ni       9.13157374       2.27878467       0.14898536        4       1.00000000       0.00251320      -0.01096087       0.03911089
Pt       2.58912450       4.56726252       0.13748318        4       0.00000000       0.05923245       0.00701432      -0.13235447
Ni       5.24782988       4.53711126       0.19377834        4       1.00000000       0.21510828      -0.09082271       0.13077349
Pt       7.90097686       4.55315231       0.12314870        4       0.00000000       0.11499377      -0.01402971      -0.12583559
Ni      10.42559971       4.56837401       0.13735327        4       1.00000000       0.07430729       0.09768935      -0.01267179
Ni       3.89774228       6.83230500       0.20292065        4       1.00000000      -0.00223553       0.06061866       0.14456904
Pt       6.54311562       6.82105303       0.25038861        4       0.00000000       0.05126987      -0.00221214       0.04213581
Ni       9.16133241       6.82410657       0.14048943        4       1.00000000       0.06970793      -0.00497712       0.03022381
Ni      11.72531232       6.84846043       0.15393994        4       1.00000000       0.07204779       0.06076888       0.00036556
Pt       1.33082431       0.71746257       2.22896418        3       0.00000000       0.04162922      -0.01217003       0.02813368
Pt       3.99140586       0.76592312       2.31197098        3       0.00000000       0.04529896       0.02910601       0.14800344
Ni       6.56646563       0.74434639       2.32673804        3       1.00000000       0.06923905      -0.01845677       0.02319689
Ni       9.06070816       0.75039251       2.32893477        3       1.00000000      -0.12836484       0.06873558      -0.01159021
Ni       2.62656143       3.03285883       2.27679475        3       1.00000000      -0.03493879       0.04972010       0.05820767
Ni       5.24856085       3.02268740       2.30741431        3       1.00000000       0.06409764      -0.00974595      -0.01866250
Pt       7.78328638       3.03179511       2.42798274        3       0.00000000      -0.03011538       0.04737028      -0.01851094
Pt      10.38765661       3.04342860       2.25774939        3       0.00000000      -0.07464797       0.03511385      -0.02064392
Pt       4.00648659       5.32016130       2.22974889        3       0.00000000       0.06851061       0.02048951       0.05968679
Ni       6.58674654       5.29507293       2.32114646        3       1.00000000       0.14518277      -0.01345159       0.03413968
Ni       9.09223510       5.32281266       2.35670664        3       1.00000000      -0.04647781       0.01633973       0.07070444
Pt      11.69059196       5.33711731       2.33905787        3       0.00000000      -0.02796321       0.00658290       0.00835407
Ni       5.21916271       7.56278661       2.27893952        3       1.00000000       0.00406480       0.03664111       0.02243793
Ni       7.84849006       7.51119164       2.31584350        3       1.00000000       0.06876539      -0.07454873       0.08472192
Pt      10.43077504       7.55463036       2.24961676        3       0.00000000      -0.01928020      -0.02192607       0.05530223
Ni      13.05603351       7.62522968       2.30133018        3       1.00000000      -0.03257081       0.05592803      -0.05251997
Pt      -0.09120320       1.57603274       4.44729346        2       0.00000000      -0.10391915       0.06769346      -0.07233441
Pt       2.64170188       1.50104551       4.47400966        2       0.00000000      -0.13553962      -0.01020545       0.02100591
Ni       5.30565828       1.52449824       4.47649069        2       1.00000000       0.05550791       0.05048235      -0.10317473
Ni       7.81567643       1.54985320       4.50061811        2       1.00000000      -0.06956195       0.01220105      -0.12953160
Pt       1.23753874       3.81610628       4.46487212        2       0.00000000      -0.09090059       0.00961556      -0.05340682
Pt       4.02400349       3.73026576       4.41105221        2       0.00000000       0.01631497       0.01191763      -0.05470269
Ni       6.61226606       3.76883174       4.51853758        2       1.00000000       0.02013667       0.02549987       0.04220968
Ni       9.08379322       3.83743683       4.57651961        2       1.00000000      -0.05514750       0.04534679      -0.07356805
Pt       2.59465888       6.08029462       4.45828675        2       0.00000000       0.00651130       0.05571732      -0.06228729
Pt       5.34858722       5.99933826       4.43314084        2       0.00000000       0.04246797      -0.06523632       0.03333026
Ni       7.91693171       5.96682373       4.50236855        2       1.00000000       0.04529696      -0.09947421      -0.11213595
Ni      10.38648809       6.02573088       4.59531715        2       1.00000000      -0.05528184      -0.04319194      -0.02035898
Pt       3.92186733       8.34481369       4.38819462        2       0.00000000      -0.01138456      -0.03565693      -0.09730031
Pt       6.57746594       8.27505008       4.45567966        2       0.00000000      -0.01634596       0.00895824      -0.04132711
Pt       9.15999053       8.21916118       4.56191844        2       0.00000000      -0.03940375      -0.03151560       0.03392859
Pt      11.74592515       8.39447196       4.52151075        2       0.00000000      -0.03666559       0.03594632      -0.02642060
Pt      -0.00011346       0.02044153       6.64700385        1       0.00000000      -0.07923390       0.02368194      -0.02784135
Ni       2.65690800      -0.02606702       6.71447141        1       1.00000000      -0.04834951       0.02622974      -0.06010659
Pt       5.25538767      -0.10370899       6.79815256        1       0.00000000      -0.05099284      -0.09168353       0.14928359
Ni       7.83926876       0.00625014       6.74537606        1       1.00000000      -0.04588443      -0.01154698      -0.09458045
Pt       1.27213950       2.28331796       6.76035019        1       0.00000000      -0.12154602       0.08414741       0.13689535
Pt       3.96677079       2.21035151       6.65406145        1       0.00000000       0.02207702      -0.01723905       0.01943807
Pt       6.66283708       2.24634699       6.61265941        1       0.00000000      -0.02835071      -0.03301538      -0.03128096
Ni       9.14568578       2.31767136       6.74688656        1       1.00000000      -0.03455747       0.13974483      -0.08028722
Pt       2.57058757       4.56225544       6.64662593        1       0.00000000      -0.05428687       0.00319568      -0.02020295
Pt       5.32214778       4.52893180       6.74253276        1       0.00000000       0.00700258       0.01494649       0.09136306
Ni       7.93351209       4.52811861       6.62550249        1       1.00000000       0.02854694       0.00374390      -0.16546485
Ni      10.37728318       4.57881729       6.74407324        1       1.00000000      -0.17873106       0.05267379      -0.10988868
Pt       3.89130418       6.84270320       6.76870607        1       0.00000000      -0.06440893       0.01605866       0.12465106
Pt       6.69788032       6.79066744       6.68783679        1       0.00000000       0.09494318       0.00397284       0.03524303
Ni       9.20488285       6.74653216       6.73185781        1       1.00000000       0.06972335      -0.16606800      -0.08269712
Ni      11.71380167       6.79788976       6.77099716        1       1.00000000      -0.11600977      -0.08652947      -0.12356594
