64
Lattice="10.493050927028374 0.027684483472913836 0.012154958073535935 5.27050092949238 9.097025792401723 0.02424552743927159 0.009924481708362019 0.017129000301781102 9.003641734351165" Properties=species:S:1:pos:R:3:tags:I:1:initial_magmoms:R:1:forces:R:3 unique_id=7d4e3c0b44404e0da5d4445538d59e30 stress="-0.00037955055684367467 -1.5813157456433396e-06 -3.417639507758338e-06 -1.5813157456433396e-06 -0.0003842448395651524 4.605635705244888e-07 -3.417639507758338e-06 4.605635705244888e-07 -0.00028691689935995274" energy=-408.6344265708465 pbc="T T T"
Pt       0.02578086       0.03831232       0.00513649        4       0.00000000       0.01580100       0.10546354      -0.10388908
Pt       2.62215422      -0.07187890       0.09435809        4       0.00000000       0.00398245      -0.11136391       0.10832874
Pt       5.24014794      -0.06292579      -0.00055608        4       0.00000000       0.00370959      -0.07476633      -0.24308151
Pt       7.86085025       0.00273431       0.12080120        4       0.00000000      -0.01767521       0.01089417       0.26939627
Ni       1.30489875       2.27076122       0.13331753        4       1.00000000       0.01637803      -0.00968028       0.41802860
Pt       3.91988184       2.26750082       0.01992231        4       0.00000000      -0.03101419      -0.08391933      -0.17973420
Pt       6.59302482       2.29514283       0.02290300        4       0.00000000       0.03762655       0.03256546      -0.17885513
Ni       9.20432289       2.30574741       0.14018380        4       1.00000000      -0.02222895       0.07650627       0.28460750
Pt       2.60563726       4.55413245       0.00489603        4       0.00000000       0.01221216      -0.03714708      -0.14114438
Pt       5.29128872       4.58809708       0.05327045        4       0.00000000      -0.01670156      -0.01247717      -0.17546485
Pt       7.89722584       4.63710231       0.02357511        4       0.00000000      -0.03304142       0.10257310      -0.27061740
Pt      10.48839557       4.59054154       0.02045963        4       0.00000000       0.00129458       0.07973005      -0.16427253
Pt       3.95652449       6.83103341       0.14509028        4       0.00000000       0.05338923       0.02319781       0.36426049
Ni       6.60275473       6.83332076       0.08594968        4       1.00000000       0.01665275       0.02772831       0.12050250
Ni       9.19581232       6.82852969       0.07503117        4       1.00000000       0.02304286      -0.02874811       0.12848838
Ni      11.80479668       6.83823654       0.15768273        4       1.00000000      -0.02036592      -0.02715729       0.30395441
Pt       1.35092444       0.72490728       2.33693962        3       0.00000000       0.10343759      -0.03410181       0.06336017
Pt       3.94835666       0.76426053       2.41334348        3       0.00000000      -0.03503447       0.04211459       0.09910251
Pt       6.52697014       0.78114389       2.37280660        3       0.00000000       0.00347082       0.03328541       0.00609058
Pt       9.17602072       0.76336382       2.29304965        3       0.00000000      -0.03812810      -0.01009848      -0.03482878
Pt       2.68121760       3.03597260       2.34255412        3       0.00000000       0.09822012      -0.01821880       0.06880803
Ni       5.26736665       3.06144790       2.33477545        3       1.00000000       0.01868612      -0.04975221       0.21116699
Pt       7.79972223       3.12407998       2.33494717        3       0.00000000      -0.14823859       0.12464534      -0.02130318
Pt      10.48484722       3.07459655       2.26809262        3       0.00000000      -0.08045533       0.10498153       0.08427264
Pt       4.04108400       5.27511239       2.38255513        3       0.00000000       0.19290660      -0.06554281       0.11598093
Ni       6.57492306       5.32982410       2.33330313        3       1.00000000       0.01201079      -0.01806003       0.21864295
Pt       9.10168970       5.38977129       2.35039533        3       0.00000000      -0.11781619       0.00069187       0.06513710
Pt      11.83864075       5.37761411       2.29353119        3       0.00000000       0.02846521      -0.00332679      -0.03549582
Pt       5.36724596       7.52410427       2.34726438        3       0.00000000       0.12165185      -0.07061891       0.04613971
Ni       7.88340256       7.56802990       2.31849265        3       1.00000000       0.06181350       0.01688750       0.19140139
Pt      10.49200005       7.60573343       2.32358381        3       0.00000000      -0.02737864       0.06160018       0.05502906
Ni      13.13335346       7.60415441       2.30488821        3       1.00000000       0.05440820      -0.01149637       0.12456301
Pt       0.04626517       1.50110888       4.51898816        2       0.00000000       0.04574058       0.09083570       0.20468010
Ni       2.69011985       1.52138714       4.52007610        2       1.00000000       0.11193191       0.02930975       0.16735514
Ni       5.21582669       1.55983125       4.54418763        2       1.00000000      -0.10665631       0.11168836       0.12237376
Pt       7.78284044       1.62997687       4.52523689        2       0.00000000      -0.02300763       0.12683979       0.21428819
Pt       1.35403953       3.79483300       4.54398753        2       0.00000000      -0.04165290      -0.06648174       0.09053985
Ni       4.02030993       3.76893774       4.54654239        2       1.00000000       0.21406505      -0.08042770       0.09604954
Ni       6.53572743       3.85698468       4.53818502        2       1.00000000      -0.13510896       0.19533841      -0.00044328
Ni       9.15392422       3.85228787       4.53954345        2       1.00000000      -0.15602080       0.09965605       0.00387287
Pt       2.66905169       6.06116125       4.49778046        2       0.00000000       0.02602205       0.14952593       0.14880051
Ni       5.34797429       6.03324329       4.51922752        2       1.00000000       0.25093029      -0.13546386       0.10031518
Ni       7.83524754       6.08894780       4.53792802        2       1.00000000      -0.24659402       0.03405920       0.04751672
Pt      10.39567515       6.12580220       4.56982441        2       0.00000000      -0.15774640       0.03228909       0.14398178
Pt       3.99996193       8.31694593       4.49381066        2       0.00000000      -0.06110370      -0.12098300       0.14908046
Ni       6.62979671       8.29030258       4.52640206        2       1.00000000       0.14926463      -0.24571533       0.00763350
Ni       9.19867560       8.36790982       4.52323368        2       1.00000000      -0.05718863      -0.01707068      -0.02181161
Ni      11.78921364       8.37654616       4.52637068        2       1.00000000      -0.10171662      -0.01043587       0.03226217
Ni       0.02742700      -0.00349836       6.60924780        1       1.00000000       0.06038051      -0.08338998      -0.29185429
Pt       2.65777264      -0.04596814       6.55150178        1       0.00000000       0.01572907      -0.12225759      -0.12829475
Ni       5.23257478       0.04566162       6.57623873        1       1.00000000      -0.07327773       0.08665844      -0.47944248
Pt       7.82594351       0.04435516       6.62948179        1       0.00000000      -0.02396732       0.00107274      -0.23365949
Pt       1.38183758       2.30082796       6.72799816        1       0.00000000       0.13597670      -0.00907470       0.17649750
Ni       3.98141643       2.30591636       6.57279513        1       1.00000000       0.14295502       0.02048177      -0.37509887
Ni       6.51833889       2.33404546       6.60177717        1       1.00000000      -0.28325064       0.16228850      -0.30197704
Pt       9.16300239       2.38955044       6.71249484        1       0.00000000      -0.08108129       0.13673702       0.15907574
Ni       2.67052155       4.54195332       6.61234693        1       1.00000000       0.20238947      -0.05230835      -0.30909025
Ni       5.29175588       4.53651025       6.58261437        1       1.00000000       0.13236440      -0.17231380      -0.35345751
Ni       7.86344014       4.60789737       6.58744631        1       1.00000000      -0.16222123       0.13406766      -0.45726468
Ni      10.48116414       4.59010655       6.62604552        1       1.00000000      -0.13341825      -0.01841963      -0.28317482
Pt       4.06136953       6.76660220       6.65392958        1       0.00000000       0.17379257      -0.11934463      -0.15159993
Ni       6.61026939       6.81324060       6.66125531        1       1.00000000       0.14910225      -0.15968094      -0.30975660
Ni       9.17094478       6.83154937       6.69893349        1       1.00000000      -0.20113229      -0.10210770      -0.10679491
Pt      11.76174499       6.83678470       6.73001983        1       0.00000000      -0.05658122      -0.07176233       0.14082238
