64
Lattice="10.35281310036417 -0.002000185977469998 0.022417338130687695 5.174674338313302 8.974033007788083 0.019889610268621932 0.0 0.0 21.557174211981224" Properties=species:S:1:pos:R:3:tags:I:1:initial_magmoms:R:1:forces:R:3 unique_id=3453c4cebd90432283376ff65d5af239 energy=-378.5916962312884 stress="0.005497382861900195 0.0002749697192392689 0.0005223713434572323 0.0002749697192392689 0.006035430262802497 8.648760835414385e-05 0.0005223713434572323 8.648760835414385e-05 -0.001323463324389828" pbc="T T T"
Ni      -0.01416928       0.02527155       0.10342907        1       1.00000000      -0.05843517       0.10162100       0.15512695
Ni       2.58684412       0.00253012       0.01923233        0       1.00000000      -0.03950755       0.00762223       0.46817388
Ni       5.17461123      -0.02063195       0.07443989        1       1.00000000       0.03205118       0.12938872      -0.25153434
Ni       7.78873053      -0.03756357       0.03670859        0       1.00000000       0.05647698      -0.08757895       0.53262592
Ni       1.27434854       2.22870365       0.08822750        1       1.00000000      -0.00817526      -0.13336823      -0.05986478
Pt       3.80496523       2.18698784       0.04175024        0       0.00000000       0.05212823       0.03410359      -0.01834537
Pt       6.51948674       2.15149767       0.12357721        1       0.00000000       0.04128836      -0.08776491      -0.44572426
Ni       9.08224121       2.20879597       0.07688882        1       1.00000000      -0.00948357      -0.19400127       0.01051427
Ni       2.55794501       4.49457593       0.06408935        1       1.00000000       0.01209529      -0.08111275      -0.22165969
Pt       5.15791573       4.49441319       0.07618910        1       0.00000000       0.22515209      -0.10592729      -0.79842363
Pt       7.86893835       4.49780756       0.04132800        0       0.00000000      -0.00412523      -0.06039417       0.03047816
Ni      10.37549232       4.49501054       0.00000000        0       1.00000000       0.09275720      -0.00785222       0.21183356
Ni       3.84244423       6.77539635       0.10053210        1       1.00000000      -0.02961461       0.15338443       0.03035666
Pt       6.48489471       6.82170270       0.13687398        1       0.00000000      -0.06194494       0.01070133      -0.49713369
Ni       9.08458964       6.74760813       0.01206352        0       1.00000000       0.01777773       0.03398515       0.25468793
Ni      11.65567142       6.74345076       0.00690403        0       1.00000000       0.12952843       0.10359465       0.25977945
Ni       1.30189082       0.73186793       2.10059152        2       1.00000000       0.04331716      -0.06622058      -0.08509792
Ni       3.87383033       0.76198014       2.14369161        2       1.00000000      -0.03767746       0.03448653       0.13802445
Ni       6.50043731       0.75205013       2.18147483        3       1.00000000       0.13706392       0.03503004       0.27201901
Ni       9.04289880       0.73563591       2.13195696        2       1.00000000      -0.14652389      -0.02672706      -0.02766488
Ni       2.60334764       2.96618032       2.13686027        2       1.00000000       0.00090414      -0.04055928       0.16877646
Ni       5.17493366       2.95273413       2.19371344        3       1.00000000      -0.12169954      -0.14827558       0.28803923
Ni       7.77357218       2.97204856       2.17974507        3       1.00000000       0.03615838      -0.10897349       0.15995027
Pt      10.30666461       2.92504642       2.13608946        2       0.00000000      -0.06859163      -0.02428977       0.09613506
Pt       3.87408400       5.24800958       2.18117011        3       0.00000000      -0.01905372      -0.02736258       0.05262871
Ni       6.52220835       5.23747051       2.17580079        3       1.00000000       0.16908823      -0.00436731       0.18561783
Ni       9.02946228       5.23949033       2.18451559        3       1.00000000      -0.13512504       0.00362020       0.25403984
Pt      11.63137792       5.24623317       2.10188485        2       0.00000000      -0.23904886      -0.00030158       0.00035752
Ni       5.16581146       7.52534606       2.13186159        2       1.00000000      -0.10759114       0.15685765       0.05615572
Ni       7.76821600       7.49348505       2.16590329        3       1.00000000       0.05928976       0.08659775       0.09454154
Pt      10.32761086       7.51986218       2.07510121        2       0.00000000      -0.02887566       0.03330804      -0.03813078
Ni      12.95810097       7.52093551       2.13770578        2       1.00000000      -0.03293202       0.18318474      -0.03844540
Ni      -0.02420462       1.52212940       4.29447126        5       1.00000000      -0.04229325       0.06161410      -0.23680952
Pt       2.65074326       1.53835520       4.26356518        5       0.00000000       0.05158557       0.03918879      -0.17749444
Ni       5.19085743       1.52359091       4.28894065        5       1.00000000       0.07185503       0.11175839      -0.43693389
Ni       7.79375041       1.51524345       4.28784017        5       1.00000000       0.10399316       0.04806287      -0.43237131
Pt       1.28670310       3.73496844       4.29679145        5       0.00000000      -0.06111691      -0.09835087      -0.07658506
Ni       3.89836683       3.72205286       4.31098527        5       1.00000000       0.10516926      -0.03493620      -0.27439751
Pt       6.54122678       3.70239367       4.21508606        4       0.00000000       0.04024688      -0.04619473      -0.18422887
Ni       9.05053816       3.73075769       4.33235147        5       1.00000000      -0.01115632      -0.09601215      -0.29759789
Ni       2.58834326       5.98453737       4.32729947        5       1.00000000      -0.02684092       0.02589215      -0.17991450
Pt       5.18680448       5.97519488       4.26689968        5       0.00000000       0.05142289       0.06750797      -0.10051192
Ni       7.79070369       5.94576043       4.31054143        5       1.00000000      -0.02264506      -0.10875414      -0.37779051
Pt      10.31441202       5.94927601       4.40742933        6       0.00000000       0.01140721       0.02692095      -0.03317039
Pt       3.87173180       8.29526089       4.23883242        4       0.00000000      -0.01067759       0.14037008      -0.17802469
Pt       6.47785594       8.26146867       4.23664898        4       0.00000000      -0.04523241       0.22529943      -0.23996860
Pt       9.05110739       8.22189133       4.32816949        5       0.00000000      -0.08901500      -0.01979665      -0.11372346
Pt      11.67659301       8.27169077       4.33247345        5       0.00000000      -0.00636679       0.08090544      -0.10798850
Pt       0.01146795       0.01448633       6.53823914        8       0.00000000       0.11593436       0.08398597       0.17017246
Ni       2.62549038       0.00518918       6.51261999        8       1.00000000      -0.02051140      -0.03521983      -0.13489678
Pt       5.15710817      -0.04663204       6.55717421        9       0.00000000      -0.05257246       0.03566049       0.28824235
Ni       7.76118321      -0.00040656       6.51829834        8       1.00000000      -0.08124814       0.04966525      -0.15999062
Pt       1.34149955       2.23475677       6.55076953        9       0.00000000      -0.10911262      -0.08084973       0.22083312
Ni       3.89312050       2.22997657       6.42909637        7       1.00000000       0.07491120      -0.02663611       0.06622213
Pt       6.48264149       2.19875916       6.42986290        7       0.00000000      -0.06344204      -0.16591300       0.44575065
Pt       9.06349560       2.30535563       6.48491409        8       0.00000000       0.07373528       0.02598795      -0.03043325
Pt       2.54613852       4.51777167       6.51893676        8       0.00000000       0.05410580       0.06360241       0.24317915
Pt       5.19114058       4.45223622       6.43859720        7       0.00000000      -0.05777973       0.01094267       0.81679762
Ni       7.82194984       4.50716030       6.42630527        7       1.00000000       0.06218283       0.04950979      -0.08890859
Ni      10.32961790       4.52879773       6.52782816        8       1.00000000      -0.10818933       0.00324684      -0.12430415
Pt       3.81344950       6.77728279       6.54370302        8       0.00000000       0.10318108      -0.10903538       0.18301924
Pt       6.59613827       6.72592294       6.46565024        8       0.00000000       0.03229757      -0.12275483       0.53367025
Ni       9.09142406       6.70208645       6.52914004        8       1.00000000      -0.00567519      -0.10363863      -0.08697518
Ni      11.62688883       6.73009957       6.53494217        8       1.00000000      -0.09482475      -0.00443828      -0.13270506
