64
Lattice="10.762472236769769 -0.00915191496863549 -0.011606701598907872 5.37331032752877 9.306170658288943 -0.01616798411695918 -0.009476832171356761 -0.009771870004426652 9.396560618684434" Properties=species:S:1:pos:R:3:tags:I:1:initial_magmoms:R:1:forces:R:3 unique_id=609183d542004cb69214303332b1a86d stress="-7.073125267245683e-05 -1.1907918580448678e-06 -4.4860470595318906e-06 -1.1907918580448678e-06 -7.1302574385472e-05 4.84156810507012e-06 -4.4860470595318906e-06 4.84156810507012e-06 -3.424499042960216e-05" energy=-429.3978723291048 pbc="T T T"
Pt       0.00316964       0.00631908       0.01413673        4       0.00000000       0.02556125       0.02303183      -0.06177094
Pt       2.70222744       0.02534546       0.07799103        4       0.00000000      -0.00282079       0.05514976       0.00023095
Pt       5.36479653       0.02732713       0.08077321        4       0.00000000      -0.04497884       0.07177299       0.05740756
Pt       8.06903566       0.00171641       0.06446930        4       0.00000000      -0.00741021       0.02792516       0.05783501
Pt       1.36643592       2.32265678       0.07279040        4       0.00000000       0.02284495      -0.04635077      -0.01085210
Ni       4.03819463       2.32626324       0.07566553        4       1.00000000       0.00779520      -0.01211031       0.29674387
Pt       6.69452584       2.32262575       0.00180099        4       0.00000000      -0.05115962      -0.01565119      -0.11607349
Pt       9.41257240       2.31645051      -0.00722931        4       0.00000000      -0.00311684      -0.02254752      -0.09653795
Pt       2.70382960       4.62256429       0.08552872        4       0.00000000       0.02897134      -0.07890524       0.07993857
Pt       5.36006348       4.61576920       0.07687700        4       0.00000000      -0.03560782      -0.06927373       0.05622074
Pt       8.06227752       4.63855201       0.06723175        4       0.00000000      -0.03112368      -0.03215570       0.05230281
Pt      10.76070167       4.63933935       0.06797085        4       0.00000000       0.01200612      -0.04643483       0.09439133
Pt       4.03082740       6.97620590       0.07190369        4       0.00000000       0.01787138      -0.00455487       0.08625748
Pt       6.71676437       6.98190955       0.06714501        4       0.00000000       0.00021080       0.02922566       0.05228930
Pt       9.41030900       6.98159167       0.06875784        4       0.00000000      -0.02915102       0.04822964       0.08385197
Pt      12.10212305       6.97228516       0.06956666        4       0.00000000      -0.01069429       0.00816425       0.11168200
Pt       1.33299882       0.76328357       2.42620898        3       0.00000000      -0.09827117      -0.03270661       0.25916611
Pt       4.02615007       0.77147825       2.37029414        3       0.00000000      -0.02210414      -0.03168345       0.15144077
Pt       6.72355012       0.77217228       2.36823020        3       0.00000000       0.04846241       0.03005939       0.14260761
Pt       9.42988813       0.77059899       2.39361137        3       0.00000000       0.02782074       0.03931921       0.19523324
Pt       2.69567554       3.08216193       2.34505426        3       0.00000000      -0.00962379      -0.07825982       0.06660644
Pt       5.36829781       3.08201494       2.33823859        3       0.00000000       0.03283456      -0.04903410       0.05330681
Pt       8.06626440       3.08622875       2.36584091        3       0.00000000      -0.00391767      -0.05168451       0.09884255
Pt      10.75788245       3.07630729       2.38184060        3       0.00000000      -0.01382750      -0.07274264       0.14315652
Pt       4.03205049       5.42692658       2.36365298        3       0.00000000       0.02073979       0.02159498       0.13120777
Pt       6.72121526       5.42614525       2.35984320        3       0.00000000       0.01666611      -0.00592128       0.11291711
Pt       9.40736054       5.42292879       2.36467095        3       0.00000000      -0.03711700      -0.02806184       0.13614506
Pt      12.09879347       5.41393998       2.36079757        3       0.00000000      -0.01438038      -0.03062453       0.15020530
Pt       5.38475525       7.76659192       2.39360491        3       0.00000000       0.04892044       0.06230847       0.18562379
Pt       8.06457145       7.76923397       2.41168328        3       0.00000000      -0.00224660       0.12106937       0.28903749
Pt      10.73736530       7.75835243       2.38198695        3       0.00000000      -0.06950867       0.06580304       0.19507820
Pt      13.44555053       7.75106664       2.35727207        3       0.00000000       0.02615253       0.07109796       0.18295381
Ni      -0.00269225       1.52955324       4.71457551        2       1.00000000       0.04297777      -0.09162215       0.07379643
Pt       2.64572503       1.47311575       4.67275226        2       0.00000000      -0.04988815      -0.17137666      -0.08508816
Pt       5.36200023       1.52253559       4.69158312        2       0.00000000      -0.07300620      -0.02961793      -0.04888103
Pt       8.10174370       1.54837488       4.72833822        2       0.00000000       0.03073332       0.03458048       0.04562282
Pt       1.31806656       3.83302582       4.67448398        2       0.00000000       0.01890763      -0.13635727      -0.10068332
Pt       4.02389031       3.85389128       4.66427056        2       0.00000000      -0.04648829      -0.10927424      -0.10708503
Pt       6.72640023       3.85407504       4.69408467        2       0.00000000       0.00343780      -0.01765145      -0.09140389
Pt       9.42398978       3.82354514       4.69221858        2       0.00000000       0.04972383      -0.04897347      -0.04394876
Pt       2.68279597       6.21030671       4.66650938        2       0.00000000       0.03650856       0.06297759      -0.07853028
Pt       5.39240410       6.23273393       4.66469875        2       0.00000000       0.03931405       0.03467192      -0.09397009
Pt       8.06138713       6.26039989       4.66169052        2       0.00000000      -0.00598864       0.11816345      -0.05400124
Pt      10.72875943       6.21441832       4.65412887        2       0.00000000      -0.03922367      -0.00430045      -0.08498079
Pt       4.10175088       8.58266858       4.70037599        2       0.00000000       0.26901913       0.18907780       0.04772548
Ni       6.71623147       8.54056748       4.68788921        2       1.00000000       0.01131478       0.08830883       0.02698230
Ni       9.38864390       8.52441198       4.67530238        2       1.00000000      -0.07364926       0.04559086      -0.02599526
Pt      12.07600421       8.52910177       4.65753956        2       0.00000000       0.07720666       0.05877766      -0.06602489
Ni      -0.01062178       0.00600426       6.94156031        1       1.00000000      -0.00321162       0.09262557      -0.41486280
Pt       2.65108168      -0.01297943       6.90322965        1       0.00000000      -0.04606951      -0.01176126      -0.15831914
Pt       5.38368644       0.01419463       6.92926219        1       0.00000000       0.04533716       0.05616431      -0.10116217
Pt       8.10657315       0.05210775       6.93012094        1       0.00000000       0.11906322       0.19851070      -0.04658447
Pt       1.27300920       2.27097035       6.91753057        1       0.00000000      -0.24214842      -0.18235865      -0.16702513
Pt       4.04812976       2.31128883       7.00852973        1       0.00000000      -0.05007445      -0.01898111       0.00996549
Ni       6.72691101       2.31375809       6.94782107        1       1.00000000       0.03291745      -0.01670186      -0.38615081
Ni       9.40588515       2.30069598       6.93423000        1       1.00000000       0.00838443      -0.05848548      -0.38984768
Pt       2.68057457       4.63475498       6.94771116        1       0.00000000      -0.01446724      -0.07506533      -0.12056899
Pt       5.38873336       4.62050461       6.94323155        1       0.00000000       0.03119839      -0.01278362      -0.11655476
Pt       8.06213370       4.58117702       6.92712215        1       0.00000000       0.00220421      -0.15176220      -0.11350926
Pt      10.73351412       4.60509465       6.93100077        1       0.00000000      -0.02211415      -0.06338787      -0.08540256
Pt       4.04061548       7.01007861       6.93337329        1       0.00000000       0.01119189       0.11852065      -0.10532493
Pt       6.70009893       7.00762192       6.91008546        1       0.00000000      -0.04404886       0.05807772      -0.13533175
Pt       9.39849374       6.97944722       6.91196602        1       0.00000000      -0.01295664       0.01868872      -0.11228387
Pt      12.09843590       6.97480969       6.93076370        1       0.00000000       0.04409725       0.05967598      -0.10801714
