64
Lattice="10.196449006199723 0.03266435313827457 -0.05044931455731821 5.126512662715791 8.80246482879108 -0.018520844697625802 0.0 0.0 21.499191895223504" Properties=species:S:1:pos:R:3:tags:I:1:initial_magmoms:R:1:forces:R:3 unique_id=87ecb2f4b4584336b06d33ae45142119 stress="0.0051602428809563545 5.02155496451898e-05 -0.0003214509794966453 5.02155496451898e-05 0.0043403976103814825 0.00015967999246959257 -0.0003214509794966453 0.00015967999246959257 -0.0019561540366371775" energy=-370.10826350277046 pbc="T T T"
Ni       0.00588432       0.02125177       0.18704775        2       1.00000000       0.13371806      -0.00607212      -0.29823134
Ni       2.53388576       0.00788461       0.19822598        2       1.00000000      -0.05736981       0.01539768      -0.11934107
Ni       5.09447213       0.00625164       0.15396725        2       1.00000000      -0.01229012       0.18555470      -0.48323960
Ni       7.64713609       0.01299698       0.11886865        1       1.00000000      -0.03256447       0.08536530      -0.52161526
Ni       1.23803183       2.21156501       0.11589019        1       1.00000000      -0.04333614       0.03164988       0.37778771
Pt       3.76658029       2.22672966       0.17362204        2       0.00000000      -0.02004682       0.00390597      -0.58960199
Pt       6.42945088       2.24020153       0.07901126        1       0.00000000       0.01380037      -0.01130436      -0.14423354
Ni       8.96466793       2.26499259       0.10994684        1       1.00000000       0.02274817       0.16170415      -0.18400142
Ni       2.54612152       4.43040951       0.06528038        1       1.00000000      -0.00833742       0.00810594       0.20674246
Ni       5.08963417       4.43130770       0.08862014        1       1.00000000      -0.08373929      -0.00800140       0.24235381
Ni       7.69825833       4.42208352       0.08197938        1       1.00000000       0.12232794       0.05856145       0.24223778
Ni      10.19355711       4.41317383       0.03574347        0       1.00000000      -0.07961104      -0.01383263       0.26261992
Ni       3.82924305       6.58155532       0.06148456        1       1.00000000       0.06771890      -0.06226103       0.06573028
Pt       6.38230174       6.60154960       0.07386873        1       0.00000000       0.02344062       0.08903027      -0.02461221
Ni       8.93854732       6.59412196       0.12244070        1       1.00000000      -0.14582677      -0.16635588      -0.36863613
Ni      11.48525639       6.61008804       0.00000000        0       1.00000000      -0.06763163      -0.05953292       0.03359481
Ni       1.30093390       0.75318358       2.20124181        4       1.00000000       0.03874303       0.06775066       0.18700066
Ni       3.76472269       0.75858857       2.18169431        4       1.00000000      -0.14277234      -0.02611113       0.11951451
Ni       6.36258741       0.78461992       2.17077373        4       1.00000000       0.02144360       0.06600492       0.18401194
Pt       8.95707268       0.84163925       2.14731854        3       0.00000000       0.00426990       0.05058783       0.09013701
Ni       2.53514255       2.90824263       2.24614752        4       1.00000000       0.01951254      -0.12460230       0.22020342
Ni       5.09753688       2.99630915       2.18392756        4       1.00000000      -0.00288367       0.15413155       0.04541845
Ni       7.66245875       3.01071168       2.17839534        4       1.00000000       0.03176891       0.13476567       0.13630385
Ni      10.20069208       2.96337195       2.15537785        4       1.00000000       0.05080996      -0.02308307       0.19406336
Ni       3.88072207       5.09829588       2.17966311        4       1.00000000       0.07939689      -0.10838364       0.03189337
Ni       6.38150629       5.14778980       2.17118682        4       1.00000000       0.00973957       0.04979694       0.01805076
Ni       8.88082837       5.11705282       2.16129237        4       1.00000000      -0.08077020      -0.07606234       0.12349487
Pt      11.47237000       5.06361020       2.15383051        4       0.00000000       0.03971932      -0.14233008       0.10732828
Ni       5.15952878       7.31434743       2.19240239        4       1.00000000       0.07182515      -0.08120171       0.15790096
Ni       7.60641730       7.33879422       2.16810188        4       1.00000000      -0.13791460      -0.07343229       0.18051253
Pt      10.16604147       7.35050657       2.11774084        3       0.00000000      -0.09145520      -0.06258555       0.13459525
Pt      12.79293090       7.32310037       2.09566084        3       0.00000000       0.13712139      -0.11814795       0.01181578
Ni       0.02945470       1.51431216       4.31776189        6       1.00000000       0.08671277       0.05730467      -0.08664453
Ni       2.46458735       1.51820034       4.26833185        6       1.00000000      -0.08952776       0.01872382      -0.14934002
Pt       5.09580793       1.50131146       4.20862190        5       0.00000000      -0.03914594      -0.04971286      -0.06146016
Ni       7.65699294       1.51218180       4.27593123        6       1.00000000       0.11498900       0.01260497      -0.18136725
Ni       1.26670300       3.65636865       4.35932047        7       1.00000000       0.03655166      -0.07081475      -0.01875723
Ni       3.77028005       3.74720981       4.26884444        6       1.00000000      -0.03126746       0.07565025      -0.23907584
Pt       6.39605497       3.75707963       4.28324630        6       0.00000000       0.01424334      -0.02555344      -0.01525938
Ni       8.95639876       3.72503672       4.25242486        6       1.00000000       0.10426466       0.04976168      -0.21852419
Ni       2.53995898       5.81925672       4.36854984        7       1.00000000      -0.03455913      -0.05189761      -0.08090236
Ni       5.09360044       5.86549534       4.30750397        6       1.00000000      -0.00059830      -0.04465598      -0.23232330
Ni       7.63247154       5.87464310       4.26518122        6       1.00000000       0.02869565       0.03231407      -0.28245140
Ni      10.22121217       5.83020847       4.29968859        6       1.00000000       0.02567225      -0.08123839      -0.06941287
Pt       3.86135218       8.01634106       4.29820272        6       0.00000000       0.04310725       0.00197894       0.17747889
Ni       6.36766879       8.05600984       4.25011268        6       1.00000000      -0.03414471       0.00162028      -0.27999658
Pt       8.86259359       8.04715244       4.23195853        5       0.00000000      -0.06344897       0.03326708       0.02761093
Ni      11.48486128       8.04539088       4.26625546        6       1.00000000      -0.02566011      -0.11618040      -0.15108518
Pt      -0.01392065      -0.02900817       6.49919190       10       0.00000000       0.00602201       0.04199989       0.35411787
Pt       2.49964747       0.02200817       6.47132231       10       0.00000000       0.02823770       0.05075209       0.33845843
Pt       5.08969892      -0.00153335       6.48130472       10       0.00000000       0.00941093       0.00403277       0.49312948
Pt       7.61563152      -0.01504936       6.44684856        9       0.00000000      -0.03176725       0.10652181       0.42673172
Ni       1.24663483       2.27136061       6.42235355        9       1.00000000       0.06258938       0.06354402      -0.19036346
Pt       3.77582482       2.34348976       6.36957192        9       0.00000000      -0.07810183       0.11032689       0.56465756
Ni       6.35844468       2.26979789       6.35763709        9       1.00000000      -0.00304407       0.01997399       0.29727211
Pt       8.91471038       2.33120986       6.39559386        9       0.00000000      -0.03000944      -0.06578144       0.03917753
Ni       2.50884015       4.45985826       6.41510970        9       1.00000000       0.03842966      -0.03551330      -0.30433256
Ni       5.08912820       4.46972482       6.42189301        9       1.00000000      -0.03483928       0.03296113      -0.26248625
Ni       7.59173616       4.42542944       6.42286241        9       1.00000000      -0.10297411      -0.01506357      -0.07475652
Ni      10.25234055       4.42166757       6.38170560        9       1.00000000       0.12626246      -0.02621104      -0.25106574
Ni       3.81357625       6.51741129       6.42955863        9       1.00000000       0.03685248      -0.08855024      -0.21299424
Ni       6.33863954       6.54991642       6.32687500        8       1.00000000      -0.00700579      -0.01239610      -0.00839555
Pt       8.92185826       6.47924697       6.43895341        9       0.00000000      -0.00932074      -0.07215298       0.17931211
Ni      11.50121934       6.55659374       6.37630467        9       1.00000000      -0.02818115       0.04337122      -0.16675125
