64
Lattice="10.786020585507913 -0.002493362242210102 0.001613924847531795 5.390850977711366 9.338142742129424 -0.004313781398710388 0.001317764119884011 -0.004827883575456195 9.439613210623103" Properties=species:S:1:pos:R:3:tags:I:1:initial_magmoms:R:1:forces:R:3 unique_id=bb24a462021c4a96b21bc9aa9f28923c stress="-3.926021992436968e-06 1.7383523076538536e-07 -1.672878867388577e-06 1.7383523076538536e-07 -1.4861959738432517e-06 -1.3734457457033811e-06 -1.672878867388577e-06 -1.3734457457033811e-06 2.086064403009069e-05" energy=-432.4822355826215 pbc="T T T"
Pt      -0.00077701      -0.00127324       0.09141395        4       0.00000000       0.00108423      -0.00900321       0.08698658
Pt       2.69687081      -0.00082463       0.08551747        4       0.00000000      -0.01603029      -0.01443182       0.11029877
Pt       5.39306517      -0.00144369       0.09098715        4       0.00000000      -0.00278037      -0.00181268       0.10221253
Pt       8.08992358      -0.00486836       0.09234753        4       0.00000000       0.02085751      -0.00779318       0.11952167
Pt       1.34769602       2.33509268       0.09030191        4       0.00000000      -0.00749277       0.00555039       0.10234192
Pt       4.04467425       2.33495899       0.09275600        4       0.00000000       0.00063436      -0.01146860       0.09339215
Pt       6.74125245       2.33829409       0.08741042        4       0.00000000       0.00521765       0.03086697       0.08659272
Pt       9.43645080       2.33436936       0.08412735        4       0.00000000       0.00575811       0.00891295       0.07581737
Pt       2.70543597       4.67478717       0.11032885        4       0.00000000       0.01792512       0.00391012       0.12261794
Pt       5.38621067       4.67425878       0.10197437        4       0.00000000       0.01385850       0.01816897       0.11377795
Pt       8.08662764       4.66918837       0.01981566        4       0.00000000      -0.00560425       0.00615233      -0.02037781
Pt      10.78441635       4.66860261       0.08362916        4       0.00000000      -0.00501603      -0.00491093       0.12258297
Pt       4.04320331       6.99216282       0.10717300        4       0.00000000       0.01466248      -0.01959341       0.09437844
Pt       6.74150861       6.99706001       0.08289223        4       0.00000000       0.02567687      -0.01343912       0.03864734
Pt       9.43279208       6.99722676       0.08014529        4       0.00000000      -0.01850412      -0.02894949       0.06500435
Pt      12.13480605       7.00055963       0.09176352        4       0.00000000      -0.01044968      -0.00312569       0.09386707
Pt       1.33882086       0.77962486       2.41336575        3       0.00000000      -0.05142285       0.00557910       0.20296598
Pt       4.03973863       0.77936143       2.39220037        3       0.00000000      -0.02899552       0.00864785       0.16600710
Pt       6.74499518       0.77722121       2.38568842        3       0.00000000       0.02143995       0.02452116       0.12982727
Pt       9.44864053       0.77612536       2.40828398        3       0.00000000       0.04826449       0.01966125       0.16259167
Pt       2.71122928       3.14003204       2.38852010        3       0.00000000       0.01855610       0.04473072       0.12911386
Pt       5.37634144       3.14415908       2.38414668        3       0.00000000      -0.00110765       0.07966695       0.14751750
Pt       8.08537243       3.12027938       2.39007737        3       0.00000000      -0.03110547       0.05526112       0.09272384
Pt      10.78942530       3.10306008       2.40935051        3       0.00000000      -0.01083694      -0.01962166       0.20702006
Ni       4.04435337       5.44471163       2.36083803        3       1.00000000       0.01767491      -0.00744827       0.04501618
Pt       6.72012177       5.44766498       2.40813174        3       0.00000000       0.02687375      -0.00311482       0.16616590
Pt       9.42418995       5.44421161       2.41219398        3       0.00000000      -0.07387443      -0.01394912       0.19437886
Pt      12.16177724       5.44060311       2.38761586        3       0.00000000      -0.00184152      -0.02482551       0.14054761
Pt       5.37777507       7.74975722       2.38409097        3       0.00000000      -0.01699189      -0.07541066       0.07708471
Pt       8.08003040       7.76781047       2.40648907        3       0.00000000      -0.04359738      -0.06726203       0.18781507
Pt      10.78666081       7.77374292       2.38359761        3       0.00000000       0.00247808      -0.03094306       0.10862640
Pt      13.50030107       7.75036656       2.38453468        3       0.00000000       0.04127708      -0.03917925       0.12580373
Ni      -0.00010437       1.55576627       4.71643891        2       1.00000000      -0.00466157       0.01992838      -0.02838146
Pt       2.66304478       1.54964432       4.69254084        2       0.00000000      -0.05309335      -0.00396228      -0.10599327
Pt       5.39390430       1.55985069       4.69652888        2       0.00000000       0.01242655       0.05528430      -0.11609738
Pt       8.12566053       1.56174539       4.69886196        2       0.00000000       0.06966556       0.04597979      -0.11473075
Pt       1.32201134       3.86252816       4.69382367        2       0.00000000      -0.09052989      -0.04343294      -0.07748379
Pt       4.04897164       3.90040532       4.67184593        2       0.00000000       0.03354870       0.06361498      -0.15279276
Pt       6.77654247       3.92656970       4.72403112        2       0.00000000       0.09438668       0.10856966       0.00568360
Pt       9.42345767       3.89843510       4.72307144        2       0.00000000      -0.03617906       0.07019686      -0.03679111
Pt       2.70722549       6.21652301       4.66774353        2       0.00000000       0.06395221      -0.04173396      -0.17013850
Pt       5.41865147       6.22175673       4.67341524        2       0.00000000       0.00349468       0.01004014      -0.15041692
Ni       8.08809027       6.21650546       4.72362853        2       1.00000000      -0.00992513      -0.01734620      -0.00500519
Pt      10.75212918       6.21290206       4.69333096        2       0.00000000      -0.02307066      -0.02030639      -0.13355827
Pt       4.06629872       8.58322323       4.69010596        2       0.00000000       0.06043036       0.04192153      -0.08608462
Pt       6.73944888       8.55169425       4.69207337        2       0.00000000      -0.00653112      -0.04050081      -0.09745146
Pt       9.41223358       8.52726497       4.69375690        2       0.00000000      -0.05454043      -0.05285416      -0.10075120
Pt      12.13527500       8.55302243       4.69015651        2       0.00000000       0.01178836      -0.01317758      -0.12399509
Pt       0.00270316       0.00608503       6.96346137        1       0.00000000       0.00973024       0.00516862      -0.13671014
Pt       2.69586200      -0.01042139       6.98149213        1       0.00000000       0.00341230      -0.03477689      -0.11233800
Pt       5.39246026      -0.00666437       6.98517841        1       0.00000000      -0.01326305      -0.01445460      -0.13822993
Pt       8.09140642       0.00168792       6.98678101        1       0.00000000      -0.00888028       0.01772128      -0.10500374
Pt       1.33498073       2.32803249       6.96709495        1       0.00000000      -0.04457721       0.00720895      -0.12028478
Pt       4.04654645       2.33218795       6.98652216        1       0.00000000       0.00802179       0.02597950      -0.13808104
Pt       6.76178602       2.35965311       6.97972006        1       0.00000000       0.06387646       0.07222805      -0.12562889
Pt       9.43134696       2.35270233       6.96382957        1       0.00000000      -0.01105925       0.03945318      -0.12373707
Pt       2.69627587       4.66504025       6.98534615        1       0.00000000       0.00057644       0.00204288      -0.10617242
Pt       5.42528820       4.66750288       6.98288575        1       0.00000000       0.03613175       0.00913026      -0.07488232
Ni       8.08936342       4.66719807       6.98509727        1       1.00000000       0.00122667       0.01182852      -0.36668530
Pt      10.75098267       4.66394619       6.97964862        1       0.00000000      -0.05838699       0.01134170      -0.07030461
Pt       4.05272357       6.99725662       6.98106632        1       0.00000000       0.05411533      -0.01169488      -0.12117673
Pt       6.76719771       6.96633880       6.95965950        1       0.00000000       0.04539454      -0.09511127      -0.17223000
Pt       9.40928398       6.96221038       6.96189549        1       0.00000000      -0.07675597      -0.11629150      -0.15211796
Pt      12.12496934       6.99481026       6.98592388        1       0.00000000      -0.03731271      -0.02734248      -0.13329659
