64
Lattice="10.286887194921556 0.013372325475615355 -0.040236411390979734 5.155024371030337 8.84849980796539 -0.06353230342414272 -0.03285289232953624 -0.04093120387070124 8.776345672546084" Properties=species:S:1:pos:R:3:tags:I:1:initial_magmoms:R:1:forces:R:3 unique_id=70ae980eca2f42059acaeb94d1099d3c stress="0.0001755763870094143 -2.9917956047085325e-06 1.4310283543289112e-05 -2.9917956047085325e-06 0.00019402163811727685 1.2180478334107409e-05 1.4310283543289112e-05 1.2180478334107409e-05 0.00017950181068827897" energy=-396.6960195453356 pbc="T T T"
Ni       0.00943837      -0.00240612       0.17955748        4       1.00000000       0.05040618       0.05082504       0.28228850
Ni       2.56122544       0.00296201       0.18808166        4       1.00000000      -0.03188187       0.01891998       0.33793697
Ni       5.13848582      -0.02335055       0.14511425        4       1.00000000      -0.06150484      -0.01378261       0.22924915
Ni       7.70300057      -0.04858100       0.14386435        4       1.00000000      -0.02872924      -0.10449405       0.29931020
Ni       1.28291207       2.21757390       0.09347619        4       1.00000000      -0.00873247       0.01423261       0.24275184
Pt       3.77144822       2.17709494       0.15994686        4       0.00000000      -0.10813129      -0.00871692       0.21097364
Pt       6.44614294       2.16477339       0.06716705        4       0.00000000       0.03621616      -0.11794788      -0.05845895
Pt       9.07282384       2.26713950       0.07432643        4       0.00000000       0.06302076       0.05967590       0.12409583
Ni       2.52489053       4.44377384       0.02167856        4       1.00000000      -0.11088325       0.02119560      -0.00117734
Pt       5.13385847       4.45302680      -0.00781349        4       0.00000000      -0.08095619       0.04259663      -0.15543520
Ni       7.73839743       4.44981823       0.02034090        4       1.00000000      -0.02639456       0.03829969       0.09872507
Ni      10.31447333       4.45857339      -0.00512091        4       1.00000000       0.05603641       0.13081494       0.00070098
Ni       3.81669081       6.67132710       0.03613502        4       1.00000000      -0.07669176       0.07572117       0.15425325
Pt       6.46356661       6.69938048       0.04547369        4       0.00000000      -0.02294320       0.00172198      -0.09188804
Ni       9.02266632       6.64328351       0.07791453        4       1.00000000      -0.00344277       0.01778621       0.18263425
Ni      11.59499480       6.64530766      -0.01114029        4       1.00000000       0.03797806      -0.03242584       0.01477605
Ni       1.30685789       0.73896056       2.21158339        3       1.00000000       0.01328828       0.03221648       0.13894538
Ni       3.80125463       0.73637789       2.19811471        3       1.00000000      -0.16147637       0.00823555       0.05444748
Ni       6.43338457       0.74354392       2.18935953        3       1.00000000       0.10174896      -0.00081665       0.06846801
Pt       9.00777890       0.74391294       2.18977254        3       0.00000000       0.06431844       0.20772009      -0.07325165
Ni       2.53301929       2.89065922       2.24078978        3       1.00000000      -0.04230600      -0.10458258       0.20596752
Ni       5.14696937       2.93239109       2.19566343        3       1.00000000      -0.04280255       0.04779691      -0.06663345
Ni       7.69390226       2.94319323       2.19588799        3       1.00000000       0.03714956      -0.07646045      -0.03614573
Ni      10.32800702       2.92268391       2.20510739        3       1.00000000       0.08197066      -0.10700602       0.17288549
Pt       3.86260312       5.15399447       2.18771560        3       0.00000000      -0.03095828      -0.05840910      -0.14073864
Ni       6.43756762       5.16079370       2.16560310        3       1.00000000      -0.03966257       0.03932492      -0.06093252
Pt       8.93881692       5.12178338       2.16507759        3       0.00000000      -0.04540572      -0.02087933       0.00936490
Pt      11.57015300       5.11110457       2.15186292        3       0.00000000       0.02036304      -0.12118561       0.06965502
Ni       5.17635967       7.37768813       2.14903820        3       1.00000000       0.06366876       0.01338984       0.04810756
Ni       7.67407766       7.40264666       2.14891448        3       1.00000000      -0.10765658       0.01342650       0.07929918
Pt      10.31802645       7.41897901       2.09812563        3       0.00000000       0.04039166      -0.02049567       0.07274398
Ni      12.85842421       7.38306256       2.09585673        3       1.00000000      -0.00062997      -0.05504883       0.01115933
Ni       0.04159981       1.49487244       4.33002715        2       1.00000000       0.12439426       0.04954517      -0.06453081
Ni       2.49169210       1.49532684       4.29773440        2       1.00000000      -0.05969351       0.05595602      -0.07847717
Pt       5.14012764       1.46067864       4.23822607        2       0.00000000      -0.10532186       0.00109574       0.06599899
Ni       7.70958241       1.47018314       4.29924098        2       1.00000000       0.04088125      -0.04167961      -0.07202514
Ni       1.27276596       3.65350036       4.36750671        2       1.00000000       0.01869672      -0.02999136      -0.02312012
Ni       3.78113971       3.69345002       4.30724967        2       1.00000000      -0.12863515      -0.00663588      -0.13996192
Pt       6.49813075       3.67860413       4.30356369        2       0.00000000       0.08015121      -0.05567194      -0.12788881
Ni       9.04170128       3.70002618       4.28288477        2       1.00000000       0.21880324       0.00449605      -0.12610297
Ni       2.52101848       5.84765863       4.37543242        2       1.00000000      -0.06738359      -0.06555593      -0.00229335
Pt       5.15421105       5.89129587       4.34949449        2       0.00000000       0.08813566       0.02002764      -0.09018696
Ni       7.71528386       5.87028178       4.30006042        2       1.00000000       0.03308514       0.01193550      -0.08192446
Ni      10.31598711       5.83986576       4.32534076        2       1.00000000       0.08551308      -0.07225437       0.00035824
Pt       3.82014124       8.08295309       4.25977927        2       0.00000000      -0.08704621      -0.00422664       0.11802832
Ni       6.42067212       8.11499576       4.24651769        2       1.00000000      -0.07791824       0.14434483      -0.14616734
Pt       8.94076457       8.06016252       4.22031398        2       0.00000000      -0.07539401      -0.04770734       0.14757253
Ni      11.57225448       8.05585889       4.25774633        2       1.00000000      -0.03249330      -0.11588602      -0.02508032
Pt      -0.01243585      -0.06033620       6.53491793        1       0.00000000       0.08836509      -0.05464693       0.11401730
Pt       2.52868686      -0.01694620       6.51890613        1       0.00000000      -0.08647616       0.04508763       0.17285638
Pt       5.14135483      -0.04273491       6.53246464        1       0.00000000       0.06733959       0.00242620       0.04437203
Pt       7.68545249      -0.06511543       6.51114211        1       0.00000000      -0.08234364      -0.04545230       0.16213550
Ni       1.26162825       2.24570175       6.45882193        1       1.00000000       0.01165703       0.12494241      -0.20077720
Pt       3.80763099       2.30478659       6.41031360        1       0.00000000       0.00003568       0.21142744      -0.21302917
Ni       6.41789678       2.22849599       6.40597348        1       1.00000000      -0.00502619       0.03626401      -0.23064567
Pt       8.99768877       2.28782604       6.33897238        1       0.00000000       0.01585662       0.10044754      -0.35051751
Ni       2.52056487       4.43922662       6.44281579        1       1.00000000      -0.06677148       0.11952078      -0.24179568
Ni       5.13474221       4.42628590       6.38233227        1       1.00000000       0.02401255       0.06328897      -0.33602744
Ni       7.67049559       4.40452355       6.44911563        1       1.00000000      -0.11593233      -0.01536321      -0.12246662
Ni      10.33351927       4.40151985       6.41385255        1       1.00000000       0.27679107      -0.03908081      -0.24481472
Ni       3.82364237       6.54123402       6.46434387        1       1.00000000      -0.04741573      -0.15482201      -0.06533395
Ni       6.41553727       6.56506561       6.38438579        1       1.00000000       0.10688944      -0.01025502      -0.16731366
Pt       9.00050279       6.48039607       6.45388832        1       0.00000000       0.08041197      -0.14239458       0.09031269
Ni      11.59130745       6.54546593       6.40687729        1       1.00000000       0.04146433      -0.08083043      -0.18924902
