64
Lattice="10.338097627709722 -0.037076242294335586 0.03744274269524336 5.136939846151101 8.935055128872278 -0.003995401386523429 0.03057187139122281 -0.021417578729316707 8.90634376628837" Properties=species:S:1:pos:R:3:tags:I:1:initial_magmoms:R:1:forces:R:3 unique_id=2bc84f1f728d455988f9b674e10a1245 stress="0.000360034213277835 1.7192781512485362e-06 -1.8443608675595372e-05 1.7192781512485362e-06 0.00035892721719528453 -3.964781050490002e-06 -1.8443608675595372e-05 -3.964781050490002e-06 0.000338976081971136" energy=-400.62468535175606 pbc="T T T"
Ni       0.04756431      -0.00077228       0.16043733        4       1.00000000       0.15687734       0.05917408       0.27597594
Ni       2.54343541       0.00166113       0.20084847        4       1.00000000      -0.13845307       0.06759872       0.43301925
Pt       5.09243379      -0.06279539       0.13568889        4       0.00000000      -0.08302218       0.00541792       0.17002489
Pt       7.80331004      -0.14819350       0.18311812        4       0.00000000       0.05251579      -0.10450420       0.29609884
Ni       1.29443501       2.23962350       0.09807910        4       1.00000000       0.00181890       0.04689416       0.29049425
Pt       3.77454911       2.28420661       0.12104665        4       0.00000000      -0.03282010       0.10729320      -0.08407507
Pt       6.43018584       2.27602700       0.17449049        4       0.00000000       0.00247540       0.10453380       0.24196809
Pt       9.14416316       2.23574698       0.17833236        4       0.00000000       0.07443251       0.00269339       0.21068283
Ni       2.56785847       4.48871828       0.05854196        4       1.00000000       0.07215885       0.06400789      -0.01719233
Ni       5.10858802       4.48983539       0.10560724        4       1.00000000      -0.10028352       0.12049912       0.24513405
Pt       7.78148568       4.51590063       0.12941926        4       0.00000000       0.05887080       0.08119924      -0.06718525
Ni      10.37139238       4.45767052       0.09992761        4       1.00000000       0.14845739       0.03489095       0.13220560
Ni       3.84235445       6.64418699       0.09447089        4       1.00000000      -0.03442932      -0.24535074       0.24793955
Pt       6.39553738       6.73477494       0.19497744        4       0.00000000      -0.06314839       0.02309459      -0.02052602
Ni       9.02704479       6.65810709       0.17466322        4       1.00000000      -0.06133074      -0.01866391       0.32770789
Ni      11.61965963       6.61247331       0.09373580        4       1.00000000       0.04004403      -0.13427033       0.05739076
Ni       1.33549497       0.72984830       2.22723631        3       1.00000000       0.15297495      -0.01362634       0.04034050
Ni       3.82347580       0.75713756       2.25289676        3       1.00000000      -0.06901640       0.05854332      -0.04003696
Pt       6.41787890       0.77671731       2.32174898        3       0.00000000      -0.12423201       0.08952190      -0.13170221
Pt       9.17449010       0.69518852       2.30425289        3       0.00000000       0.08777812       0.03993308      -0.07992852
Ni       2.58615666       2.95862341       2.24485520        3       1.00000000       0.01063694       0.01838324       0.07302515
Ni       5.11340980       3.02203729       2.28484820        3       1.00000000      -0.24413100       0.17320206       0.06041961
Ni       7.77135559       3.02103542       2.28556547        3       1.00000000       0.09471501       0.13864937      -0.00632884
Ni      10.36571270       2.95075740       2.29796747        3       1.00000000       0.11529996      -0.01488092       0.17821103
Ni       3.90206058       5.19976279       2.23855865        3       1.00000000       0.13460856      -0.03646426       0.07429917
Ni       6.43166017       5.20806158       2.27712120        3       1.00000000      -0.08516449       0.15523407      -0.06049546
Ni       8.99814043       5.15020161       2.27904772        3       1.00000000      -0.09313642      -0.15929709       0.16900032
Pt      11.67951351       5.11724554       2.19607396        3       0.00000000       0.17423679      -0.10347580       0.02237767
Ni       5.16896213       7.40012775       2.25922537        3       1.00000000       0.09171726      -0.19696728       0.07205557
Ni       7.68234545       7.42878983       2.25960761        3       1.00000000      -0.21054991      -0.05588295       0.06343960
Pt      10.26558873       7.34260544       2.22618851        3       0.00000000       0.02087842      -0.04187118      -0.19262548
Ni      12.95000881       7.34485154       2.26622804        3       1.00000000       0.16357862      -0.25082250       0.04737315
Ni       0.04393195       1.48308423       4.40708247        2       1.00000000       0.11998332      -0.04134879      -0.04955826
Pt       2.59225832       1.50307213       4.36808632        2       0.00000000       0.02935643      -0.07761058      -0.05417117
Ni       5.14135720       1.51236278       4.42791540        2       1.00000000      -0.07607970       0.15706546      -0.07984061
Pt       7.80410017       1.52210500       4.41308908        2       0.00000000       0.04907232       0.05378850       0.16250853
Pt       1.31084341       3.70360057       4.46435735        2       0.00000000       0.03418466       0.00550157       0.00483437
Ni       3.88766822       3.74345848       4.43973296        2       1.00000000      -0.04412072       0.12651977      -0.12955587
Pt       6.41499513       3.79968183       4.35900422        2       0.00000000      -0.04235407      -0.07631923      -0.07173200
Ni       9.03632529       3.71331656       4.41511928        2       1.00000000      -0.07331641       0.02715059      -0.26441228
Ni       2.63209525       5.90506767       4.45116461        2       1.00000000       0.11758171      -0.20293929      -0.06298057
Ni       5.13976950       5.91275487       4.39496434        2       1.00000000      -0.07225246      -0.10463974      -0.25631746
Ni       7.71655621       5.91794999       4.39616297        2       1.00000000      -0.10845401       0.04960708      -0.25589443
Pt      10.30134997       5.84495189       4.45274850        2       0.00000000      -0.10983848      -0.04508998       0.02548370
Pt       3.95503053       8.07500248       4.36525287        2       0.00000000       0.01428527      -0.09779672       0.14519888
Ni       6.44216974       8.14737234       4.37850837        2       1.00000000      -0.02245690      -0.08065679      -0.19401846
Pt       8.94028213       8.14898019       4.35843697        2       0.00000000      -0.03957060      -0.05035462       0.06764146
Pt      11.64104176       8.09188707       4.40509346        2       0.00000000       0.10124966      -0.11857072       0.03415620
Pt       0.03286576      -0.00269846       6.62684403        1       0.00000000      -0.00741563       0.02438375       0.06821890
Pt       2.59217078       0.04249718       6.67250480        1       0.00000000      -0.00167493       0.05943840       0.21022299
Pt       5.17680735      -0.01834960       6.56160893        1       0.00000000       0.01340837       0.01207368      -0.41395368
Pt       7.78913456      -0.11916360       6.61118064        1       0.00000000      -0.04285446      -0.04194637      -0.18585858
Ni       1.33571365       2.27733163       6.61410558        1       1.00000000       0.15405362       0.15736297      -0.04757037
Ni       3.85854819       2.28178529       6.54336153        1       1.00000000      -0.13703645       0.24394073      -0.26217995
Pt       6.41008717       2.30271202       6.57366523        1       0.00000000      -0.07980319       0.19194696      -0.20866403
Pt       9.13507705       2.30361655       6.56733119        1       0.00000000       0.06968753       0.17301815      -0.18243961
Ni       2.60466947       4.46920951       6.60540657        1       1.00000000       0.06930197       0.04348809      -0.16052536
Ni       5.10666874       4.45241512       6.60178095        1       1.00000000      -0.34572933       0.04275193      -0.18163668
Ni       7.75863965       4.43829866       6.54913367        1       1.00000000      -0.03268562       0.02581632      -0.31453298
Ni      10.39757130       4.43325398       6.65051602        1       1.00000000       0.26481357       0.09203845      -0.04787960
Ni       3.84380255       6.61159564       6.59665618        1       1.00000000      -0.09853991      -0.22750528      -0.15756591
Pt       6.40026938       6.58829905       6.51523045        1       0.00000000      -0.11427974      -0.07307428      -0.15787273
Pt       9.06653208       6.57537535       6.68147843        1       0.00000000       0.00079721      -0.05197534       0.15832670
Ni      11.66379940       6.58670300       6.64667443        1       1.00000000       0.09632889      -0.21075126      -0.16651873
