64
Lattice="10.316770125146673 0.00608251791258436 -0.006849522744534594 5.163652677604608 8.870731288971431 -0.029665170010819333 -0.005592611901899197 -0.02473969451923492 8.794182323829906" Properties=species:S:1:pos:R:3:tags:I:1:initial_magmoms:R:1:forces:R:3 unique_id=85617d5e272d4198a7d1e2d27141103f stress="0.0002371058061861192 3.6409002478523954e-06 -1.2309243281867081e-05 3.6409002478523954e-06 0.00024362028748270426 4.2019959693213785e-06 -1.2309243281867081e-05 4.2019959693213785e-06 0.00023537487108360455" energy=-397.1448549124283 pbc="T T T"
Ni       0.00959502      -0.00568590       0.18587668        4       1.00000000      -0.01439912       0.00223939       0.32558228
Ni       2.57680634       0.00421565       0.21249476        4       1.00000000       0.02571991      -0.00065532       0.39139713
Ni       5.15115895      -0.01445453       0.16224677        4       1.00000000      -0.05923203       0.10962616       0.25653564
Ni       7.73160501      -0.05829513       0.18227941        4       1.00000000      -0.02797343      -0.12682465       0.38172881
Ni       1.30016993       2.22366938       0.10036447        4       1.00000000       0.02497954       0.04410030       0.22333187
Pt       3.80406575       2.23059165       0.18479439        4       0.00000000      -0.00683466       0.04789162       0.15852909
Pt       6.43334201       2.17771246       0.10576224        4       0.00000000       0.04417263      -0.01694724      -0.04504460
Pt       9.11493736       2.22174346       0.10858443        4       0.00000000       0.11857570      -0.05816146       0.13324052
Ni       2.57578062       4.46337149       0.05924033        4       1.00000000       0.06468918       0.07795814       0.01910372
Ni       5.12278765       4.45964726       0.17078240        4       1.00000000      -0.04692930       0.02855824       0.35983421
Pt       7.77832078       4.48754022       0.08750566        4       0.00000000       0.02998060       0.05692660      -0.06147798
Ni      10.36466283       4.46798473       0.05371089        4       1.00000000       0.11885361       0.08467698       0.12780226
Ni       3.83435307       6.64698030       0.09135255        4       1.00000000      -0.09776485      -0.06012179       0.21368392
Pt       6.41338227       6.70446085       0.16718469        4       0.00000000      -0.09434494      -0.00088099       0.09133792
Ni       9.05470765       6.67352225       0.04943712        4       1.00000000      -0.02778214       0.03957490       0.01245128
Ni      11.63358246       6.65099968       0.03905716        4       1.00000000       0.11925312      -0.04045491      -0.00731367
Ni       1.30212987       0.75330422       2.16056567        3       1.00000000      -0.03926563       0.10505026      -0.10882647
Ni       3.85942319       0.75081853       2.20845162        3       1.00000000       0.06712086       0.05912739       0.06011425
Ni       6.43470294       0.76707644       2.22223606        3       1.00000000      -0.05210525       0.13991353       0.12274111
Pt       9.03046531       0.73289000       2.23915818        3       0.00000000      -0.01493845       0.16828039      -0.00463400
Ni       2.57468716       2.95936063       2.21655064        3       1.00000000       0.02948193       0.12019089      -0.02385882
Ni       5.14524923       2.97163975       2.23817511        3       1.00000000      -0.12444820       0.01510617       0.03712939
Ni       7.73758294       2.97452382       2.23704627        3       1.00000000       0.09918038       0.01878303      -0.07946471
Ni      10.33948256       2.95876459       2.23825374        3       1.00000000       0.04695293      -0.00779859       0.13167360
Ni       3.90162421       5.16462897       2.20072829        3       1.00000000       0.05585274      -0.04157412       0.08938526
Ni       6.43073380       5.16951342       2.22407695        3       1.00000000      -0.02540763       0.08048106       0.00186731
Ni       9.00655374       5.15176711       2.21402652        3       1.00000000      -0.01740661      -0.09088611       0.09641532
Pt      11.65984707       5.11982901       2.15719773        3       0.00000000       0.09260890      -0.03803053       0.04823878
Ni       5.13176171       7.34482799       2.18280291        3       1.00000000      -0.18748800      -0.20374721      -0.04570267
Ni       7.73797189       7.38076073       2.17370632        3       1.00000000       0.03661826      -0.14094976      -0.07381800
Pt      10.30332097       7.39472386       2.08442978        3       0.00000000       0.02197030      -0.15059820      -0.05022294
Ni      12.92496909       7.35775342       2.13401961        3       1.00000000       0.05220006      -0.18167204      -0.02810436
Ni      -0.00471894       1.52599447       4.33664226        2       1.00000000      -0.01432022       0.08681801      -0.10153108
Pt       2.53860914       1.56501027       4.25656007        2       0.00000000       0.04298357       0.01523608       0.03316319
Ni       5.17280689       1.50304674       4.32455770        2       1.00000000      -0.07189899       0.04863599      -0.14538195
Ni       7.73376013       1.50039626       4.33254628        2       1.00000000      -0.00234382      -0.02463184      -0.10646829
Ni       1.28826344       3.68170077       4.38266789        2       1.00000000      -0.00420197       0.00263634      -0.03594193
Ni       3.85332210       3.74133376       4.30478182        2       1.00000000      -0.03332165       0.06273771      -0.19695033
Pt       6.46337536       3.68367759       4.28583865        2       0.00000000      -0.07221617       0.01558758       0.03307796
Ni       9.03055460       3.67827301       4.29745025        2       1.00000000      -0.00168322      -0.09996264      -0.35589294
Ni       2.60639568       5.83757952       4.37566339        2       1.00000000       0.00145801      -0.15595660      -0.06907580
Ni       5.12740611       5.85795772       4.29777934        2       1.00000000      -0.00576068      -0.13369470      -0.18747128
Ni       7.74771105       5.85355693       4.31199296        2       1.00000000       0.02278367      -0.06069541      -0.24664620
Pt      10.31744124       5.80159043       4.40420467        2       0.00000000       0.01131585       0.00061682      -0.05995115
Pt       3.87052326       8.05166854       4.31332076        2       0.00000000      -0.03686549      -0.15868163       0.19463348
Pt       6.43218879       8.09020612       4.20522798        2       0.00000000      -0.06305163      -0.04613764      -0.02895133
Pt       9.01323322       8.11374770       4.29395642        2       0.00000000      -0.02864628       0.04535828       0.08509631
Pt      11.62778019       8.13427155       4.26688775        2       0.00000000       0.05069058       0.01507587       0.03662712
Pt      -0.00256798       0.00462864       6.57561714        1       0.00000000       0.03978669       0.07069459       0.11546658
Pt       2.57251913      -0.01092852       6.60537235        1       0.00000000      -0.00252000       0.05750027       0.23158991
Pt       5.16797428      -0.05699445       6.57996005        1       0.00000000       0.04928173      -0.09775562       0.06095675
Pt       7.72691580      -0.04384824       6.58721703        1       0.00000000      -0.05015974      -0.02073530       0.17937640
Ni       1.27353739       2.27272773       6.50027261        1       1.00000000      -0.03143131       0.20705766      -0.17988015
Pt       3.83730250       2.25754678       6.45185292        1       0.00000000      -0.09823867       0.06258908      -0.26180155
Ni       6.46023192       2.22014984       6.42706849        1       1.00000000      -0.00998573       0.03467224      -0.26624851
Pt       9.03149605       2.30920362       6.38869528        1       0.00000000      -0.01459203       0.11746073      -0.35057771
Ni       2.52286368       4.45334468       6.48384012        1       1.00000000      -0.13330941       0.05816779      -0.23340970
Pt       5.12021490       4.43831070       6.51333926        1       0.00000000      -0.04965089       0.05951919       0.11933237
Ni       7.77179550       4.43064995       6.41653340        1       1.00000000       0.07207877       0.08209653      -0.30616017
Ni      10.34637748       4.43629059       6.50616587        1       1.00000000       0.11103584       0.02078977      -0.05331078
Ni       3.81923842       6.59262992       6.49724935        1       1.00000000      -0.10849626      -0.08150693      -0.10366472
Pt       6.48686218       6.58173445       6.43239530        1       0.00000000       0.07456467       0.03772832      -0.28982395
Ni       9.05788894       6.56931718       6.50636176        1       1.00000000       0.07911123      -0.16389971      -0.13568725
Ni      11.61946947       6.57174327       6.51124397        1       1.00000000       0.06571314      -0.09650298      -0.12814874
