64
Lattice="9.926704275728282 0.013815159232904241 -0.03904410336474013 4.975316416717165 8.595797823571589 0.004307642948765994 -0.031879376902699055 0.02246685155637487 8.492150292659364" Properties=species:S:1:pos:R:3:tags:I:1:initial_magmoms:R:1:forces:R:3 unique_id=9e77477f105741fc8b61524035743ae6 stress="0.00037707819439108253 -5.403704296021177e-07 4.2488008189130025e-06 -5.403704296021177e-07 0.0003721335422065958 -4.3598031029952914e-07 4.2488008189130025e-06 -4.3598031029952914e-07 0.00034765176948052534" energy=-380.64015463550993 pbc="T T T"
Ni      -0.03063679       0.04908551       0.10542056        4       1.00000000      -0.05170723       0.07981292       0.06497545
Ni       2.50021267       0.05181847       0.10232594        4       1.00000000       0.00104490       0.05560607       0.08563994
Ni       4.96212618       0.03013151       0.09006526        4       1.00000000      -0.02375343       0.10044497       0.02520429
Ni       7.43925358       0.02842618       0.07910140        4       1.00000000      -0.03575950       0.07609416       0.07317581
Ni       1.23890390       2.15215739       0.10038557        4       1.00000000      -0.01491415       0.02461948       0.03377318
Ni       3.72680868       2.15122045       0.09335343        4       1.00000000       0.00576140      -0.01386989       0.02317533
Ni       6.20059008       2.15257111       0.08178240        4       1.00000000      -0.05077742      -0.01973840      -0.00513073
Ni       8.67995716       2.15785726       0.07993534        4       1.00000000      -0.06062402      -0.01313071       0.08222155
Ni       2.50992287       4.27640929       0.05766598        4       1.00000000      -0.00337092      -0.03766421      -0.09590075
Ni       4.94877649       4.26040202       0.10027146        4       1.00000000       0.01838710      -0.05120936       0.06457819
Ni       7.46139503       4.26196691       0.08980120        4       1.00000000      -0.04558873      -0.04707391       0.04019151
Ni       9.90430515       4.28483884       0.05190518        4       1.00000000      -0.06544514      -0.02435900       0.01074359
Ni       3.68312918       6.45900701       0.11564445        4       1.00000000      -0.09410895       0.05945897       0.12154344
Pt       6.20596262       6.45825534       0.07263797        4       0.00000000      -0.02000883       0.03595103      -0.01312458
Ni       8.72932005       6.46755630       0.20533488        4       1.00000000       0.02448334       0.06946019       0.39446854
Ni      11.17252649       6.51049239       0.15804400        4       1.00000000      -0.04742336       0.14182823       0.36975936
Ni       1.23736685       0.72423672       2.14098347        3       1.00000000       0.01639563      -0.00335200       0.02248005
Ni       3.71802434       0.73787696       2.13268370        3       1.00000000       0.01604562       0.03778286       0.04352237
Ni       6.19659396       0.74102022       2.11730510        3       1.00000000      -0.00983062       0.04362502       0.02359517
Ni       8.67458362       0.73780741       2.11214948        3       1.00000000      -0.02119103       0.04233021       0.09250367
Ni       2.50917266       2.81609929       2.13566886        3       1.00000000       0.04221316      -0.08483632       0.00450961
Ni       4.95905180       2.85779017       2.12967397        3       1.00000000      -0.00473457      -0.06162214       0.03643118
Ni       7.41474686       2.84895276       2.08372727        3       1.00000000      -0.06785481      -0.09819887       0.00250417
Ni       9.91654878       2.82389093       2.08094517        3       1.00000000       0.02635976      -0.09538730       0.01089668
Ni       3.75907174       5.00179512       2.10184465        3       1.00000000       0.02487364      -0.07338802      -0.10982856
Ni       6.21220458       4.98222918       2.13404304        3       1.00000000       0.03527538      -0.04639923      -0.09905648
Ni       8.63391555       5.01542007       2.07966925        3       1.00000000      -0.00575554      -0.06143390       0.03712661
Pt      11.20516852       4.99126443       2.07238970        3       0.00000000       0.00850814      -0.04015453      -0.06856969
Ni       4.94697235       7.21339918       2.14825108        3       1.00000000       0.03719287       0.09052395      -0.07148504
Ni       7.45498593       7.20777057       2.17394720        3       1.00000000      -0.05970795       0.03736206       0.04573903
Ni       9.91961094       7.25671746       2.10778290        3       1.00000000       0.05827955       0.11498276       0.16276221
Ni      12.43609293       7.23251275       2.12539731        3       1.00000000       0.00752199       0.03160320       0.15587825
Ni       0.01472757       1.39318367       4.22551001        2       1.00000000       0.01744075      -0.02984837      -0.07482266
Ni       2.47349671       1.44778659       4.21113886        2       1.00000000       0.00541876       0.01474584      -0.10548768
Ni       4.94273952       1.45644471       4.19878420        2       1.00000000      -0.02876285      -0.00464508      -0.10569086
Ni       7.39947609       1.40842409       4.19112167        2       1.00000000      -0.01723427       0.02360728      -0.09833486
Ni       1.28120996       3.53148914       4.25076341        2       1.00000000      -0.01236953      -0.06945874      -0.06321685
Ni       3.70095729       3.54353430       4.21299009        2       1.00000000      -0.00532371      -0.05059833      -0.14522453
Ni       6.15056075       3.54588364       4.20458804        2       1.00000000      -0.03223999      -0.08658420      -0.09354485
Pt       8.64426714       3.52912606       4.18485267        2       0.00000000      -0.03332812      -0.08003949       0.01566940
Ni       2.50512341       5.73644352       4.21900456        2       1.00000000      -0.05834921       0.02683148       0.02328033
Pt       4.94325203       5.73655424       4.18661183        2       0.00000000       0.01611985      -0.02556989      -0.01791431
Ni       7.40591639       5.76433483       4.16673056        2       1.00000000       0.01325942       0.01131673      -0.02178541
Pt       9.91508497       5.79720064       4.15619632        2       0.00000000      -0.02179098       0.12122820       0.20564764
Ni       3.70615583       7.93227011       4.23039088        2       1.00000000       0.01411037       0.00516686      -0.01953225
Ni       6.21434194       7.94028490       4.21008059        2       1.00000000       0.00570032      -0.00553003      -0.08583290
Ni       8.65595657       7.97746601       4.18426941        2       1.00000000      -0.00911545       0.04734704       0.04791000
Ni      11.18186778       7.96897797       4.17297923        2       1.00000000      -0.02130050      -0.01658581       0.00951353
Ni      -0.01783302       0.02487263       6.26535591        1       1.00000000       0.05381397       0.00700666      -0.05009762
Ni       2.42898717       0.08459378       6.25098374        1       1.00000000      -0.02158289       0.07535107      -0.07635576
Ni       4.94377006       0.09491452       6.24559176        1       1.00000000       0.02982963       0.04683405      -0.10603860
Ni       7.45971370       0.08256220       6.24066636        1       1.00000000       0.07192140       0.02991882      -0.05308439
Ni       1.22961903       2.15069756       6.27180999        1       1.00000000       0.01004978      -0.02230671      -0.04914393
Ni       3.70564635       2.16515010       6.25705493        1       1.00000000       0.02863852      -0.03276647      -0.07218136
Ni       6.18142397       2.16569490       6.25002014        1       1.00000000       0.01543092      -0.03842639      -0.08282741
Ni       8.67127942       2.13453757       6.28152638        1       1.00000000       0.06256670      -0.04148048      -0.00597438
Ni       2.50389964       4.25488444       6.26138052        1       1.00000000       0.07607183      -0.04931008      -0.20471251
Ni       4.94170273       4.27691051       6.28633006        1       1.00000000      -0.00426917      -0.07843498      -0.05112741
Ni       7.38170254       4.27216417       6.27609592        1       1.00000000      -0.06044973      -0.05609794      -0.08441248
Ni       9.93165033       4.25483200       6.27611246        1       1.00000000       0.06524851      -0.06318649      -0.09235631
Ni       3.76534970       6.47155411       6.29937078        1       1.00000000       0.09206786       0.00850946      -0.01267391
Ni       6.15045512       6.48302240       6.19802998        1       1.00000000       0.01657952       0.04351848      -0.31881501
Pt       8.59847095       6.49097278       6.34194929        1       0.00000000      -0.08128626       0.01544520       0.16753189
Pt      11.24702085       6.49536000       6.32673482        1       0.00000000       0.17334830       0.00437398       0.05733206
