64
Lattice="10.284613539092376 -0.020437842104723512 0.036491099197003746 5.124607079084963 8.824901936418456 -0.04409293041694244 0.0 0.0 21.563906116404567" Properties=species:S:1:pos:R:3:tags:I:1:initial_magmoms:R:1:forces:R:3 unique_id=c2fbf30aeebb48559eafb2ef7e5996b2 stress="0.00571637204025058 -0.00011203236447462336 0.0001215362218238657 -0.00011203236447462336 0.005166465397449041 -0.0003114440705718539 0.0001215362218238657 -0.0003114440705718539 -0.0014698285256157795" energy=-374.0626981745842 pbc="T T T"
Ni       0.02159937      -0.01549703       0.13146968        1       1.00000000       0.09072863      -0.00060886      -0.14217448
Ni       2.53474863       0.00271295       0.17352506        2       1.00000000      -0.08384375       0.02539535      -0.13287015
Pt       5.11341623      -0.07504620       0.09513101        1       0.00000000      -0.15088174       0.14864320      -1.10095324
Ni       7.74706178      -0.08278998       0.16324811        2       1.00000000       0.00153854      -0.10771383      -0.24232136
Ni       1.28980419       2.20788229       0.05435547        1       1.00000000      -0.03301198       0.03895836       0.36260826
Pt       3.76771932       2.25370391       0.05473976        1       0.00000000       0.08933445      -0.09264526       0.03248076
Pt       6.41707421       2.22148434       0.01840488        0       0.00000000       0.05428632       0.01369912      -0.25082455
Pt       9.08793983       2.18114453       0.09977176        1       0.00000000      -0.04218331       0.11522784      -0.49976110
Ni       2.55961788       4.44153369       0.00000000        0       1.00000000       0.03972462       0.06039264       0.33272254
Ni       5.08866653       4.44083818       0.04721076        0       1.00000000      -0.10255935       0.13027953       0.33190693
Pt       7.74874475       4.45445748       0.06075695        1       0.00000000       0.05323415       0.01659293      -0.05996144
Ni      10.33341713       4.41524437       0.04185640        0       1.00000000       0.08874978       0.01146184       0.28798617
Ni       3.81033586       6.59905542       0.03131389        0       1.00000000      -0.01308241      -0.04084489       0.42229093
Pt       6.36621066       6.65467336       0.11503257        1       0.00000000      -0.05802630       0.05557364      -0.34218325
Ni       8.99328398       6.58257942       0.09433995        1       1.00000000      -0.10543351      -0.00870137      -0.29752594
Ni      11.59930112       6.55858366       0.02617810        0       1.00000000       0.07295204       0.01536493       0.24706607
Ni       1.31773703       0.71977007       2.16038037        4       1.00000000       0.03784167       0.00688135       0.09940605
Ni       3.81252499       0.74357717       2.18656827        4       1.00000000      -0.00191533       0.03818561       0.18808432
Pt       6.43005668       0.77846392       2.25886904        5       0.00000000      -0.07687748       0.17907631       0.09135253
Pt       9.08202500       0.69429690       2.24118219        4       0.00000000       0.05948285       0.08420809       0.06315440
Ni       2.57175537       2.92007570       2.17764593        4       1.00000000       0.06740065      -0.00771812       0.08566269
Ni       5.10289596       2.97762495       2.19666086        4       1.00000000      -0.11171993       0.12284631       0.10209885
Ni       7.73689793       2.97042489       2.22675907        4       1.00000000       0.08911905       0.08035660       0.20528054
Ni      10.31340328       2.91625759       2.23541509        4       1.00000000       0.06486149      -0.05782469       0.24350137
Ni       3.88574761       5.12589712       2.15156848        4       1.00000000       0.10660216      -0.04564117       0.06845584
Ni       6.40483001       5.13022651       2.19960946        4       1.00000000      -0.05797472      -0.00159126       0.14213003
Ni       8.96986106       5.08154287       2.21235917        4       1.00000000      -0.07930707      -0.23348871       0.27825839
Pt      11.61862733       5.04134232       2.18691198        4       0.00000000       0.18842889      -0.13679962       0.06554406
Ni       5.14373454       7.30049841       2.16789188        4       1.00000000       0.04576432      -0.16875427       0.17486537
Ni       7.65755680       7.32860368       2.16333281        4       1.00000000      -0.12832402      -0.06771928       0.20348790
Pt      10.23723582       7.23201676       2.14751731        3       0.00000000       0.01979817      -0.14962960      -0.06240685
Ni      12.89169180       7.27149162       2.12142406        3       1.00000000       0.10997644      -0.13756615       0.03473065
Ni       0.03035567       1.49144360       4.29274463        7       1.00000000       0.03122396       0.08310472      -0.14588640
Pt       2.54529665       1.53517594       4.27007252        7       0.00000000      -0.05078200       0.05557548       0.02419872
Ni       5.13629974       1.48874674       4.33619161        7       1.00000000      -0.15370250       0.09437297      -0.21587072
Ni       7.73385435       1.46452443       4.34511349        7       1.00000000       0.03748069      -0.01567924      -0.20747609
Ni       1.27471033       3.68116316       4.33447122        7       1.00000000      -0.05113480       0.05884223      -0.03701816
Ni       3.85390941       3.69153733       4.32432502        7       1.00000000      -0.04283976       0.14962259      -0.19680204
Pt       6.42095307       3.66182063       4.30135804        7       0.00000000      -0.01871388       0.05214368      -0.15713966
Ni       9.03524809       3.67063195       4.28494129        7       1.00000000       0.05012283       0.06610339      -0.31082170
Ni       2.59252097       5.78000809       4.33053716        7       1.00000000       0.06958077      -0.23529546      -0.03529295
Ni       5.11949883       5.80997048       4.25885964        7       1.00000000      -0.01772512      -0.17082458      -0.30331025
Ni       7.71788538       5.80714715       4.25825892        7       1.00000000       0.00290836      -0.03992612      -0.38918525
Ni      10.29720491       5.75430310       4.33332083        7       1.00000000      -0.02112752      -0.14399374      -0.11367203
Pt       3.91964245       7.98785825       4.24920222        6       0.00000000       0.09010208      -0.12752425       0.12498917
Ni       6.42034985       8.03721344       4.23601355        6       1.00000000      -0.05740520      -0.01164810      -0.31462753
Pt       8.91870253       8.02114855       4.23694561        6       0.00000000      -0.12469365       0.02900556      -0.07137016
Pt      11.59799792       7.97152418       4.28531616        7       0.00000000      -0.03467898      -0.23887171       0.07710303
Pt       0.02581995      -0.01666578       6.50885851        9       0.00000000       0.08979852       0.14410725       0.31676263
Pt       2.58166874       0.02687643       6.54430328        9       0.00000000      -0.01536355      -0.05414914       0.33523398
Pt       5.15766488       0.02827063       6.43251618        8       0.00000000      -0.03328232       0.20558756       1.08892441
Pt       7.72972345      -0.08788275       6.56390612       10       0.00000000      -0.01589275       0.23906336       0.40957993
Ni       1.31925390       2.25406154       6.45494253        9       1.00000000       0.03658762       0.18052905      -0.24263375
Ni       3.86979623       2.25336802       6.38910026        8       1.00000000      -0.01966410       0.15131712      -0.03002846
Ni       6.42173873       2.21310701       6.38327333        8       1.00000000      -0.03276278       0.01022377       0.20634491
Pt       9.02571949       2.26101690       6.37278878        8       0.00000000      -0.00501638      -0.00633815       0.52567563
Ni       2.58129059       4.38117171       6.42623020        8       1.00000000       0.04442917      -0.08289857      -0.48621878
Ni       5.10122132       4.33393603       6.45043648        9       1.00000000      -0.15653662      -0.02177489      -0.37070581
Ni       7.70618165       4.34296247       6.39139340        8       1.00000000      -0.02855774       0.01909553       0.02626839
Ni      10.36362313       4.35682082       6.44930492        8       1.00000000       0.17435881      -0.00146047      -0.34332734
Ni       3.82481335       6.49925551       6.43696251        8       1.00000000      -0.03404477      -0.18208685      -0.31751899
Pt       6.38215083       6.47827548       6.35259387        8       0.00000000       0.05504478       0.01344307       0.33209635
Pt       9.06122661       6.45650849       6.46916164        9       0.00000000      -0.03616017      -0.01996540       0.11929444
Ni      11.61295406       6.48821680       6.46829899        9       1.00000000       0.03376367      -0.08559723      -0.22965779
