64
Lattice="10.18755390359047 0.01934383404512043 -0.041296500414201555 5.110529203484959 8.736601534650152 -0.09719936128759432 0.0 0.0 21.494129829164343" Properties=species:S:1:pos:R:3:tags:I:1:initial_magmoms:R:1:forces:R:3 unique_id=1a6bc9a7cb724ca0a8b496f1bc8343ed stress="0.002001348150543744 8.13572208067166e-06 -0.0002225357092953492 8.13572208067166e-06 0.0011109399040134024 -0.00023100191086812216 -0.0002225357092953492 -0.00023100191086812216 -0.00503554671433786" energy=-368.9530471915019 pbc="T T T"
Ni       0.03829600      -0.06294525       0.22044566        2       1.00000000       0.07626362      -0.02286690      -0.34228839
Ni       2.47844116      -0.03895381       0.22961283        2       1.00000000      -0.00983336      -0.01884288      -0.28049539
Pt       5.07832223      -0.06113725       0.16880346        2       0.00000000      -0.09160009       0.27231429      -1.25354367
Ni       7.66174547      -0.05625486       0.17905284        2       1.00000000      -0.06174693      -0.03904377      -0.43243813
Ni       1.27114913       2.19409493       0.12530072        1       1.00000000      -0.04578945       0.02780302       0.30701677
Pt       3.72693817       2.24738873       0.18462040        2       0.00000000       0.11729004      -0.06485883      -0.71735649
Pt       6.38058324       2.26523354       0.07687457        1       0.00000000      -0.05636545      -0.06350373      -0.26409739
Pt       8.99245722       2.24938813       0.09510966        1       0.00000000      -0.01344291       0.15083296      -0.77625682
Ni       2.52142828       4.41517544       0.08046696        1       1.00000000       0.02710617       0.02032717       0.37519912
Ni       5.08758220       4.45506728       0.07440054        1       1.00000000      -0.08385384       0.03254106       0.26277051
Ni       7.64217983       4.44857889       0.07275097        1       1.00000000       0.04904197      -0.00646893       0.21351255
Ni      10.23151851       4.42451680       0.05662867        1       1.00000000       0.00825277       0.04883636       0.35891391
Ni       3.83472187       6.52663475       0.06140767        1       1.00000000       0.02781362       0.01414019       0.29829408
Ni       6.36041044       6.53911478       0.05336845        1       1.00000000      -0.01998689       0.05259089       0.26915277
Ni       8.87419770       6.49527019       0.11143883        1       1.00000000      -0.09552122      -0.00951425      -0.29831291
Ni      11.51566596       6.49902988       0.00000000        0       1.00000000       0.03674294       0.03699686       0.17888400
Ni       1.29343318       0.72240008       2.21343066        4       1.00000000      -0.00185796       0.07424076       0.17959195
Ni       3.73665607       0.72618009       2.18791626        4       1.00000000      -0.15411354      -0.05285849       0.18395981
Ni       6.39086916       0.73028601       2.18911337        4       1.00000000       0.07792690       0.00774856       0.17743094
Pt       8.93861431       0.72929777       2.18800814        4       0.00000000       0.05492228      -0.08794689       0.16069894
Ni       2.49849708       2.92860946       2.24418855        4       1.00000000       0.00387652      -0.01657938       0.15230527
Ni       5.07258894       2.97687673       2.16875431        4       1.00000000      -0.01026067       0.12070618       0.06692972
Ni       7.65373996       2.96423501       2.18604707        4       1.00000000      -0.00005559       0.03278354       0.10340834
Ni      10.24083482       2.95890035       2.19509866        4       1.00000000       0.07246205       0.00901692       0.15091627
Ni       3.81614048       5.07875272       2.14326922        3       1.00000000      -0.01084646      -0.03088189       0.06949830
Ni       6.36465703       5.11166420       2.10235991        3       1.00000000      -0.00239916      -0.02790160       0.02798079
Ni       8.89273694       5.04036478       2.13169208        3       1.00000000      -0.00876568      -0.10889224       0.10864973
Ni      11.50338327       5.03213100       2.12345975        3       1.00000000       0.07756373      -0.11136178       0.16863632
Ni       5.13332366       7.20070423       2.08993462        3       1.00000000      -0.04487103      -0.07143187       0.09350658
Ni       7.57455648       7.23316882       2.07196754        3       1.00000000      -0.06131184      -0.08314104       0.11018327
Pt      10.23862032       7.15373818       2.12535693        3       0.00000000       0.05519383      -0.23538173       0.10450405
Ni      12.76131712       7.20126626       2.05419157        3       1.00000000       0.08146880      -0.11281862       0.07267653
Ni       0.04864986       1.46014701       4.28486751        7       1.00000000       0.12111576      -0.01343711      -0.11413857
Ni       2.46390964       1.47255327       4.24484972        6       1.00000000      -0.05189777       0.00654137      -0.13533065
Pt       5.08124135       1.45514917       4.17766291        6       0.00000000      -0.00128659      -0.03053882      -0.28376996
Ni       7.63892596       1.44422302       4.24804225        6       1.00000000      -0.02934794      -0.07200972      -0.24768706
Ni       1.26904232       3.61299526       4.28785693        7       1.00000000       0.04683519      -0.03569817      -0.07299468
Ni       3.75863074       3.69121062       4.22189322        6       1.00000000      -0.01269435       0.09557524      -0.18564254
Pt       6.38864807       3.69088722       4.24691789        6       0.00000000       0.02852648       0.00345230      -0.03183006
Ni       8.95902500       3.67026895       4.19086974        6       1.00000000       0.04166876       0.07643748      -0.17495704
Ni       2.51848254       5.72919017       4.25919192        7       1.00000000      -0.05054506      -0.03987537      -0.16132661
Ni       5.08385824       5.77974287       4.24695916        6       1.00000000       0.02893320      -0.01061879      -0.17152158
Ni       7.61738813       5.79090937       4.20112819        6       1.00000000      -0.02055584       0.02614501      -0.18231985
Ni      10.22723772       5.72377947       4.23793787        6       1.00000000       0.03268546       0.00486531      -0.08855127
Pt       3.82331417       7.88027689       4.19656318        6       0.00000000       0.00067091       0.02198241      -0.00314548
Ni       6.34040924       7.94782595       4.16409457        6       1.00000000      -0.08046639      -0.02858824      -0.19494154
Pt       8.82599279       7.93321973       4.14093964        5       0.00000000      -0.09012836       0.02857557      -0.11974628
Ni      11.48687397       7.91967972       4.17607908        6       1.00000000       0.00589700      -0.10138712      -0.18193430
Pt      -0.00736864      -0.09281631       6.49412983       11       0.00000000      -0.15664332       0.17935727       0.24383816
Pt       2.49829815      -0.03236450       6.48194497       11       0.00000000       0.19907144       0.12171582       0.29767779
Pt       5.09675730      -0.05266240       6.35211383       10       0.00000000      -0.08668928      -0.02200207       1.26193868
Pt       7.61605589      -0.08060639       6.45133682       11       0.00000000       0.09593162       0.19213933       0.40233667
Ni       1.25140751       2.20861908       6.38090177       10       1.00000000       0.04172554       0.02169600      -0.14357677
Pt       3.77459785       2.29298689       6.32876957        9       0.00000000      -0.12224022      -0.04903044       0.70256468
Ni       6.35472526       2.20372089       6.31394072        9       1.00000000       0.03798637      -0.00032081       0.36114900
Pt       8.91222559       2.26254014       6.24966964        8       0.00000000      -0.01461108      -0.18025585       0.80201390
Ni       2.50234717       4.38687079       6.36056819       10       1.00000000       0.05037457      -0.03727346      -0.32305935
Ni       5.08764658       4.39474570       6.37668871       10       1.00000000      -0.06065732       0.00134630      -0.21098876
Ni       7.56888586       4.33741083       6.38476465       10       1.00000000      -0.02332862      -0.02424228      -0.05139090
Ni      10.26038958       4.33294507       6.33316283        9       1.00000000       0.04668766       0.00341339      -0.24122582
Ni       3.81040686       6.41074176       6.36958209       10       1.00000000      -0.01011998      -0.02148909      -0.24139165
Ni       6.32826418       6.44133690       6.34065077        9       1.00000000       0.01601899       0.03812978      -0.27669710
Pt       8.90529700       6.36896206       6.38542979       10       0.00000000       0.04239098       0.02247678       0.12842832
Ni      11.48969647       6.44367401       6.30900405        9       1.00000000      -0.01861101       0.08633404      -0.19161068
