64
Lattice="10.635873840850115 0.0232248854454014 -0.019200562697641855 5.33805026122076 9.249787342150205 0.00807566491508851 0.0 0.0 21.8720542932914" Properties=species:S:1:pos:R:3:tags:I:1:initial_magmoms:R:1:forces:R:3 unique_id=400c2794db6a43bf9a58de053d01b9f4 stress="0.006994436395445678 0.00012489379871216615 -0.0001522034349252956 0.00012489379871216615 0.00726565981988612 2.548393106431176e-05 -0.0001522034349252956 2.548393106431176e-05 -0.0007328668918306219" energy=-394.80537708386146 pbc="T T T"
Pt       0.04529267       0.01166412       0.00509709        0       0.00000000       0.00047413      -0.02153105       0.02757018
Ni       2.66970502       0.02545694       0.13016871        1       1.00000000       0.02174566       0.02685364       0.12951718
Pt       5.22626503       0.06486518       0.03146476        0       0.00000000      -0.05600315       0.05553487       0.23180605
Pt       7.96054570       0.03057267       0.07743144        1       0.00000000      -0.07785570       0.06144483      -0.24219234
Pt       1.39355325       2.27877588       0.01305842        0       0.00000000      -0.01496082      -0.01425407       0.15901319
Ni       3.98215204       2.30164397       0.13765939        1       1.00000000      -0.00154776      -0.03830127       0.20283896
Pt       6.61290507       2.31834740       0.00000000        0       0.00000000       0.01044593      -0.04089812       0.05496008
Pt       9.32855258       2.33689319       0.01211993        0       0.00000000       0.06658870      -0.03445413       0.16328713
Pt       2.67506371       4.58884985       0.12542576        1       0.00000000      -0.06977507       0.06586631      -0.38222206
Pt       5.31598407       4.60353947       0.12900564        1       0.00000000       0.12169064       0.08607232      -0.38932965
Pt       7.98263623       4.64154687       0.11384740        1       0.00000000      -0.17073726       0.08280083      -0.34480698
Pt      10.65723233       4.62844575       0.04376840        0       0.00000000       0.12795389      -0.04099607       0.04956700
Pt       4.00711381       6.93927875       0.10817588        1       0.00000000       0.01723425      -0.02236369      -0.67739888
Pt       6.67887321       6.96204314       0.13079901        1       0.00000000       0.00052429      -0.16077880      -0.54001297
Pt       9.30846688       6.98739526       0.00361261        0       0.00000000      -0.01373083       0.03028596      -0.01139855
Pt      11.96001864       6.95226244       0.11268031        1       0.00000000      -0.06769758      -0.05585508      -0.36646762
Pt       1.34912973       0.81499580       2.33314888        2       0.00000000       0.04383030       0.03357983       0.18472599
Ni       3.97724152       0.79185229       2.28657389        2       1.00000000      -0.03292177       0.02627897       0.23085939
Pt       6.62079783       0.79184409       2.39038862        3       0.00000000       0.03089833       0.09896306       0.30064310
Pt       9.33854225       0.85935997       2.37933388        3       0.00000000       0.09559692       0.07988648       0.26134192
Pt       2.63456431       3.08599290       2.35002705        3       0.00000000      -0.06235134      -0.04444250       0.19636910
Pt       5.29749311       3.07067428       2.34855695        2       0.00000000       0.01318103      -0.14163661       0.25955962
Pt       8.00666895       3.11498698       2.38575816        3       0.00000000      -0.05460939      -0.01236385       0.21848993
Ni      10.65012659       3.12059041       2.33593626        2       1.00000000       0.04057693       0.02362193       0.24218266
Pt       3.98356575       5.36905880       2.37324316        3       0.00000000      -0.03869040       0.00288733       0.33388125
Ni       6.66379304       5.39941544       2.31227150        2       1.00000000       0.04518884      -0.03346067       0.42240733
Pt       9.36053873       5.37009271       2.35864871        3       0.00000000       0.10631935       0.04467601       0.19716227
Ni      11.95882964       5.38900512       2.31128426        2       1.00000000      -0.04798075      -0.06309540       0.37307348
Pt       5.34218924       7.70976377       2.35958299        3       0.00000000      -0.04397097       0.11256395       0.32047118
Pt       8.01662404       7.74220454       2.32817788        2       0.00000000       0.11267002       0.04676161       0.24208026
Pt      10.64130227       7.73792661       2.37160564        3       0.00000000      -0.07477531      -0.00689250       0.23341769
Pt      13.28027995       7.72011243       2.36319311        3       0.00000000       0.05023627       0.01686993       0.36544644
Ni      -0.04459921       1.58959051       4.63176524        5       1.00000000      -0.11682658       0.06319902      -0.08194883
Pt       2.65217133       1.59243984       4.58781891        5       0.00000000       0.04133900       0.08391020      -0.20192487
Pt       5.36188477       1.53878053       4.62313816        5       0.00000000       0.10194388      -0.01095911      -0.08248495
Ni       8.00593007       1.59339137       4.59982097        5       1.00000000       0.12039262       0.16040507      -0.21138696
Pt       1.23276984       3.80606793       4.57450133        5       0.00000000      -0.18940142      -0.13717712      -0.23177477
Ni       3.98469907       3.84829021       4.58640976        5       1.00000000      -0.00681949      -0.06294004      -0.29242519
Pt       6.69234577       3.81479503       4.56841664        5       0.00000000       0.04041029      -0.13595855      -0.23699551
Ni       9.32632010       3.81274519       4.59428578        5       1.00000000       0.02837301      -0.22531091      -0.20602469
Pt       2.63417518       6.15313404       4.56087928        5       0.00000000      -0.03748750      -0.07529400      -0.35099505
Pt       5.32777366       6.13883472       4.54598034        4       0.00000000      -0.03270711      -0.03085721      -0.35994031
Pt       7.99926014       6.15248653       4.55549138        5       0.00000000       0.02213796       0.02946320      -0.39770342
Pt      10.63184627       6.15032901       4.59282863        5       0.00000000      -0.11979816      -0.13969133      -0.15757949
Pt       3.96741173       8.58080894       4.60441154        5       0.00000000       0.00593379       0.09655626      -0.23561040
Pt       6.62940912       8.55546491       4.61067562        5       0.00000000      -0.06394962       0.13760099      -0.22037361
Pt       9.36031331       8.51039165       4.62444577        5       0.00000000       0.01601040      -0.03955572      -0.17702991
Ni      11.97886289       8.51936089       4.59990894        5       1.00000000       0.00466157      -0.00039181      -0.31867089
Ni      -0.01277330       0.05843544       6.75134385        7       1.00000000      -0.00923527       0.17301367      -0.19510432
Pt       2.65148334       0.03200126       6.87205429        8       0.00000000      -0.01969247       0.03275118       0.02417119
Ni       5.31277595       0.02614279       6.75998781        7       1.00000000       0.04986562      -0.01060274      -0.08405255
Pt       7.93603597       0.13935882       6.71869799        6       0.00000000      -0.13549658       0.16163784       0.31056007
Ni       1.27797280       2.31227608       6.75345932        7       1.00000000      -0.18756319      -0.08662852      -0.33133053
Pt       4.00872065       2.29429441       6.85141807        8       0.00000000       0.00150641       0.05789299      -0.05163088
Ni       6.65963238       2.32456663       6.74407254        6       1.00000000       0.12941211       0.02441900      -0.10991634
Ni       9.32821872       2.33467205       6.70784082        6       1.00000000       0.08887805      -0.00427508      -0.51540183
Pt       2.59913307       4.58889216       6.76377042        7       0.00000000       0.03151985      -0.05726250       0.33739391
Pt       5.33514443       4.59738234       6.76444576        7       0.00000000      -0.02884200      -0.09430221       0.45470787
Pt       8.07676952       4.58104371       6.75691282        7       0.00000000       0.24817499      -0.13837605       0.31515257
Ni      10.62495491       4.62764446       6.74685682        6       1.00000000      -0.04339440      -0.11649269      -0.30406932
Pt       3.98846429       6.99651634       6.77796049        7       0.00000000      -0.08484221       0.09995225       0.63238178
Pt       6.68712644       6.96540543       6.78758741        7       0.00000000       0.09457303      -0.06447053       0.53645853
Ni       9.31815544       6.95540371       6.76070302        7       1.00000000      -0.05687081      -0.05660762      -0.04805782
Pt      11.89169101       7.00099987       6.75371836        7       0.00000000       0.03024687       0.20272801       0.34476420
