64
Lattice="10.362704818165453 -0.03662300536179561 0.012838128365235294 5.149635956076479 8.917503827437152 -0.06824289062749822 0.010482287915725929 -0.07039196605716937 8.85003592511295" Properties=species:S:1:pos:R:3:tags:I:1:initial_magmoms:R:1:forces:R:3 unique_id=19908f474e924f5ebdf447f55afbf25a stress="0.0003306544405629261 6.301791771077202e-07 -1.239743285135007e-05 6.301791771077202e-07 0.00033435045520548157 1.807930067607934e-05 -1.239743285135007e-05 1.807930067607934e-05 0.00031385835305315635" energy=-399.88330571300503 pbc="T T T"
Ni       0.01099976       0.00997617       0.17250652        4       1.00000000       0.08334563      -0.00860429       0.22476215
Ni       2.55609187      -0.00486205       0.20296047        4       1.00000000      -0.09776405       0.03831593       0.40418051
Pt       5.15343848      -0.07434710       0.13015876        4       0.00000000      -0.01257936      -0.03034216       0.29687482
Ni       7.80733199      -0.07354709       0.18400835        4       1.00000000       0.03244369      -0.14506299       0.36428148
Ni       1.25422652       2.22824071       0.08773507        4       1.00000000      -0.14957100      -0.01135104       0.25050940
Pt       3.79018028       2.26428921       0.10267791        4       0.00000000      -0.09760013       0.04778400      -0.09319288
Pt       6.50381329       2.22869030       0.13519088        4       0.00000000       0.04057283       0.01434405       0.17713586
Ni       9.10675447       2.19461094       0.14592828        4       1.00000000       0.11085089       0.03229310       0.15762959
Ni       2.57009395       4.47102283       0.03801362        4       1.00000000       0.07835319       0.02964645       0.02064099
Ni       5.13119780       4.46853280       0.14963610        4       1.00000000      -0.05208694       0.07042112       0.33177535
Pt       7.83966151       4.45878213       0.08178632        4       0.00000000       0.12657932      -0.00887583      -0.09423044
Ni      10.37669915       4.41364942       0.04809067        4       1.00000000       0.13008612      -0.12413618       0.12330534
Ni       3.83513358       6.67465279       0.13840836        4       1.00000000      -0.04830664      -0.08769893       0.30884917
Pt       6.42373187       6.70884253       0.14456263        4       0.00000000      -0.08059299      -0.04432444       0.03290519
Ni       9.05087309       6.64103504       0.02827077        4       1.00000000       0.00928473      -0.06605029       0.09042600
Ni      11.66222412       6.62053198       0.03036718        4       1.00000000       0.11249609      -0.10283708       0.06227861
Ni       1.31573642       0.73941350       2.18128583        3       1.00000000       0.05102850       0.12277899      -0.04403103
Ni       3.84318376       0.74253725       2.22217499        3       1.00000000       0.02220195       0.04774112      -0.03305381
Pt       6.47900373       0.76307776       2.30342655        3       0.00000000      -0.09274233       0.16801045      -0.07491716
Pt       9.13761348       0.73116176       2.20128760        3       0.00000000       0.03062272       0.10259175       0.14059292
Ni       2.58503132       2.94297580       2.20729893        3       1.00000000      -0.00208687       0.00920074       0.04456090
Ni       5.13086820       2.99146716       2.22836402        3       1.00000000      -0.19090552       0.08538360      -0.02009189
Ni       7.80949057       2.98035487       2.24056906        3       1.00000000       0.19413630       0.08419953      -0.03618799
Ni      10.35774696       2.92287179       2.19420713        3       1.00000000       0.08355496       0.06262427       0.03193937
Ni       3.90256446       5.17861918       2.18963253        3       1.00000000       0.08050195      -0.03529104       0.11006040
Ni       6.44454654       5.17524110       2.21217840        3       1.00000000      -0.03608306       0.10950570      -0.05433774
Ni       9.02314483       5.12711787       2.21613488        3       1.00000000      -0.04600013      -0.18306113       0.18080693
Pt      11.69974449       5.09549560       2.12877364        3       0.00000000       0.12699107      -0.11099085       0.02203677
Ni       5.13918886       7.37547134       2.16133845        3       1.00000000      -0.11442451      -0.16883604      -0.06114065
Ni       7.73093542       7.39421005       2.15783454        3       1.00000000      -0.02146983      -0.12292669      -0.11333881
Pt      10.29186088       7.30962043       2.13789639        3       0.00000000       0.05087632      -0.10932608      -0.21900592
Ni      12.96772176       7.34661105       2.13267217        3       1.00000000       0.01969274      -0.10209160      -0.03314852
Ni      -0.01253634       1.48543302       4.36692492        2       1.00000000       0.02825113       0.03019673      -0.10069072
Pt       2.61773507       1.50129402       4.33013513        2       0.00000000      -0.02028734      -0.02199309      -0.09581503
Ni       5.16454543       1.48106028       4.37411669        2       1.00000000      -0.05371817       0.13366309      -0.08302835
Ni       7.80922919       1.46610041       4.37700121        2       1.00000000       0.16862440       0.07872324      -0.03115372
Pt       1.28360433       3.67558430       4.40513583        2       0.00000000      -0.03956062      -0.05667129      -0.06389198
Ni       3.88739363       3.70524810       4.34155985        2       1.00000000      -0.00007255       0.11529474      -0.24971394
Pt       6.48146349       3.70279151       4.25765473        2       0.00000000      -0.08012641      -0.04955161      -0.00381790
Ni       9.04162391       3.63922609       4.35071956        2       1.00000000      -0.02160396      -0.09955115      -0.28762911
Ni       2.60211679       5.86923900       4.34203488        2       1.00000000       0.06980725      -0.14121441      -0.17601244
Ni       5.14206771       5.86277246       4.29842771        2       1.00000000      -0.08050594      -0.07495830      -0.19584536
Ni       7.75955712       5.84979134       4.32035223        2       1.00000000      -0.04990049      -0.03771593      -0.26950198
Pt      10.29807265       5.82129723       4.42592449        2       0.00000000      -0.08608558      -0.06298895      -0.05112650
Pt       3.87217698       8.11068567       4.25568018        2       0.00000000      -0.03851859      -0.10062510       0.08635697
Pt       6.43203686       8.10039601       4.20857017        2       0.00000000      -0.06133745      -0.03682629      -0.04428642
Pt       9.00489672       8.10774744       4.27612681        2       0.00000000      -0.01629295       0.02355006       0.01634334
Pt      11.66932613       8.09398084       4.31172598        2       0.00000000       0.03922212      -0.14410203       0.10520007
Pt       0.02990774       0.00322639       6.61858427        1       0.00000000       0.00028664       0.06696845       0.06929120
Pt       2.60612967       0.00249850       6.64735066        1       0.00000000      -0.01373378       0.12953645       0.23082705
Pt       5.16652943      -0.10414520       6.52398232        1       0.00000000      -0.00821989      -0.06028304      -0.35346153
Pt       7.77268929      -0.08216571       6.64266688        1       0.00000000       0.03309834       0.06849378       0.15967465
Ni       1.31666926       2.24442577       6.55601753        1       1.00000000       0.07439285       0.17617188      -0.04895610
Ni       3.84967535       2.20720579       6.48076078        1       1.00000000      -0.08581300       0.08852748      -0.25081396
Pt       6.47325150       2.19179078       6.46261694        1       0.00000000       0.03629586       0.12582869      -0.31497706
Pt       9.12874856       2.27322521       6.53978523        1       0.00000000       0.14080705       0.19434513       0.07050090
Ni       2.53148154       4.38739421       6.53392145        1       1.00000000      -0.15461555      -0.02386222      -0.13378089
Pt       5.10269506       4.36356923       6.53652504        1       0.00000000      -0.10426660      -0.03354450       0.07626459
Ni       7.81151328       4.42127413       6.45775737        1       1.00000000       0.09102036       0.11218412      -0.31139886
Ni      10.37192582       4.41875998       6.56067311        1       1.00000000       0.07570516       0.18251388       0.02079958
Pt       3.79131911       6.57806364       6.53546765        1       0.00000000      -0.11094984       0.00498529       0.16332201
Pt       6.52260992       6.57502623       6.45169077        1       0.00000000      -0.00486332       0.01441739      -0.23906331
Ni       9.07251585       6.56887680       6.53413393        1       1.00000000      -0.01980981      -0.06095559      -0.08685235
Ni      11.61449288       6.55372726       6.53877502        1       1.00000000      -0.04863495      -0.10359105      -0.10563775
