64
Lattice="10.302910667826385 -0.02309581436175432 -0.006855423249446984 5.131453771954821 8.878211465449212 -0.0729934535216638 0.0 0.0 21.601348949488813" Properties=species:S:1:pos:R:3:tags:I:1:initial_magmoms:R:1:forces:R:3 unique_id=a7c33731335f424c8d2978f149572583 stress="0.005332846512499258 1.4284315940502858e-05 8.333047748632788e-05 1.4284315940502858e-05 0.0055373863555918616 -0.00047502319102821385 8.333047748632788e-05 -0.00047502319102821385 -0.0018149038843864006" energy=-374.6330547915953 pbc="T T T"
Ni      -0.01905444       0.02394684       0.20618938        2       1.00000000      -0.00951345       0.00530121      -0.03521780
Ni       2.56415242      -0.00879939       0.20829697        2       1.00000000      -0.08961356       0.01938974      -0.13194206
Ni       5.14077037      -0.03941624       0.15740184        2       1.00000000      -0.03225535       0.18354355      -0.47473713
Ni       7.76137385      -0.06551451       0.09260775        1       1.00000000       0.09303681      -0.04526840       0.33140454
Ni       1.24331706       2.21385056       0.09236684        1       1.00000000      -0.08109081      -0.02948959       0.45984160
Pt       3.78286681       2.21405273       0.08952335        1       0.00000000       0.03816056      -0.02400661      -0.03587120
Pt       6.45683462       2.18751729       0.11012421        1       0.00000000      -0.00644530       0.04944110      -0.72159343
Ni       9.05512764       2.16883166       0.15499904        2       1.00000000       0.01498246      -0.03290040       0.13274337
Ni       2.56272322       4.44630338       0.03335292        0       1.00000000       0.08921041       0.01061454       0.19660221
Ni       5.10375490       4.44518311       0.14624942        1       1.00000000      -0.05063166       0.04155107       0.02311173
Pt       7.79611543       4.43683382       0.06487691        1       0.00000000       0.03421281      -0.00531066      -0.02506189
Ni      10.32092033       4.40258360       0.02779436        0       1.00000000       0.03384078      -0.09969887       0.23105513
Ni       3.81419699       6.65387426       0.13627184        1       1.00000000      -0.02646410      -0.03553919       0.02775301
Pt       6.38943901       6.68880614       0.13208516        1       0.00000000      -0.11678328       0.04312440      -0.52226302
Ni       9.01428599       6.64953619       0.00490466        0       1.00000000      -0.11811763      -0.01301465       0.04185011
Ni      11.59779829       6.63230124       0.00000000        0       1.00000000       0.15957631      -0.01073641       0.16453580
Ni       1.26204550       0.74303510       2.15551379        5       1.00000000      -0.08851803       0.10810784       0.01843747
Ni       3.82984712       0.73617235       2.18241807        5       1.00000000       0.00297887       0.04269233       0.15397077
Pt       6.48499766       0.73571417       2.24517914        5       0.00000000       0.07922858       0.14462906      -0.00466274
Ni       9.05099657       0.72293543       2.17014678        5       1.00000000       0.08415020       0.08569726       0.09562182
Ni       2.56941868       2.92919017       2.17817490        5       1.00000000       0.00252038      -0.03236424       0.09577456
Ni       5.10323526       2.97632780       2.19890789        5       1.00000000      -0.16858375       0.04197933       0.10839467
Ni       7.78075551       2.94806967       2.20297288        5       1.00000000       0.20378981      -0.00715398       0.11726327
Ni      10.27627171       2.88197225       2.15815453        5       1.00000000       0.05947851      -0.08484676       0.06062680
Ni       3.88432304       5.16192169       2.16616707        5       1.00000000       0.09330360      -0.03249849       0.12841167
Ni       6.40839270       5.15796377       2.18564932        5       1.00000000      -0.06174570       0.06014104       0.13270482
Ni       8.97886342       5.11752073       2.18633449        5       1.00000000      -0.05836632      -0.16623954       0.18302285
Pt      11.62767388       5.09617705       2.09004841        4       0.00000000       0.07236735      -0.12988075      -0.03790252
Ni       5.09357686       7.37612271       2.13009290        4       1.00000000      -0.10359627      -0.08594995       0.01860245
Ni       7.69669090       7.37200603       2.13342208        4       1.00000000      -0.00029565      -0.09229340       0.02368808
Pt      10.24265818       7.33803754       2.04232656        3       0.00000000       0.02780088      -0.12363245      -0.04358743
Ni      12.90590579       7.34943266       2.09154866        4       1.00000000       0.02731532      -0.02973210      -0.00611564
Ni      -0.03035630       1.47899738       4.30287179        7       1.00000000      -0.02466030      -0.01430823      -0.33011806
Pt       2.59648631       1.49651394       4.28824595        7       0.00000000      -0.06338958      -0.01440063      -0.11207953
Ni       5.13325659       1.47533507       4.31993351        7       1.00000000      -0.03108540       0.13960410      -0.26041275
Ni       7.77076387       1.46455086       4.31400695        7       1.00000000       0.21912521       0.08508096      -0.23181367
Pt       1.27051088       3.65879266       4.36603756        8       0.00000000      -0.04573693      -0.06524321      -0.05396736
Ni       3.86163961       3.69478104       4.29469422        7       1.00000000       0.05620263       0.11160593      -0.28361189
Pt       6.44440799       3.68538685       4.21452415        6       0.00000000      -0.03862543       0.00339109      -0.09240151
Ni       8.98836772       3.62799036       4.29521077        7       1.00000000      -0.02908437      -0.12142525      -0.34309278
Ni       2.58910750       5.84854565       4.30152645        7       1.00000000       0.13820438      -0.08971223      -0.18950662
Ni       5.10414727       5.84788759       4.25419777        7       1.00000000      -0.10477543      -0.01315957      -0.35055940
Ni       7.71509383       5.83209173       4.26714174        7       1.00000000      -0.06849125      -0.01644417      -0.33328388
Pt      10.24376854       5.81554181       4.36746707        8       0.00000000      -0.02098610      -0.02993432      -0.08128485
Pt       3.84206305       8.11806166       4.20110644        6       0.00000000       0.02028325       0.07370449      -0.03566029
Pt       6.39322197       8.07589711       4.16456106        6       0.00000000      -0.06587927       0.01154299      -0.14492528
Pt       8.97739416       8.08725763       4.24651976        6       0.00000000      -0.08915317       0.00323471      -0.03865848
Pt      11.60892119       8.09149959       4.31042292        7       0.00000000       0.07902310      -0.00931429       0.07126047
Pt      -0.02349405       0.00159183       6.57611625       11       0.00000000       0.09365579       0.07066235       0.13899316
Pt       2.58735554       0.00941579       6.60134895       11       0.00000000       0.01297528       0.01410973       0.39240788
Pt       5.18099095      -0.11364902       6.58784059       11       0.00000000      -0.09467277       0.08900019       0.59922591
Ni       7.72436208      -0.06231616       6.52676619       10       1.00000000       0.04537826       0.14553449       0.01215746
Ni       1.29788629       2.23613214       6.50792291       10       1.00000000      -0.00218939       0.01150914      -0.11071899
Ni       3.82941368       2.19992188       6.42119615        9       1.00000000       0.04047595      -0.07325773       0.12076825
Pt       6.44526091       2.15048662       6.39557480        9       0.00000000       0.00011181      -0.01281900       0.70087530
Pt       9.05058986       2.24816864       6.47486499       10       0.00000000       0.06222926       0.11279893      -0.02859820
Ni       2.51293145       4.37500594       6.48016654       10       1.00000000      -0.03160265       0.04191933      -0.15845324
Pt       5.06544629       4.35440282       6.48021320       10       0.00000000      -0.09039717       0.08595463       0.08351580
Ni       7.76377760       4.40530869       6.38794510        9       1.00000000       0.06164032       0.05465353      -0.01827336
Ni      10.30573550       4.40645690       6.49248750       10       1.00000000       0.01581179       0.03732286      -0.07517150
Pt       3.73326013       6.60062739       6.48590447       10       0.00000000       0.14481042      -0.17858233      -0.03202141
Pt       6.47898373       6.55533510       6.39081070        9       0.00000000      -0.16095908      -0.03367904       0.48651878
Ni       9.02201285       6.55072837       6.47053539       10       1.00000000      -0.08671953      -0.00819020       0.01301563
Ni      11.55264110       6.55229081       6.47417741       10       1.00000000      -0.04545240      -0.16681528      -0.02058744
