64
Lattice="10.63657456645497 -0.008231602881860613 0.029052849562499487 5.311158506017929 9.200121485568035 -0.0062021056056544436 0.023721552333988427 -0.019543045867481897 9.207673880106968" Properties=species:S:1:pos:R:3:tags:I:1:initial_magmoms:R:1:forces:R:3 unique_id=157a40a032054b0386e3436285458daf stress="-0.005047575123310229 -3.272308636981647e-05 1.4878310629193519e-05 -3.272308636981647e-05 -0.005084590518241158 3.5945167195056916e-06 1.4878310629193519e-05 3.5945167195056916e-06 -0.003972531402069268" energy=-420.43294363804245 pbc="T T T"
Ni       0.01571488      -0.01939192       0.14511848        4       1.00000000       0.09147994      -0.05063142       0.21879968
Pt       2.60654373      -0.02034699       0.14572964        4       0.00000000      -0.02884838       0.01682081       0.01045540
Pt       5.33760748       0.00239638       0.04020238        4       0.00000000      -0.00745444       0.00399689      -0.12514526
Pt       7.97109376      -0.03103505       0.15495278        4       0.00000000      -0.03034761      -0.05206774       0.03590599
Pt       1.31434032       2.25507663       0.03096217        4       0.00000000      -0.02511061      -0.00232393      -0.12524110
Pt       4.02342046       2.28601767       0.01730844        4       0.00000000       0.03348976       0.00570544      -0.16192251
Ni       6.64387745       2.29021361       0.06311759        4       1.00000000       0.00261634      -0.02026264       0.09040014
Pt       9.28677960       2.25531639       0.12840066        4       0.00000000      -0.01991170      -0.05472901      -0.01586214
Pt       2.66527824       4.62474512       0.01918213        4       0.00000000       0.04974447       0.03730087      -0.10246865
Pt       5.34975782       4.61413446       0.13696366        4       0.00000000       0.02906880       0.03936638       0.06452844
Pt       7.93736387       4.60942776       0.13523336        4       0.00000000       0.00366351       0.02731828       0.00359609
Pt      10.64305229       4.61480520       0.12782274        4       0.00000000       0.01213847      -0.01688287       0.06979634
Pt       4.02982299       6.95763512       0.16303393        4       0.00000000       0.10699134       0.06401951       0.06930965
Ni       6.63365412       6.90957522       0.15718947        4       1.00000000      -0.02187464       0.02558399       0.28436154
Pt       9.29677190       6.91181214       0.03741051        4       0.00000000      -0.01435029       0.01649001      -0.12846594
Ni      11.97190016       6.90102376       0.14876712        4       1.00000000       0.05849642       0.02101572       0.28877239
Ni       1.33035182       0.73830443       2.32165844        3       1.00000000       0.02156726      -0.02266175       0.03004498
Ni       3.97709748       0.74257760       2.34098672        3       1.00000000      -0.03809305      -0.05501071       0.06469640
Pt       6.64184115       0.74645874       2.34095502        3       0.00000000      -0.01051608      -0.00847774       0.03613470
Pt       9.39543219       0.66225370       2.33565538        3       0.00000000       0.06660609      -0.07954185       0.01776193
Pt       2.67629022       2.98786301       2.32859399        3       0.00000000       0.02082053      -0.04846586      -0.08658310
Pt       5.31656886       3.04154970       2.32292246        3       0.00000000      -0.03716426      -0.06582672       0.04200820
Pt       7.95139448       3.05360580       2.31803527        3       0.00000000       0.00226433      -0.03418071      -0.00733426
Pt      10.66754323       2.99288248       2.38117289        3       0.00000000       0.05816014      -0.06743678       0.04608889
Pt       4.03127207       5.42285868       2.33703669        3       0.00000000      -0.01006420      -0.01182257       0.06841411
Ni       6.63652918       5.39475213       2.30570048        3       1.00000000      -0.01878757       0.08071307       0.03841605
Pt       9.27192907       5.37857315       2.34866848        3       0.00000000      -0.00871349       0.01075667       0.03484479
Pt      12.00067706       5.40241819       2.32482761        3       0.00000000       0.02656510       0.00854130       0.04303962
Ni       5.34028298       7.66865396       2.28638118        3       1.00000000       0.10282806      -0.01460741       0.00747682
Pt       7.90751522       7.69371563       2.32258108        3       0.00000000       0.01212417       0.00711746       0.03096676
Pt      10.61941243       7.69925678       2.33360164        3       0.00000000      -0.12278262       0.05143781       0.00441296
Ni      13.30361270       7.66000816       2.32528988        3       1.00000000      -0.01733053       0.01653412       0.08360048
Ni       0.02559119       1.51241120       4.58109003        2       1.00000000       0.00397793      -0.05630874      -0.04915396
Pt       2.65857026       1.48356390       4.57956944        2       0.00000000      -0.00125190      -0.04375060      -0.12552890
Pt       5.28884836       1.47750397       4.65943404        2       0.00000000      -0.00951270      -0.01520997      -0.01289680
Pt       7.99299618       1.51676919       4.59558379        2       0.00000000       0.00626957      -0.00229223      -0.06854779
Pt       1.33942405       3.77109819       4.62788995        2       0.00000000      -0.00655016      -0.02397235      -0.04921308
Pt       3.97581286       3.80012329       4.63280757        2       0.00000000      -0.02197919       0.02318710      -0.04751565
Pt       6.64877073       3.80897804       4.57793054        2       0.00000000      -0.00498042       0.01723766      -0.06310615
Pt       9.33914697       3.79544955       4.58599794        2       0.00000000      -0.02470179       0.01141078      -0.03567005
Pt       2.65211950       6.13062261       4.57460549        2       0.00000000      -0.02760156       0.01129195       0.03773550
Pt       5.35739680       6.13905333       4.52388559        2       0.00000000       0.03156472       0.03588932       0.02555483
Pt       7.99336883       6.17633431       4.58844328        2       0.00000000      -0.02598251       0.08608053       0.02202724
Pt      10.61277327       6.15965150       4.61343337        2       0.00000000      -0.01628552       0.00375246      -0.01593117
Pt       4.01101405       8.44094567       4.52027980        2       0.00000000      -0.03265884      -0.04109976       0.01991869
Pt       6.65024885       8.47401630       4.51167758        2       0.00000000      -0.10550170       0.03505283      -0.01534210
Ni       9.31212975       8.43312133       4.60524926        2       1.00000000      -0.03469673       0.02087992      -0.07987920
Pt      11.93525900       8.42051252       4.59456547        2       0.00000000       0.01099575      -0.03013106      -0.03979305
Pt       0.05785477       0.02944806       6.86711855        1       0.00000000       0.09441990       0.04215458       0.11002547
Pt       2.76933590       0.01381939       6.79981318        1       0.00000000       0.12152694       0.01344956      -0.00343933
Ni       5.31882610      -0.00253049       6.79335633        1       1.00000000      -0.02880083       0.02662012      -0.20195265
Pt       7.92408096       0.01383451       6.83881463        1       0.00000000      -0.05138211       0.06235365       0.03159036
Ni       1.37070989       2.29082347       6.77402996        1       1.00000000       0.10597174      -0.02385291      -0.20171883
Ni       4.00444170       2.27661601       6.78415371        1       1.00000000      -0.04836687      -0.01692749      -0.20569541
Ni       6.63196445       2.26802629       6.86195858        1       1.00000000      -0.08263810      -0.02425326      -0.10518210
Pt       9.33632126       2.27762029       6.80928652        1       0.00000000       0.03560727      -0.00772392      -0.02259110
Ni       2.66235187       4.55562597       6.78200923        1       1.00000000      -0.03705635      -0.06523623      -0.17290169
Pt       5.29462691       4.50510794       6.82737832        1       0.00000000      -0.03030642      -0.05519484       0.05846352
Pt       7.98887710       4.57732170       6.81825576        1       0.00000000      -0.01658606      -0.00612393       0.00019124
Pt      10.69106189       4.58025303       6.82904689        1       0.00000000       0.02552304       0.00340795       0.06792331
Pt       3.98200157       6.86698324       6.82159249        1       0.00000000      -0.02567687       0.01739174       0.05366937
Pt       6.68974119       6.89717779       6.89658022        1       0.00000000       0.00476386       0.03395188       0.17167274
Ni       9.32677467       6.90264232       6.79530207        1       1.00000000      -0.00788345       0.05570816      -0.20368199
Pt      11.92237494       6.89674792       6.91118066        1       0.00000000      -0.08749586       0.08446845       0.19015936
