64
Lattice="10.692045354660396 0.01314045022232801 -0.0234428848331883 5.357402641039897 9.258093979647098 -0.007548657404936253 -0.01914103531338069 0.0039341394375691455 9.255554398928478" Properties=species:S:1:pos:R:3:tags:I:1:initial_magmoms:R:1:forces:R:3 unique_id=0bdf7d8ad5c74344b8294de6a5ed6f7f stress="2.271298835800073e-05 -2.9769906212946635e-07 3.28695136103692e-06 -2.9769906212946635e-07 2.37063154270023e-05 1.3669275688254392e-06 3.28695136103692e-06 1.3669275688254392e-06 5.14231870774734e-06" energy=-420.9634347710786 pbc="T T T"
Ni      -0.01344742      -0.00163995       0.12174685        4       1.00000000      -0.01439736      -0.00093283       0.18393217
Pt       2.66314295      -0.00138773       0.11054224        4       0.00000000      -0.01239761      -0.01994549       0.07503738
Ni       5.38560952      -0.01782297       0.02341819        4       1.00000000       0.09969595      -0.08111300       0.05361669
Ni       7.99026198      -0.00963469       0.01993934        4       1.00000000      -0.12519819      -0.05549410       0.06371805
Pt       1.30922009       2.26885254       0.11499472        4       0.00000000      -0.04630240      -0.01343233       0.00797250
Pt       4.03315562       2.27908346       0.08740240        4       0.00000000       0.01681150      -0.03153589       0.01246520
Pt       6.69159003       2.22789623      -0.02870438        4       0.00000000      -0.00553613      -0.11157157      -0.19476083
Pt       9.35226181       2.25025588       0.07279158        4       0.00000000      -0.03813552      -0.07429996       0.04030130
Pt       2.65435435       4.67742557       0.08866729        4       0.00000000      -0.02263050       0.08764417       0.00852785
Pt       5.35167855       4.63539683       0.08369953        4       0.00000000      -0.00659808       0.01081484       0.07549386
Pt       8.03295840       4.63675736      -0.03091346        4       0.00000000       0.00261447      -0.00401734      -0.11880126
Pt      10.70883136       4.66995016      -0.02877891        4       0.00000000      -0.01814720       0.00918474      -0.09723982
Pt       3.95936844       7.03909205       0.07920878        4       0.00000000      -0.08450229       0.13448470      -0.03889993
Pt       6.67654197       6.98140805      -0.01334577        4       0.00000000      -0.01417412      -0.00780307      -0.14459470
Pt       9.42727891       6.99624172      -0.04250430        4       0.00000000       0.04753829       0.04431245      -0.17421374
Ni      12.03383899       6.99811746       0.01394089        4       1.00000000      -0.00694947       0.13397959       0.08610854
Ni       1.32006931       0.77386118       2.32002956        3       1.00000000      -0.00272973      -0.00390492       0.05028413
Pt       3.99227589       0.76010633       2.32732313        3       0.00000000       0.02871813      -0.01287664       0.08692509
Pt       6.69056501       0.76060622       2.27220865        3       0.00000000       0.01039215       0.00927779       0.01795656
Pt       9.39261794       0.76890036       2.29751546        3       0.00000000      -0.00718245      -0.01708518       0.07139056
Pt       2.65167655       3.05538118       2.33265106        3       0.00000000       0.01253416       0.01312834      -0.01147117
Pt       5.34875944       3.08166499       2.34667538        3       0.00000000       0.02419682       0.01141840       0.07189693
Pt       8.02132368       3.08445476       2.32414547        3       0.00000000      -0.01444364       0.03321134      -0.01832905
Pt      10.70418475       3.05316571       2.35661425        3       0.00000000      -0.00800741       0.00783863       0.06158789
Pt       3.99597507       5.42680818       2.35888920        3       0.00000000      -0.00926391       0.04750824       0.06117201
Pt       6.69010955       5.42415831       2.34903122        3       0.00000000       0.04623476       0.02018896       0.08817173
Pt       9.36872414       5.41280953       2.33886218        3       0.00000000       0.01351383       0.00553567       0.06548013
Pt      12.02520159       5.43303468       2.33288342        3       0.00000000      -0.04433769      -0.00186446       0.06978000
Pt       5.37246546       7.76792829       2.29539785        3       0.00000000       0.05287532      -0.01328916      -0.04327648
Pt       8.01475407       7.74331290       2.34523956        3       0.00000000       0.04443935      -0.04647163       0.07919549
Pt      10.70574721       7.73340833       2.25701534        3       0.00000000      -0.01286566      -0.01061753       0.00755559
Pt      13.35396707       7.73859038       2.29368150        3       0.00000000      -0.03321642       0.01869343       0.09510311
Ni      -0.01040029       1.53737904       4.60374612        2       1.00000000      -0.03258092      -0.02243520      -0.02721370
Pt       2.61533287       1.53549288       4.57633647        2       0.00000000      -0.02288483      -0.01552663      -0.01750585
Pt       5.35775390       1.52467422       4.64715329        2       0.00000000       0.01941920      -0.05287122      -0.03049974
Pt       8.03017691       1.52885704       4.63800122        2       0.00000000       0.02741674      -0.03823598      -0.06236001
Pt       1.31303128       3.87111930       4.61816237        2       0.00000000       0.02510932      -0.02319159      -0.03013338
Pt       3.98303980       3.88717316       4.60603904        2       0.00000000       0.00403820      -0.00559086       0.03765038
Pt       6.70494872       3.85096656       4.65246213        2       0.00000000       0.01434753      -0.02190780      -0.01297610
Pt       9.37251518       3.86304409       4.64333254        2       0.00000000       0.02140063      -0.01217045      -0.01386684
Ni       2.66018985       6.18343611       4.62322485        2       1.00000000       0.00533300       0.02748976      -0.05163934
Pt       5.32806710       6.19874034       4.63008763        2       0.00000000      -0.01442172       0.02937574       0.00950017
Pt       8.02200246       6.18772288       4.71351157        2       0.00000000       0.00531956       0.03605052       0.05565530
Pt      10.73312249       6.18692308       4.70965340        2       0.00000000       0.06530994      -0.00568275       0.05077841
Pt       3.99754381       8.50448034       4.61002418        2       0.00000000       0.03798197       0.01262147      -0.03404024
Pt       6.65575050       8.52213434       4.59319020        2       0.00000000      -0.03343841       0.05175452      -0.00936538
Pt       9.38814814       8.47830964       4.64750108        2       0.00000000       0.06063508      -0.00486273      -0.00350577
Pt      12.05603578       8.45841510       4.70286585        2       0.00000000       0.06741517      -0.02812586       0.13070812
Pt      -0.03693578      -0.00899623       6.90665846        1       0.00000000      -0.02882181       0.00572394       0.11589149
Pt       2.70013814      -0.07085597       6.84674119        1       0.00000000       0.04832985      -0.09471478       0.06124456
Ni       5.37192898      -0.01975103       6.88419468        1       1.00000000       0.11380834      -0.08212253      -0.02667354
Ni       7.96965820       0.01000430       6.88095266        1       1.00000000      -0.07832959       0.04547085      -0.01580687
Pt       1.29294631       2.32719465       6.82128001        1       0.00000000      -0.02382065      -0.03134762      -0.00423185
Pt       4.05444026       2.28612751       6.82966583        1       0.00000000       0.01703743      -0.02390154       0.02018242
Ni       6.68401319       2.29377565       6.80265704        1       1.00000000       0.02505038      -0.10715852      -0.24391571
Pt       9.28447056       2.34820198       6.82267089        1       0.00000000      -0.06746498       0.00806662       0.05933928
Pt       2.60349035       4.69683598       6.81202870        1       0.00000000      -0.08094736       0.06293373       0.00952199
Pt       5.41602980       4.64353266       6.83199946        1       0.00000000       0.06513743       0.04387549       0.07571628
Ni       8.02983019       4.65109746       6.79798796        1       1.00000000       0.09673382       0.02505979      -0.16493537
Ni      10.66480400       4.67182647       6.79712922        1       1.00000000      -0.07956730       0.02126574      -0.13379483
Pt       3.93835239       6.98042597       6.81574828        1       0.00000000      -0.15613867       0.06128444      -0.03108484
Ni       6.69255602       6.94046748       6.80712229        1       1.00000000      -0.02259470       0.02039271      -0.18957094
Ni       9.37949423       6.93883236       6.79892267        1       1.00000000       0.12187281      -0.04213121      -0.15406789
Ni      11.99944000       6.98065094       6.86799441        1       1.00000000      -0.07323445       0.07964578       0.03891401
