64
Lattice="9.991665607012365 -2.9850686857919523e-05 -0.004367837564660333 4.995806952053043 8.630839664233292 -0.04853684360440797 0.0 0.0 21.291499796027914" Properties=species:S:1:pos:R:3:tags:I:1:initial_magmoms:R:1:forces:R:3 unique_id=f29c25c4397948108ab8329858070fb2 stress="0.005135172802110073 -5.269594788804077e-05 5.046177781839085e-05 -5.269594788804077e-05 0.005136266484691674 -0.0004759388876899629 5.046177781839085e-05 -0.0004759388876899629 -0.002325000017754335" energy=-361.71993653612554 pbc="T T T"
Ni       0.02580749      -0.04000122       0.08599973        1       1.00000000       0.01330459       0.05253651       0.16878946
Ni       2.44014909       0.00043432       0.08029882        1       1.00000000       0.03717524      -0.03265536       0.16652310
Pt       4.94563280       0.04451683       0.04944425        0       0.00000000       0.04518412      -0.08789019      -0.18601345
Ni       7.53221906      -0.02232958       0.09871433        1       1.00000000      -0.04776212      -0.01861881      -0.02184316
Ni       1.29028091       2.14006659       0.07296187        1       1.00000000      -0.10627099      -0.05941521       0.17418758
Ni       3.71120523       2.19182840       0.07420787        1       1.00000000       0.06593184      -0.04134589       0.16930684
Ni       6.22796897       2.20235705       0.17491308        2       1.00000000      -0.03045894       0.00363580      -0.45567765
Pt       8.75638913       2.13857069       0.17351823        2       0.00000000       0.02788353      -0.00081596      -1.08400380
Ni       2.49765448       4.23973203       0.01468976        0       1.00000000      -0.01495776       0.02365821       0.05724092
Ni       4.99420103       4.29908288       0.00000000        0       1.00000000      -0.00902455      -0.01804687       0.02113193
Ni       7.49696808       4.33467626       0.01875575        0       1.00000000       0.03659981      -0.12569632      -0.10053589
Ni       9.99748123       4.28794756       0.06166669        1       1.00000000       0.01536073      -0.08188116       0.01381558
Ni       3.80737202       6.48319886       0.01135314        0       1.00000000      -0.00225438      -0.03062411       0.04409861
Ni       6.24676183       6.49153493       0.00406093        0       1.00000000      -0.01764804       0.03476976       0.10554848
Ni       8.68457175       6.44230012       0.03470897        0       1.00000000       0.06873271       0.08528315       0.08376270
Pt      11.27237056       6.40419215       0.00336700        0       0.00000000      -0.07936521       0.11432933      -0.15778422
Ni       1.25227069       0.70416650       2.12847804        3       1.00000000      -0.00156685      -0.02795043       0.06257210
Ni       3.70697795       0.72080506       2.16773363        4       1.00000000       0.03838030      -0.02804653       0.03190585
Ni       6.25301749       0.72776027       2.12738385        3       1.00000000      -0.01003325      -0.05119688       0.03927521
Ni       8.76033234       0.67312838       2.18606914        4       1.00000000      -0.00991822      -0.05393644       0.17004642
Ni       2.47685734       2.81401521       2.13062213        3       1.00000000       0.01820416      -0.00793195       0.10543451
Ni       4.96866905       2.81250970       2.13256900        3       1.00000000      -0.05295007      -0.00775788       0.11639423
Ni       7.46646833       2.83278729       2.14661239        3       1.00000000      -0.08863458       0.02291631       0.17849868
Ni      10.06210007       2.85437046       2.13600694        3       1.00000000       0.11416466      -0.00995781       0.10054969
Pt       3.68889645       5.01420662       2.10930504        3       0.00000000       0.01391509      -0.02974981      -0.05952524
Pt       6.29457339       5.04373124       2.10485936        3       0.00000000      -0.00000674      -0.01569850      -0.02400993
Ni       8.78764424       5.05018879       2.05256183        3       1.00000000       0.01659789      -0.04100175       0.02178255
Ni      11.19583707       4.99498046       2.14939046        3       1.00000000      -0.01915143       0.02885794       0.09750145
Ni       5.00984231       7.24093610       2.09823731        3       1.00000000       0.01052726      -0.00944598       0.06130501
Ni       7.50681419       7.23756222       2.09062050        3       1.00000000      -0.00166422       0.02584483       0.00652627
Ni       9.94866156       7.17156157       2.09900475        3       1.00000000      -0.00961154       0.02265823      -0.00534794
Ni      12.50828593       7.22083157       2.08283296        3       1.00000000      -0.00827563       0.03202562       0.00294137
Ni       0.06595252       1.36761205       4.15729895        6       1.00000000       0.04897725       0.00184801      -0.06644722
Ni       2.49290689       1.40815007       4.20271431        6       1.00000000       0.01703607      -0.01396508      -0.07337196
Ni       4.93252573       1.43743542       4.16282120        6       1.00000000      -0.00811030       0.03830452      -0.06326487
Ni       7.49261157       1.40615149       4.15225146        6       1.00000000      -0.04059634       0.01737504      -0.14209851
Ni       1.29646543       3.56532829       4.20792158        6       1.00000000      -0.00581726      -0.00846577      -0.05315191
Ni       3.73588387       3.55313132       4.22646490        6       1.00000000      -0.00539172      -0.01442689      -0.01785314
Ni       6.19336208       3.58926333       4.19655815        6       1.00000000      -0.00696100      -0.00475933      -0.02829783
Pt       8.75092391       3.62334911       4.13322455        5       0.00000000      -0.03198748       0.16229141      -0.04677815
Ni       2.50984506       5.70091965       4.22211805        6       1.00000000       0.01755659      -0.00859587      -0.02775998
Ni       4.99429438       5.75873790       4.23195819        6       1.00000000       0.01401956       0.01374287      -0.01369888
Ni       7.48145764       5.80263302       4.21528314        6       1.00000000       0.00144040       0.01850323      -0.03927741
Ni       9.98577264       5.75036018       4.17483716        6       1.00000000      -0.02787319       0.04960699      -0.12604239
Ni       3.79458663       7.88233968       4.17885999        6       1.00000000      -0.00241745       0.05238883      -0.06258534
Ni       6.25165740       7.89290389       4.16421628        6       1.00000000       0.00106904       0.02832687      -0.07898623
Ni       8.68757793       7.89640507       4.15453492        6       1.00000000       0.01003031       0.03717442      -0.13275630
Pt      11.24178092       7.89221094       4.14111654        5       0.00000000       0.04773309       0.07925556      -0.07584097
Ni       0.04855061      -0.09255664       6.26268050        8       1.00000000      -0.01778265       0.05911732      -0.16572188
Ni       2.48626671      -0.03474022       6.25734854        8       1.00000000       0.00644712      -0.02081906      -0.25439214
Ni       4.92491127      -0.05852013       6.18342511        7       1.00000000      -0.07273352       0.07483786       0.47139512
Ni       7.50895975      -0.09296919       6.28883488        8       1.00000000       0.03764502       0.12544083       0.03090269
Ni       1.31008516       2.12659841       6.25091030        8       1.00000000      -0.07509327      -0.00139089      -0.15507423
Ni       3.68120167       2.13737239       6.24882793        7       1.00000000       0.09064296      -0.01774290      -0.18427953
Pt       6.16762805       2.13989148       6.29149980        8       0.00000000       0.12285234      -0.03124331       0.17886124
Pt       8.81743632       2.09022973       6.21241461        7       0.00000000      -0.12744251      -0.17855199       1.19965434
Ni       2.50490957       4.29013673       6.23412176        7       1.00000000      -0.03915326       0.04856152      -0.04448893
Ni       4.95459997       4.34725740       6.22919077        7       1.00000000       0.00811554      -0.05944971       0.00237730
Ni       7.47532430       4.36784654       6.24788907        7       1.00000000      -0.01436596      -0.12026428       0.02930999
Ni      10.03245663       4.34193949       6.25933810        8       1.00000000       0.03438558      -0.02599840      -0.06847358
Ni       3.75146041       6.44198499       6.22613234        7       1.00000000      -0.02549238       0.00398114      -0.09125159
Ni       6.24127784       6.45649730       6.22606343        7       1.00000000       0.00346146       0.04727179      -0.14478678
Ni       8.72739094       6.45549266       6.22121528        7       1.00000000       0.04185123       0.05599323      -0.17266556
Ni      11.24263161       6.41890556       6.15262862        7       1.00000000      -0.01445270      -0.07519983       0.51244740
