64
Lattice="10.356116974276926 -0.0007939300727906854 0.007655042718888277 5.17737092352659 8.899254976395632 0.009932508670388782 0.006250316206827963 0.0057558372355021765 8.807598880449534" Properties=species:S:1:pos:R:3:tags:I:1:initial_magmoms:R:1:forces:R:3 unique_id=bcf2873955d647cfaa6ad244ee15d8f0 stress="-0.000429809796779472 1.4790332081045348e-06 -1.0603360083396622e-05 1.4790332081045348e-06 -0.0004270300822931325 6.050099586596813e-06 -1.0603360083396622e-05 6.050099586596813e-06 -0.00035662723460577056" energy=-399.7130889558908 pbc="T T T"
Ni       0.00088899       0.02305406       0.18725390        4       1.00000000       0.03926953       0.08760090       0.24614308
Ni       2.58729166       0.00838199       0.21972802        4       1.00000000       0.00754088       0.02829703       0.36872036
Ni       5.17321141      -0.00567455       0.16282279        4       1.00000000      -0.03895044       0.11379260       0.20739799
Ni       7.77237383      -0.03993498       0.19140168        4       1.00000000      -0.02412803      -0.09581647       0.32707631
Ni       1.26467866       2.22911407       0.19671348        4       1.00000000      -0.10933653       0.02855198       0.26241991
Pt       3.82692273       2.22808258       0.11898987        4       0.00000000      -0.03755143       0.04857764      -0.14650071
Pt       6.49730495       2.17784786       0.11763375        4       0.00000000       0.08803692      -0.03964392      -0.08404374
Ni       9.10257349       2.22998226       0.15608142        4       1.00000000       0.13743882       0.05861835       0.10472805
Ni       2.57200284       4.46297322       0.13455228        4       1.00000000      -0.04821697      -0.02397211       0.03521642
Ni       5.17498325       4.45751949       0.16924603        4       1.00000000       0.16189207      -0.05509057       0.22139765
Pt       7.84393879       4.46208014       0.11468022        4       0.00000000       0.11896061       0.01349569      -0.12022559
Ni      10.37691725       4.44587072       0.09298448        4       1.00000000       0.08024136      -0.05129121       0.09719685
Ni       3.85084112       6.69899025       0.10138055        4       1.00000000      -0.06680315       0.10129594       0.08766025
Pt       6.45006279       6.72547886       0.20675440        4       0.00000000      -0.05425663       0.03718098       0.20270387
Ni       9.08206610       6.68720908       0.09033976        4       1.00000000      -0.00598658       0.03031157       0.01783959
Ni      11.66492840       6.67739025       0.07945193        4       1.00000000       0.08648348      -0.02041348      -0.01282733
Ni       1.30554979       0.76701860       2.16842064        3       1.00000000      -0.01975500       0.10535501      -0.01745982
Ni       3.87500695       0.76650090       2.20765275        3       1.00000000       0.05379301       0.06084804       0.01485265
Ni       6.46866143       0.77068359       2.23361990        3       1.00000000      -0.02426207       0.11498775       0.08452502
Pt       9.06796679       0.79207835       2.19197313        3       0.00000000      -0.03555022       0.11319071       0.08801079
Ni       2.57206966       2.94496340       2.21096085        3       1.00000000      -0.05206788       0.03497659      -0.05644768
Ni       5.18395586       2.93733069       2.24758311        3       1.00000000      -0.04637422      -0.11412417       0.01875586
Ni       7.78616307       2.97965974       2.24728433        3       1.00000000       0.10080635       0.04347658      -0.07757426
Ni      10.35320696       2.96019563       2.22848620        3       1.00000000      -0.02339094       0.03052836       0.09042295
Pt       3.90208580       5.17363415       2.17255443        3       0.00000000      -0.01814728      -0.05354185      -0.02003993
Ni       6.51357204       5.17620139       2.23544100        3       1.00000000       0.12099566      -0.00760927      -0.05118346
Ni       9.03617900       5.16953409       2.24914900        3       1.00000000      -0.06212702      -0.07654143       0.10640062
Pt      11.62462282       5.12988339       2.19380675        3       0.00000000      -0.02623223      -0.06165992      -0.01262459
Ni       5.16556912       7.43494524       2.20660818        3       1.00000000      -0.10199726       0.00474537      -0.07680040
Ni       7.77172044       7.41608724       2.21877285        3       1.00000000       0.01042522      -0.08873385      -0.02321566
Pt      10.33396604       7.43103589       2.12652853        3       0.00000000      -0.00537654      -0.07126974      -0.09372046
Ni      12.95171219       7.41539603       2.18526199        3       1.00000000      -0.01390901      -0.07363778      -0.04055558
Ni      -0.01532473       1.55461155       4.34312715        2       1.00000000       0.01011663       0.14407479      -0.07439607
Pt       2.60961206       1.58721570       4.28646231        2       0.00000000      -0.05135980       0.02806362       0.02335190
Ni       5.18989179       1.52032174       4.35846132        2       1.00000000      -0.00770989      -0.00397778      -0.16025141
Ni       7.78004767       1.50908952       4.35614419        2       1.00000000       0.05601900      -0.06294393      -0.10906631
Ni       1.28124118       3.70658964       4.35150337        2       1.00000000      -0.02168227      -0.06052615      -0.11620211
Ni       3.87876570       3.70474415       4.36123340        2       1.00000000       0.00477931       0.02766052      -0.15186419
Pt       6.53239561       3.64868722       4.31662840        2       0.00000000       0.00754282      -0.04008649      -0.04331662
Ni       9.07311943       3.68897791       4.34353058        2       1.00000000       0.05489036      -0.12605274      -0.26613353
Ni       2.57713175       5.90830904       4.38431928        2       1.00000000      -0.03901152      -0.02581603      -0.15952863
Pt       5.16275430       5.88343921       4.33634484        2       0.00000000       0.10729640      -0.00858480       0.07923454
Ni       7.79552411       5.88413128       4.35434776        2       1.00000000       0.00419706      -0.06362675      -0.21008293
Pt      10.34279123       5.83569681       4.44482370        2       0.00000000      -0.03126005      -0.02097193      -0.01906351
Pt       3.86996855       8.16989649       4.33447392        2       0.00000000      -0.03885874      -0.02599136       0.11330953
Pt       6.47424115       8.19045688       4.26039023        2       0.00000000      -0.04623860       0.04564984       0.02361053
Pt       9.05649967       8.15094258       4.33718188        2       0.00000000      -0.07990010       0.04683104       0.08446807
Pt      11.66077565       8.18261966       4.32263137        2       0.00000000       0.05613757       0.05139465       0.02314162
Pt      -0.00868033      -0.01707135       6.59798996        1       0.00000000      -0.01562530      -0.03339620       0.11798659
Pt       2.62529041       0.00541616       6.62310450        1       0.00000000       0.00909464       0.02456449       0.23091963
Pt       5.18846988       0.01091490       6.59026419        1       0.00000000      -0.03715813      -0.01582242       0.03306789
Pt       7.74871985      -0.02911130       6.61724023        1       0.00000000      -0.00462978      -0.09915377       0.16140783
Pt       1.28431131       2.29072626       6.55656069        1       0.00000000      -0.03564412       0.10893986       0.13620764
Ni       3.90351243       2.23747457       6.45650269        1       1.00000000      -0.06460468      -0.00637929      -0.27263260
Ni       6.47159105       2.22384971       6.45646115        1       1.00000000      -0.00641276      -0.11042747      -0.25323456
Pt       9.00818699       2.32012435       6.51781819        1       0.00000000      -0.08515397       0.02254759      -0.00612230
Pt       2.56033503       4.52712916       6.52450818        1       0.00000000      -0.06362558       0.07859792      -0.04562254
Pt       5.18665652       4.36834837       6.58037443        1       0.00000000       0.05307212      -0.10981648       0.07500838
Ni       7.80470807       4.46326813       6.45639812        1       1.00000000       0.07153625       0.04464017      -0.28987161
Ni      10.33147851       4.48880021       6.55223237        1       1.00000000      -0.08663214       0.03735350      -0.03520769
Ni       3.86437077       6.66249490       6.54520019        1       1.00000000       0.05100945      -0.01567836      -0.14785261
Pt       6.53470538       6.60973329       6.50558276        1       0.00000000       0.07091607      -0.06442507      -0.23088392
Ni       9.10073465       6.61985729       6.55227877        1       1.00000000       0.05899018      -0.05818652      -0.11102772
Ni      11.63638098       6.65702741       6.55596610        1       1.00000000      -0.09155494       0.06906029      -0.14760226
