64
Lattice="10.206366677086297 -0.00846341301032997 0.026235822555353117 5.095853807873484 8.80539610056912 -0.040963189328768565 0.021421459414272485 -0.05098815063046602 8.733726551430035" Properties=species:S:1:pos:R:3:tags:I:1:initial_magmoms:R:1:forces:R:3 unique_id=3b21b08a10e44d7789846a65182dd07d stress="-0.0012033846047534782 6.202475746495671e-06 -9.542931696241328e-06 6.202475746495671e-06 -0.001180393742583219 3.511708815000201e-05 -9.542931696241328e-06 3.511708815000201e-05 -0.0010314509436989208" energy=-392.7396660330669 pbc="T T T"
Ni       0.01500867       0.03460279       0.15934180        4       1.00000000       0.17307230       0.12711431       0.29325102
Ni       2.57418021       0.02739296       0.21063955        4       1.00000000       0.06795353       0.05382246       0.31499337
Ni       5.08215411      -0.02485442       0.08269808        4       1.00000000      -0.03817626      -0.02269041       0.09132525
Ni       7.66246918      -0.03161866       0.06620671        4       1.00000000      -0.00315790      -0.00052266       0.05580675
Ni       1.27992063       2.20441223       0.18183112        4       1.00000000       0.03029297       0.04803243       0.25544668
Ni       3.79427789       2.19658984       0.18722360        4       1.00000000      -0.05178614      -0.04143652       0.23046209
Pt       6.37798909       2.23391522       0.13941870        4       0.00000000      -0.03316365       0.02343585       0.44815963
Ni       8.96801808       2.22167475       0.07860722        4       1.00000000       0.14081255       0.07941454       0.01892291
Ni       2.56046178       4.38235391       0.05117001        4       1.00000000       0.01479981      -0.14878284       0.01200232
Ni       5.04840467       4.39232274       0.05980292        4       1.00000000      -0.19757489      -0.03306239       0.07248121
Ni       7.71714722       4.38256666       0.06073714        4       1.00000000       0.29334336      -0.05892511       0.03357885
Ni      10.19632956       4.37430438       0.06978653        4       1.00000000       0.03729283      -0.11053370       0.00386004
Ni       3.79762636       6.57129496       0.00612501        4       1.00000000      -0.01738275      -0.16214356      -0.05293968
Pt       6.41576732       6.59210753      -0.03897302        4       0.00000000       0.06723548      -0.01744553      -0.33455791
Ni       8.94359338       6.57726583       0.12121579        4       1.00000000       0.05201427      -0.13230285       0.17445019
Ni      11.47261077       6.57950644       0.02127594        4       1.00000000      -0.08416533      -0.14155222      -0.11664446
Ni       1.32407683       0.76812368       2.15551393        3       1.00000000      -0.01156229       0.08627453       0.08674680
Ni       3.79449951       0.74331324       2.17206544        3       1.00000000       0.02925482      -0.01239594       0.05380349
Pt       6.32543374       0.76342956       2.28916973        3       0.00000000      -0.06232923       0.18742559       0.00789293
Pt       8.97527518       0.82560807       2.19906181        3       0.00000000      -0.02662982      -0.01519945       0.04895486
Ni       2.57349867       2.90771799       2.15452878        3       1.00000000      -0.00017091       0.05262273       0.00491622
Ni       5.02405870       2.93527108       2.20817119        3       1.00000000      -0.16085136      -0.01164092       0.13502273
Ni       7.71668199       2.95558632       2.20789158        3       1.00000000       0.13745871       0.05235253       0.04511165
Ni      10.21215055       2.92599578       2.20783678        3       1.00000000       0.01519930      -0.02258609       0.13487631
Ni       3.82752256       5.05441371       2.17205346        3       1.00000000      -0.03997080      -0.08086547       0.04340897
Pt       6.41551755       5.06902482       2.16962674        3       0.00000000       0.00719908       0.03008180      -0.19595930
Ni       8.92924334       5.07222622       2.18786216        3       1.00000000       0.04394593      -0.13355352       0.06754160
Pt      11.46996163       5.00807404       2.20011738        3       0.00000000       0.03242856      -0.04015666      -0.03946783
Pt       5.12357924       7.31592943       2.13772204        3       0.00000000       0.00431637      -0.11781163      -0.17146280
Ni       7.66792813       7.34203560       2.16271708        3       1.00000000      -0.04623818      -0.01578970       0.00472157
Pt      10.11116146       7.30216863       2.19403475        3       0.00000000      -0.09430319      -0.08258231       0.06704742
Pt      12.73674567       7.27170835       2.13715776        3       0.00000000      -0.04298095      -0.07325097      -0.10255201
Ni      -0.01687780       1.50725270       4.32908261        2       1.00000000       0.04166146       0.10371053       0.01049405
Pt       2.58349941       1.50496591       4.23021711        2       0.00000000      -0.01440389       0.12967604       0.14807277
Ni       5.11034665       1.41089494       4.34877785        2       1.00000000      -0.10265612       0.04148783       0.14883408
Ni       7.69471394       1.44809217       4.35437381        2       1.00000000       0.10162080       0.10824684      -0.01088702
Ni       1.26123473       3.68987811       4.33017007        2       1.00000000      -0.03951439       0.02027318       0.01080084
Ni       3.82028806       3.70322902       4.31325319        2       1.00000000      -0.07279764       0.13546363      -0.09650034
Pt       6.39171187       3.65456824       4.32808616        2       0.00000000      -0.00700043      -0.11327513       0.03502159
Ni       8.97386088       3.64597451       4.35295258        2       1.00000000       0.08975278       0.04570909      -0.08430706
Ni       2.53390538       5.79679959       4.36369325        2       1.00000000      -0.11433946      -0.08054588      -0.10113785
Ni       5.06391163       5.80721526       4.35998294        2       1.00000000      -0.16819701      -0.03573762      -0.16226409
Ni       7.71492226       5.81603544       4.32328608        2       1.00000000       0.24646797      -0.05978358      -0.19736415
Ni      10.22898365       5.81178907       4.34454103        2       1.00000000       0.05349130      -0.08661189      -0.07320376
Pt       3.74320491       8.01738394       4.34960694        2       0.00000000       0.00383845      -0.03838082       0.07333651
Pt       6.42883217       7.99416946       4.28683463        2       0.00000000       0.02937140       0.07999033       0.08046172
Ni       8.98362601       8.02692778       4.31644055        2       1.00000000      -0.01182980       0.01185587       0.06071153
Ni      11.43898255       8.02728225       4.38415747        2       1.00000000      -0.12154673      -0.10821841       0.02616786
Pt      -0.06734966      -0.04999005       6.55141650        1       0.00000000      -0.17590529      -0.02417482       0.12125080
Pt       2.60591441      -0.06069513       6.54718558        1       0.00000000       0.03566546       0.06320742       0.24315523
Ni       5.16758945      -0.07340879       6.46453418        1       1.00000000       0.01800956      -0.06136832      -0.15080317
Ni       7.61940228      -0.08385172       6.49880158        1       1.00000000      -0.13344298      -0.20413834      -0.09995795
Pt       1.22381400       2.27517461       6.49259641        1       0.00000000       0.00641363       0.12912066       0.22247153
Pt       3.87387025       2.25311431       6.49896224        1       0.00000000       0.00978281       0.27659404       0.17119143
Pt       6.46555984       2.12742962       6.41745361        1       0.00000000       0.03925370      -0.03130467      -0.25180757
Ni       8.92851989       2.20126169       6.46238352        1       1.00000000       0.03726805       0.16266952      -0.24792196
Ni       2.55870626       4.44894816       6.42851830        1       1.00000000      -0.06499226       0.18281895      -0.17311535
Ni       5.10515740       4.43925082       6.45163749        1       1.00000000       0.00019898       0.17423411      -0.11556443
Ni       7.68113343       4.36637231       6.45958538        1       1.00000000       0.02574125      -0.00696887      -0.15536085
Ni      10.21490933       4.38073356       6.44623451        1       1.00000000       0.04251267       0.07019115      -0.23095284
Ni       3.80137647       6.51400436       6.43411554        1       1.00000000      -0.08758197      -0.07221498      -0.17337527
Ni       6.35997249       6.49815569       6.33616114        1       1.00000000      -0.00408094      -0.12998670      -0.53495949
Pt       8.99547300       6.49162512       6.44065327        1       0.00000000       0.02652663       0.06563020       0.07004276
Ni      11.52833304       6.55920664       6.43379443        1       1.00000000       0.07453579      -0.01351572      -0.25373041
