64
Lattice="10.328519007168946 -0.02618057368400467 -0.014698862270650344 5.141586461688474 8.939773858846923 -0.02341842509528155 0.0 0.0 21.60740262097084" Properties=species:S:1:pos:R:3:tags:I:1:initial_magmoms:R:1:forces:R:3 unique_id=2220c9399b1c42339133cba2c82d670b energy=-377.3240565300218 stress="0.005409190474546865 -0.00010094309020935114 -2.8017482081736736e-05 -0.00010094309020935114 0.0056318494131134995 -0.0002860002329796625 -2.8017482081736736e-05 -0.0002860002329796625 -0.0016318358501387301" pbc="T T T"
Ni       0.03644233       0.01898773       0.13457125        1       1.00000000       0.16678044      -0.03743992      -0.20088877
Ni       2.57433802      -0.00376703       0.16374568        2       1.00000000      -0.06626601      -0.00216792      -0.04427345
Ni       5.12785869      -0.02953411       0.11155766        1       1.00000000      -0.09086272       0.15615971      -0.39102184
Pt       7.76456369      -0.10900774       0.00315288        0       0.00000000       0.00535481      -0.15844224      -0.30711271
Ni       1.25257373       2.24086918       0.06477177        1       1.00000000      -0.09639007       0.01061831       0.52447309
Pt       3.78202955       2.23775479       0.07399454        1       0.00000000      -0.01557462       0.00880249       0.09363976
Pt       6.44017350       2.25421214       0.10485997        1       0.00000000      -0.03791434       0.10209837      -0.81040323
Ni       9.07849184       2.22994998       0.11126336        1       1.00000000       0.03381381       0.13569301      -0.11635767
Ni       2.56387255       4.47898383       0.02988651        0       1.00000000       0.05765190      -0.01415391       0.29879042
Ni       5.11425250       4.48201511       0.13059206        1       1.00000000      -0.06032195       0.06368828       0.11573204
Pt       7.81601986       4.48524810       0.05596055        1       0.00000000       0.05416520       0.08480366       0.01007642
Ni      10.34430378       4.43804285       0.01403269        0       1.00000000       0.05683700      -0.07849965       0.31658063
Ni       3.84088597       6.66503483       0.13639692        1       1.00000000      -0.04213885      -0.11633038       0.10333896
Pt       6.41489451       6.73513999       0.13787945        1       0.00000000      -0.00573808       0.02352111      -0.44584481
Ni       9.03368327       6.69837947       0.00858095        0       1.00000000      -0.13192052       0.00240163       0.11550961
Ni      11.59929485       6.64765068       0.00000000        0       1.00000000       0.08895020      -0.09365058       0.16435291
Ni       1.31947569       0.75627455       2.14305559        3       1.00000000       0.14394166       0.11716474      -0.04683761
Ni       3.82391963       0.75121697       2.16790719        4       1.00000000      -0.09720182       0.04133788       0.16800746
Pt       6.39754217       0.75488026       2.22037207        4       0.00000000      -0.06192771       0.11245331       0.09186397
Pt       9.12875727       0.75012300       2.14514453        3       0.00000000       0.05655369       0.05189310       0.07391800
Ni       2.57655329       2.96653587       2.17640502        4       1.00000000       0.01004841       0.01080409       0.13326075
Ni       5.10469986       3.01989309       2.20059100        4       1.00000000      -0.21351949       0.12515422       0.18117938
Ni       7.77032779       3.01803954       2.18432266        4       1.00000000       0.10020052       0.14169923       0.17235724
Ni      10.32732245       2.95937045       2.14945018        3       1.00000000       0.13623707       0.06388638       0.04817846
Ni       3.88957026       5.20503042       2.17734996        4       1.00000000       0.10653410      -0.06438484       0.14818159
Ni       6.42323585       5.20894697       2.19036012        4       1.00000000      -0.06916495       0.06920892       0.15535014
Ni       8.99529892       5.16719414       2.19181413        4       1.00000000      -0.06729867      -0.13473440       0.21774412
Pt      11.65068380       5.14085662       2.09475649        3       0.00000000       0.06692817      -0.10789447       0.00382677
Ni       5.13099356       7.40181720       2.16176054        4       1.00000000      -0.10095487      -0.19605026       0.09718483
Ni       7.70710802       7.43424156       2.15815069        4       1.00000000      -0.01877081      -0.08241796       0.06749863
Pt      10.24685914       7.38767451       2.06209808        3       0.00000000      -0.00372916      -0.16110602      -0.07199982
Ni      12.92343466       7.37769277       2.14165152        3       1.00000000       0.06359365      -0.09844535       0.09797565
Ni       0.00995118       1.51207966       4.34421687        6       1.00000000       0.11394876      -0.03476803      -0.21144831
Pt       2.60181261       1.53188704       4.29875747        6       0.00000000      -0.00673445      -0.02823589      -0.13679963
Ni       5.12833420       1.51012471       4.33731995        6       1.00000000      -0.01284378       0.14513640      -0.22369582
Pt       7.79392391       1.52051133       4.31670554        6       0.00000000       0.15283776      -0.00803359      -0.00996416
Pt       1.27805298       3.71334527       4.39223988        7       0.00000000      -0.01774890      -0.03903114      -0.06838915
Ni       3.86211153       3.74281064       4.31993242        6       1.00000000       0.03709502       0.11199582      -0.29169299
Pt       6.42272288       3.78435848       4.24017752        5       0.00000000      -0.05501210       0.05544473      -0.14772439
Ni       9.01626284       3.71564323       4.31968252        6       1.00000000      -0.03599398      -0.00703861      -0.30437932
Ni       2.58739427       5.90215573       4.33519754        6       1.00000000       0.11307897      -0.19207652      -0.20907840
Ni       5.11620966       5.91526898       4.28844425        6       1.00000000      -0.10671710      -0.04558304      -0.37939724
Ni       7.73048560       5.90506042       4.30423614        6       1.00000000      -0.05214363      -0.00073725      -0.34295272
Pt      10.26013138       5.87267023       4.39732804        7       0.00000000      -0.02410225      -0.03158904      -0.10047242
Pt       3.85822948       8.12153558       4.28352007        6       0.00000000       0.06183472      -0.10646031      -0.10700954
Pt       6.41458638       8.15105296       4.21105561        5       0.00000000      -0.05424071       0.00591682      -0.20665971
Pt       8.99232675       8.16440348       4.28690075        6       0.00000000      -0.04751052      -0.00486307      -0.09941244
Pt      11.61446248       8.12214559       4.34364591        6       0.00000000       0.05434456      -0.08443109      -0.10535584
Pt      -0.02197443       0.03331921       6.57559982       10       0.00000000       0.03904094       0.06918075       0.16472239
Pt       2.59128410       0.03714413       6.60740262       10       0.00000000       0.02491802       0.02085045       0.26664697
Pt       5.18622318      -0.08281968       6.58493177       10       0.00000000      -0.00961304       0.09494893       0.43296604
Ni       7.73956986      -0.03483137       6.45159323        9       1.00000000       0.05577338       0.12405940       0.39724996
Ni       1.29937139       2.27825592       6.53376045        9       1.00000000       0.02973646       0.01214430      -0.16665762
Ni       3.83022606       2.24582499       6.45225239        9       1.00000000       0.02894251      -0.05214996       0.04272952
Pt       6.43019803       2.21756493       6.45853484        9       0.00000000      -0.05944975      -0.00163220       0.80870451
Pt       9.09039466       2.31195370       6.53995691        9       0.00000000       0.05881997       0.16521621       0.15246363
Ni       2.51514935       4.43920437       6.52119273        9       1.00000000      -0.06998317       0.01443759      -0.23196841
Pt       5.06805898       4.42345480       6.52036641        9       0.00000000      -0.13294475       0.08569837       0.07007881
Ni       7.77437247       4.46769826       6.43191339        8       1.00000000       0.07962748       0.06945606      -0.05831422
Ni      10.32891209       4.47088337       6.52689881        9       1.00000000       0.05747349       0.06675862      -0.12905554
Pt       3.73887267       6.66669599       6.54172366        9       0.00000000       0.07834744      -0.11220531       0.02905862
Pt       6.49057221       6.63366079       6.44412334        8       0.00000000      -0.17547266      -0.05413362       0.38850852
Ni       9.04042410       6.63135233       6.51822888        9       1.00000000      -0.06013478      -0.04080463      -0.08857015
Ni      11.57272560       6.62757168       6.52055768        9       1.00000000      -0.03306990      -0.17314166      -0.09841189
