64
Lattice="10.604875681028666 0.016636005132707504 -0.002220737201657419 5.316845043576748 9.218702730646415 -0.01660862933437407 0.0 0.0 21.860565620457805" Properties=species:S:1:pos:R:3:tags:I:1:initial_magmoms:R:1:forces:R:3 unique_id=83437c3be0d540298aed087eb13f32a2 stress="0.005069709933532578 0.0001467232375795076 -4.3443886772973185e-05 0.0001467232375795076 0.005360196593254278 7.958258756083967e-07 -4.3443886772973185e-05 7.958258756083967e-07 -0.0009563595931528241" energy=-393.69624790457516 pbc="T T T"
Pt       0.03731562       0.00400014       0.01254122        0       0.00000000      -0.03327019      -0.04559795      -0.10227602
Ni       2.66608208       0.01679799       0.11622302        1       1.00000000       0.07315305       0.03147111       0.16939295
Pt       5.23911730       0.02585716       0.04070686        0       0.00000000      -0.11556986       0.13586309       0.16441611
Pt       7.92268645      -0.00721101       0.08466326        1       0.00000000      -0.12079501       0.06504079      -0.31452465
Pt       1.38023951       2.27787719       0.02004286        0       0.00000000       0.02584439       0.02882794       0.01987668
Ni       3.97215773       2.28678566       0.11876748        1       1.00000000      -0.02364976      -0.05170526       0.21549060
Pt       6.59760352       2.29822661       0.01071421        0       0.00000000       0.01857143      -0.09070490      -0.01236776
Pt       9.29970989       2.32366559       0.02438630        0       0.00000000       0.07007546      -0.01955368       0.09475489
Pt       2.64160351       4.60985975       0.11600650        1       0.00000000      -0.03234087       0.06215204      -0.53046840
Pt       5.29708288       4.58907896       0.11178148        1       0.00000000       0.05931855       0.08209832      -0.52500764
Pt       7.96179701       4.62028152       0.09979498        1       0.00000000      -0.10563796       0.07716559      -0.27331124
Pt      10.64204280       4.64366975       0.04738498        0       0.00000000       0.10146947      -0.06820919       0.06487247
Pt       3.95770240       6.90964076       0.08239465        1       0.00000000       0.05461886      -0.02285560      -0.75972643
Pt       6.66069114       6.93496413       0.10548975        1       0.00000000       0.00469945      -0.16574917      -0.61250311
Pt       9.31892454       6.95075649       0.00000000        0       0.00000000      -0.00271651       0.01732409      -0.07748124
Ni      11.92988213       6.92451630       0.09712362        1       1.00000000      -0.03871590       0.00841659       0.13778428
Pt       1.34595240       0.79550118       2.31931241        2       0.00000000       0.02234046       0.00371590       0.18067514
Ni       3.97174380       0.77396182       2.28206425        2       1.00000000      -0.01801019       0.02707793       0.20725987
Pt       6.60455389       0.77384647       2.38084398        3       0.00000000       0.04235679       0.03043411       0.35999955
Pt       9.30439049       0.83677516       2.37933304        3       0.00000000       0.07332459       0.20073325       0.33072780
Pt       2.62460797       3.06281421       2.30375603        2       0.00000000      -0.06591862      -0.00907553       0.21445785
Pt       5.31156336       3.05868502       2.32564742        2       0.00000000       0.01199934      -0.15512316       0.26793828
Pt       7.96925976       3.10378266       2.42460978        3       0.00000000      -0.04898306       0.01794034       0.53768615
Ni      10.61576284       3.09603639       2.32710097        2       1.00000000       0.02614805       0.04679674       0.27850174
Pt       3.97518877       5.36297459       2.32938274        2       0.00000000      -0.03819614      -0.05347816       0.29725372
Ni       6.64408750       5.36796705       2.30633299        2       1.00000000       0.08414948      -0.04648482       0.42111184
Pt       9.32729778       5.34207544       2.34766057        2       0.00000000       0.15920331      -0.06593011       0.20961526
Ni      11.92359675       5.37411081       2.28836962        2       1.00000000      -0.08460526      -0.07239003       0.34420314
Pt       5.32172410       7.67400028       2.32879111        2       0.00000000      -0.06329055       0.14767894       0.30370933
Pt       7.99500044       7.70055739       2.30374247        2       0.00000000       0.17058969       0.03530605       0.29200132
Pt      10.62143840       7.68265083       2.31193466        2       0.00000000      -0.04238587      -0.07584498       0.21800898
Pt      13.22171093       7.66835430       2.30899809        2       0.00000000      -0.04058589       0.01438273       0.25731346
Ni      -0.03653935       1.56128366       4.61193299        5       1.00000000      -0.23586715       0.13579160      -0.00975442
Pt       2.63038680       1.54032697       4.57427816        5       0.00000000       0.06368065       0.05675351      -0.23881221
Pt       5.39856957       1.52499490       4.61938036        5       0.00000000       0.22743605       0.00168165       0.00989058
Ni       7.97482355       1.58102427       4.60137907        5       1.00000000       0.15171663       0.33854538      -0.12520031
Pt       1.21453638       3.78065288       4.56707437        5       0.00000000      -0.28586209      -0.18896264      -0.27143820
Pt       4.00239236       3.80890152       4.55361008        5       0.00000000      -0.05397659      -0.08747500      -0.24505923
Ni       6.67367787       3.81208553       4.56967260        5       1.00000000       0.14919824      -0.18766118      -0.31266432
Ni       9.27723355       3.79111048       4.58406273        5       1.00000000      -0.02875515      -0.33024920      -0.16497661
Pt       2.61669021       6.16008984       4.53296079        4       0.00000000      -0.09578499       0.00004484      -0.32140636
Pt       5.34529639       6.10916085       4.52082731        4       0.00000000       0.01895656      -0.05850284      -0.35148495
Pt       7.97420443       6.07898582       4.53844889        4       0.00000000       0.01579996      -0.04751554      -0.42200656
Pt      10.60232410       6.12545197       4.58678162        5       0.00000000      -0.10143873      -0.11315096      -0.10349677
Pt       3.96172900       8.53796770       4.56992885        5       0.00000000      -0.06274251       0.19005570      -0.20760664
Pt       6.61374317       8.49320179       4.57610159        5       0.00000000      -0.05664619       0.10411213      -0.19159309
Pt       9.33901481       8.45689893       4.59470861        5       0.00000000       0.06058170       0.00163056      -0.16916875
Ni      11.94362810       8.46761880       4.57676616        5       1.00000000       0.01009472      -0.01260713      -0.25896114
Ni      -0.00021098       0.02919336       6.75886559        7       1.00000000      -0.01191418       0.22843202      -0.23549778
Pt       2.65268247       0.00510460       6.86056562        8       0.00000000      -0.02379880       0.04575728       0.17586254
Ni       5.30769835      -0.00263347       6.77173146        7       1.00000000       0.04213437       0.00195555      -0.11832176
Pt       7.92125507       0.10114876       6.72562598        6       0.00000000      -0.18043074       0.30307666       0.28342797
Ni       1.28772004       2.28565432       6.75919544        7       1.00000000      -0.24701431      -0.08571391      -0.34433101
Pt       4.00425242       2.25379892       6.85170803        8       0.00000000       0.02808230      -0.08030721       0.12100823
Ni       6.64824684       2.29575282       6.74402366        6       1.00000000       0.17051092       0.09184620      -0.22898352
Ni       9.29672063       2.30579717       6.72389933        6       1.00000000       0.12579481      -0.02569381      -0.62078198
Pt       2.59273091       4.56759105       6.76971534        7       0.00000000      -0.11941127      -0.02959584       0.44730919
Pt       5.35195877       4.56195263       6.75443731        7       0.00000000       0.24879953      -0.09733190       0.51876251
Pt       8.03591659       4.53428859       6.71642642        6       0.00000000       0.19626730      -0.30172329       0.22825521
Ni      10.59742389       4.59524934       6.75509997        7       1.00000000      -0.08673977      -0.12088450      -0.31025607
Pt       3.98409139       6.94410221       6.75759699        7       0.00000000      -0.05269444       0.12339816       0.62131803
Pt       6.67361341       6.92673078       6.76768853        7       0.00000000       0.15495809      -0.09789953       0.59282267
Ni       9.29814142       6.90932421       6.75722251        7       1.00000000      -0.09784128      -0.06091077      -0.09926229
Pt      11.85869033       6.94658317       6.81699118        7       0.00000000      -0.04628438       0.21338101      -0.02697786
