64
Lattice="10.253062006829138 -0.01984300666331909 0.010738158859481848 5.109346455556668 8.882643149882565 -0.011085845857156043 0.008767669994225732 -0.015513852339043755 8.816010035382245" Properties=species:S:1:pos:R:3:tags:I:1:initial_magmoms:R:1:forces:R:3 unique_id=b04b2cae1e184893bc77a3284ef746c4 stress="-0.000356515916439315 -1.8562030304525615e-07 6.3088308636598254e-06 -1.8562030304525615e-07 -0.0003500347305878046 2.208807798250114e-05 6.3088308636598254e-06 2.208807798250114e-05 -0.0002921761653498986" energy=-397.108489294031 pbc="T T T"
Ni       0.05011509       0.04307026       0.15303554        4       1.00000000       0.21702744       0.13802980       0.19682836
Ni       2.58186224       0.03164082       0.20608930        4       1.00000000       0.06143516       0.07062936       0.27819894
Ni       5.07474244      -0.01841012       0.08266676        4       1.00000000      -0.10971102       0.02733418       0.08215455
Pt       7.70291616      -0.05134835       0.00324086        4       0.00000000      -0.01040902      -0.01352026      -0.16153612
Ni       1.28239416       2.23099793       0.10616885        4       1.00000000       0.03953266       0.06811787       0.15158211
Ni       3.79659315       2.21775180       0.19674585        4       1.00000000      -0.07586002      -0.00888430       0.22907324
Pt       6.37632522       2.29468738       0.16512746        4       0.00000000      -0.04901622       0.10740555       0.45786934
Ni       9.01830095       2.26175409       0.07620374        4       1.00000000       0.10268404       0.11864015       0.03806972
Ni       2.56258621       4.41118352       0.07355017        4       1.00000000       0.01706597      -0.16117904       0.04194799
Ni       5.06191660       4.43474707       0.16329227        4       1.00000000      -0.21185206      -0.00045003       0.26187761
Ni       7.74943534       4.42593908       0.07685498        4       1.00000000       0.26740181      -0.00636095       0.03354964
Ni      10.23373743       4.39704502       0.07141198        4       1.00000000       0.00128889      -0.09063367       0.01313771
Ni       3.82237684       6.60551412       0.04957433        4       1.00000000      -0.03634379      -0.18993914       0.06413710
Pt       6.44298729       6.65604710      -0.01022032        4       0.00000000       0.07594307      -0.00085550      -0.29233661
Ni       8.97190104       6.63365556       0.13868017        4       1.00000000       0.05178260      -0.08458268       0.16007402
Ni      11.49856995       6.60417475       0.11970212        4       1.00000000      -0.10643063      -0.11639501       0.07561531
Ni       1.34001195       0.78322930       2.17007626        3       1.00000000       0.01962775       0.11452222      -0.01158257
Ni       3.79686840       0.75177455       2.18977457        3       1.00000000       0.00857658      -0.01591671       0.00210445
Pt       6.31719926       0.76406502       2.28541834        3       0.00000000      -0.04936178       0.11345152      -0.06558070
Pt       9.04895925       0.82708702       2.19298844        3       0.00000000       0.00699851      -0.03781525      -0.10652711
Ni       2.57820773       2.93553355       2.17387882        3       1.00000000      -0.06018396       0.03244911      -0.01541673
Ni       5.03349818       2.96951043       2.23663124        3       1.00000000      -0.16188900      -0.01600378       0.16216983
Ni       7.74410327       2.99027435       2.21546621        3       1.00000000       0.13258652       0.03855788       0.01811891
Ni      10.25827483       2.95284429       2.19657283        3       1.00000000       0.04072130      -0.04056376       0.02948494
Ni       3.83553969       5.10607402       2.21435078        3       1.00000000      -0.05308629      -0.07604721       0.09530252
Pt       6.44353690       5.12784187       2.19449050        3       0.00000000       0.04791818      -0.00236958      -0.11800684
Ni       8.95913943       5.12271207       2.21642632        3       1.00000000       0.05040974      -0.10874514       0.05416042
Pt      11.50809426       5.06184284       2.17096902        3       0.00000000       0.00799434      -0.03556755      -0.02796498
Pt       5.14642995       7.38407243       2.17689377        3       0.00000000       0.02508085      -0.08192958      -0.21613522
Ni       7.68793348       7.41336255       2.20302179        3       1.00000000      -0.03777471      -0.00707668      -0.02938659
Pt      10.13150116       7.36820086       2.23255678        3       0.00000000      -0.10618739      -0.07696189       0.03251816
Pt      12.79020652       7.32213496       2.22316968        3       0.00000000      -0.05965290      -0.01928277      -0.08666417
Ni       0.01611482       1.50646447       4.39545601        2       1.00000000       0.13183693      -0.02891711      -0.04476190
Pt       2.60169847       1.48592634       4.27979318        2       0.00000000       0.09449264       0.02483645       0.08438390
Ni       5.10789161       1.44187429       4.39155261        2       1.00000000      -0.01096706       0.04130436       0.10676327
Pt       7.75136458       1.48437307       4.39042281        2       0.00000000       0.05341527       0.12007510       0.13895078
Pt       1.24258675       3.72546267       4.43177542        2       0.00000000      -0.01868320      -0.02925273      -0.00106848
Ni       3.83854970       3.73030211       4.34267066        2       1.00000000      -0.02737132       0.04972748      -0.09459628
Pt       6.39906356       3.72248623       4.35457424        2       0.00000000      -0.08211263      -0.01150902       0.04379990
Ni       8.97975669       3.72167544       4.39481645        2       1.00000000       0.01871249       0.12797178      -0.09629338
Ni       2.56518250       5.87349921       4.38596054        2       1.00000000      -0.02212859      -0.13180349      -0.10716827
Ni       5.08857897       5.88906176       4.37568417        2       1.00000000      -0.03581231      -0.11018730      -0.17120175
Ni       7.73373938       5.88602796       4.36755329        2       1.00000000       0.16163300      -0.04719114      -0.19598016
Ni      10.22270452       5.90345453       4.37345657        2       1.00000000      -0.01104535      -0.02800844      -0.08711740
Pt       3.79817941       8.05693553       4.41830962        2       0.00000000       0.06012822      -0.00616845       0.02676718
Pt       6.45658729       8.07295074       4.34476086        2       0.00000000       0.08516465       0.04624333       0.00297486
Ni       9.00414538       8.11037433       4.37737624        2       1.00000000       0.00044209       0.00113574       0.06455264
Ni      11.46191248       8.10677720       4.40748842        2       1.00000000      -0.08085306      -0.04250604      -0.02995910
Pt      -0.04498339       0.03570225       6.60075628        1       0.00000000      -0.12046048       0.09384001       0.09084789
Pt       2.58549348      -0.02704242       6.61238313        1       0.00000000       0.02463771       0.03063709       0.22092771
Ni       5.15517953      -0.03927533       6.51522376        1       1.00000000      -0.01415000      -0.03955306      -0.16892708
Ni       7.67176272      -0.03649836       6.45248006        1       1.00000000      -0.11822291       0.01015259      -0.31472869
Ni       1.24054017       2.25461182       6.54888055        1       1.00000000      -0.04009280       0.05115859      -0.00626975
Pt       3.80981295       2.25198773       6.57412719        1       0.00000000      -0.14726429       0.07105541       0.13782955
Pt       6.45062120       2.17708056       6.52454760        1       0.00000000       0.07984625      -0.03612149      -0.20550973
Ni       9.01044875       2.24818918       6.54381546        1       1.00000000       0.05831430       0.19655811      -0.13112155
Ni       2.53362349       4.44437166       6.53317016        1       1.00000000      -0.05045765       0.04489871      -0.07540864
Pt       5.09860215       4.53040917       6.56653678        1       0.00000000       0.00049325       0.14359355       0.16119732
Ni       7.72317022       4.41031688       6.53131030        1       1.00000000       0.02428289      -0.08026407      -0.13863684
Ni      10.23804930       4.37371751       6.54443864        1       1.00000000      -0.04519197      -0.03832329      -0.04292115
Ni       3.82902711       6.64620415       6.52653018        1       1.00000000      -0.01330570       0.06741764      -0.09454323
Ni       6.39296977       6.63343822       6.42423008        1       1.00000000       0.01072667       0.00652611      -0.49007592
Pt       8.95974105       6.56354421       6.51647090        1       0.00000000      -0.01700933      -0.08678740       0.05501328
Pt      11.57723399       6.62203032       6.52019139        1       0.00000000       0.00468565      -0.04859620       0.01544378
