64
Lattice="10.21070788364887 -0.004593912381554059 -0.0009325612587676162 5.101375496999249 8.807110277202774 -0.019999576657788717 -0.0007614330792893824 -0.018416168107479265 8.730361609408407" Properties=species:S:1:pos:R:3:tags:I:1:initial_magmoms:R:1:forces:R:3 unique_id=6bebdaeeab584779b6ffed1737cf599c stress="-0.0009768299500009792 -7.188093333642958e-07 -4.440246491636922e-06 -7.188093333642958e-07 -0.0009817347836248852 6.701747421040387e-06 -4.440246491636922e-06 6.701747421040387e-06 -0.0008482432241606677" energy=-392.72805910297933 pbc="T T T"
Ni       0.03651241      -0.01439484       0.16962605        4       1.00000000       0.16771718      -0.07483293       0.18345793
Ni       2.53323566      -0.03406029       0.20339938        4       1.00000000      -0.00695383      -0.08929938       0.25453062
Ni       5.10376679      -0.02940278       0.08126344        4       1.00000000      -0.03377250      -0.02331289       0.07846055
Ni       7.65872759      -0.02013072       0.15233855        4       1.00000000       0.02658191       0.01323088       0.22827925
Ni       1.23584599       2.20667426       0.10142103        4       1.00000000      -0.09972686       0.01993453       0.19712970
Pt       3.77434267       2.20612939       0.18640339        4       0.00000000      -0.07658591      -0.02386581       0.29118218
Pt       6.43708621       2.21325597       0.08411483        4       0.00000000       0.06983749       0.08871129      -0.04802712
Ni       8.97681717       2.23450751       0.06286257        4       1.00000000       0.12768583       0.11820913       0.03008277
Ni       2.54500611       4.42226217       0.05420179        4       1.00000000      -0.00172953       0.02964662       0.01863114
Ni       5.09273548       4.44525787       0.06103815        4       1.00000000      -0.04305649       0.04689394       0.05265842
Ni       7.69506042       4.42273793       0.06498033        4       1.00000000       0.14306311       0.06796921       0.07196612
Ni      10.18970344       4.38052573       0.05583891        4       1.00000000      -0.10008834      -0.03952717       0.03144210
Ni       3.85312627       6.58433661       0.05121169        4       1.00000000       0.12992566      -0.07612171       0.01271643
Ni       6.37554462       6.61840497       0.06388945        4       1.00000000       0.01411573       0.06606763      -0.03366706
Ni       8.90636154       6.58580736       0.13298137        4       1.00000000      -0.13714673      -0.07943359       0.19095463
Ni      11.47937087       6.59168958       0.02281528        4       1.00000000      -0.08039470      -0.04422087      -0.12396062
Ni       1.30284212       0.73751212       2.14036659        3       1.00000000       0.03935181       0.06780037      -0.02604973
Ni       3.80334677       0.71550805       2.18164567        3       1.00000000      -0.04494838      -0.02997911      -0.03164772
Ni       6.36262042       0.74660926       2.17481486        3       1.00000000       0.04345978       0.02726663      -0.05855257
Pt       8.99441924       0.79164778       2.13190403        3       0.00000000       0.05197173      -0.00682090       0.03503170
Ni       2.53828140       2.93003287       2.19977521        3       1.00000000      -0.02768064       0.05755874       0.03388377
Ni       5.09216343       2.94395953       2.21354045        3       1.00000000      -0.02588147       0.05325540       0.03608742
Ni       7.68852550       2.96341504       2.18156245        3       1.00000000       0.08902439       0.12644382       0.03159617
Ni      10.20290495       2.93107537       2.16235480        3       1.00000000       0.00014799       0.04904781       0.05608082
Ni       3.84428247       5.09385457       2.17659968        3       1.00000000      -0.00091285      -0.11008270       0.01917394
Pt       6.38430318       5.15900618       2.13374402        3       0.00000000       0.00649158       0.03544850      -0.02736488
Ni       8.91631467       5.09932646       2.17739139        3       1.00000000      -0.00472210      -0.06610879       0.06079678
Pt      11.46766842       5.06618004       2.13095810        3       0.00000000      -0.05425556      -0.02315486      -0.06090709
Ni       5.13061610       7.32572397       2.12566810        3       1.00000000      -0.01854379      -0.02262207      -0.08953951
Ni       7.63813834       7.34562849       2.14221149        3       1.00000000      -0.02003895      -0.03667950      -0.03493221
Pt      10.13254985       7.35769193       2.18263551        3       0.00000000      -0.03909690      -0.01806109       0.01660075
Pt      12.78399115       7.29889586       2.12451579        3       0.00000000       0.05492566      -0.06762263      -0.01604430
Ni      -0.00220305       1.48937240       4.34968821        2       1.00000000       0.06155163      -0.02280821      -0.00044555
Pt       2.51867297       1.46799687       4.24461183        2       0.00000000       0.04039460      -0.04807796       0.12223804
Pt       5.11416841       1.40041716       4.27471890        2       0.00000000      -0.04544327      -0.01773356       0.00821028
Pt       7.71418689       1.49985161       4.33344514        2       0.00000000       0.04119589       0.00421745       0.05068518
Pt       1.23209680       3.70997016       4.39048697        2       0.00000000      -0.03174836      -0.00972083      -0.01214995
Ni       3.82162165       3.73626603       4.30655192        2       1.00000000      -0.06981408       0.07786268      -0.14611045
Pt       6.37524357       3.74374344       4.37086441        2       0.00000000      -0.02036369       0.02218005      -0.04432501
Ni       8.94457233       3.70738935       4.34104417        2       1.00000000      -0.00394921       0.17789065      -0.09510654
Ni       2.54640295       5.83783795       4.37244799        2       1.00000000      -0.05114443      -0.04818006      -0.08139280
Ni       5.06845210       5.82972507       4.35483122        2       1.00000000      -0.12081777      -0.03811186      -0.09758522
Ni       7.70435385       5.84562309       4.32309841        2       1.00000000       0.21140193      -0.04371454      -0.14055562
Ni      10.19776194       5.87039707       4.33060472        2       1.00000000      -0.02704550       0.01376970      -0.13311187
Pt       3.80957561       7.97715550       4.32676968        2       0.00000000      -0.01490574      -0.00238767       0.10370663
Pt       6.41206028       7.96858038       4.24317035        2       0.00000000       0.01812334      -0.09312786       0.04931687
Ni       8.95497301       8.01499400       4.31974131        2       1.00000000      -0.03195993      -0.09357957       0.04498147
Ni      11.44955945       7.99580482       4.33909929        2       1.00000000       0.00434521      -0.15522257      -0.03101571
Pt      -0.01567308       0.00437889       6.54060177        1       0.00000000      -0.03541746       0.00536225       0.11464509
Pt       2.58375760      -0.02598405       6.54125070        1       0.00000000       0.01247243       0.02813112       0.18548779
Ni       5.11144995      -0.03603599       6.46758100        1       1.00000000      -0.08968675      -0.04037400      -0.18481473
Pt       7.57048719      -0.04475148       6.54132469        1       0.00000000      -0.11076389      -0.03074909       0.10453715
Ni       1.23922038       2.23789045       6.48675265        1       1.00000000      -0.01815362       0.05777751      -0.00083149
Pt       3.84876780       2.29438326       6.44122064        1       0.00000000       0.02491345       0.20892380      -0.31126520
Ni       6.40023214       2.22446649       6.41630907        1       1.00000000       0.03771320       0.10494254      -0.18914852
Ni       8.94378697       2.25358632       6.47431494        1       1.00000000       0.02219326       0.15967944      -0.12188831
Ni       2.54143331       4.44942541       6.46390157        1       1.00000000      -0.00843651       0.17177398      -0.08011610
Ni       5.10540479       4.45165197       6.46780403        1       1.00000000      -0.00219820       0.19785979      -0.06531022
Ni       7.65610263       4.37118250       6.47382271        1       1.00000000       0.01198490      -0.05888909      -0.03317726
Ni      10.21180529       4.36297760       6.47401622        1       1.00000000      -0.00033089      -0.07150239       0.00436057
Ni       3.82067297       6.51813933       6.45942927        1       1.00000000      -0.02318439      -0.09658319      -0.10210708
Ni       6.35267128       6.52376620       6.45944636        1       1.00000000       0.00545936      -0.09423351      -0.17092491
Pt       8.97216863       6.50503536       6.45476838        1       0.00000000       0.03138415      -0.11423667       0.14065078
Ni      11.49723090       6.54194046       6.43451613        1       1.00000000       0.03346600      -0.18687687      -0.26748765
