64
Lattice="10.47700795352726 0.012304627567523195 0.028552093562037785 5.249160096821208 9.113147661576214 -0.018196414202980758 0.023312686771732295 -0.03061532981813573 9.062805489572977" Properties=species:S:1:pos:R:3:tags:I:1:initial_magmoms:R:1:forces:R:3 unique_id=27fc706c14c84999a3c3d46168c2ed4b stress="0.0008455497208771437 7.83267371159841e-06 2.3934078019221924e-06 7.83267371159841e-06 0.0008562435110526512 1.1706649796514362e-05 2.3934078019221924e-06 1.1706649796514362e-05 0.0007177627579890294" energy=-409.27163198398716 pbc="T T T"
Ni      -0.04729131      -0.01899211       0.15942011        4       1.00000000      -0.27285450      -0.09503994       0.21848639
Ni       2.64182476      -0.03024021       0.07558911        4       1.00000000       0.15290150      -0.06571806       0.12765131
Ni       5.25642385      -0.04506546       0.15581586        4       1.00000000       0.12554375      -0.09641028       0.18551045
Ni       7.88860274      -0.02815484       0.13093465        4       1.00000000       0.11091471      -0.17818725       0.23369033
Pt       1.23895752       2.22975283       0.10036338        4       0.00000000      -0.02386168      -0.07512745       0.07535213
Pt       3.94972428       2.20837190       0.11430357        4       0.00000000       0.03240290      -0.05688912       0.17147120
Pt       6.61761812       2.17250987       0.15236043        4       0.00000000       0.15914801      -0.15770231       0.04403755
Ni       9.16786370       2.25235874       0.09076301        4       1.00000000      -0.05963512      -0.15605496       0.16283778
Pt       2.57818669       4.63396994       0.09578594        4       0.00000000       0.05339667       0.08182183       0.08160168
Pt       5.28362401       4.57060956       0.14874697        4       0.00000000       0.15065342      -0.06506292       0.20700946
Pt       7.96790826       4.57969828       0.15611753        4       0.00000000       0.12461330      -0.06049072       0.10163402
Ni      10.47439278       4.59130287       0.07446247        4       1.00000000       0.04050707       0.10591443       0.10528283
Ni       3.92292785       6.89670401       0.15831136        4       1.00000000      -0.00568672       0.18901906       0.22440872
Pt       6.57687673       6.92535295       0.19590229        4       0.00000000       0.04171233       0.00080423       0.13769309
Ni       9.20289257       6.85489810       0.08035665        4       1.00000000       0.05928393       0.01739434       0.09834772
Ni      11.78895038       6.88137968       0.15077440        4       1.00000000       0.09595995       0.14095351       0.13071426
Pt       1.26863454       0.63867942       2.22744804        3       0.00000000       0.01385765       0.01688922      -0.08048105
Pt       3.99966580       0.72415769       2.29979201        3       0.00000000      -0.00247237       0.12228770       0.06160026
Ni       6.59278424       0.74091150       2.30440417        3       1.00000000       0.10768226      -0.06592863       0.02417581
Ni       9.12586048       0.72800021       2.25762130        3       1.00000000      -0.17798854       0.00739263      -0.12296446
Pt       2.64269274       3.03655047       2.29292281        3       0.00000000      -0.09921518       0.02294237      -0.17531032
Ni       5.28614491       3.02255778       2.31389640        3       1.00000000       0.03154591      -0.05143802      -0.02984249
Pt       7.80535251       3.02299609       2.40927342        3       0.00000000      -0.12782152      -0.00429103      -0.08638634
Pt      10.38632176       3.05540749       2.27536138        3       0.00000000      -0.15876588      -0.01979314      -0.16768820
Pt       3.99285934       5.40877093       2.26736255        3       0.00000000      -0.04666474       0.01394880      -0.17396343
Ni       6.61063359       5.32989008       2.30330957        3       1.00000000       0.20733404       0.02603514       0.02467276
Ni       9.14423178       5.34782399       2.32385017        3       1.00000000      -0.14869880       0.08547106       0.19572406
Pt      11.72636083       5.37172526       2.27943926        3       0.00000000      -0.06444160      -0.04576748      -0.01578544
Ni       5.22879054       7.59949017       2.23220696        3       1.00000000      -0.11431547       0.06098813      -0.00866911
Ni       7.88148745       7.54275615       2.27910713        3       1.00000000       0.09262462      -0.15735319       0.13480305
Pt      10.47663637       7.58611032       2.19507909        3       0.00000000      -0.03932746      -0.02803162       0.07417565
Ni      13.12918680       7.66089364       2.23242362        3       1.00000000      -0.05944646       0.17936629      -0.11303818
Pt      -0.11455080       1.55025022       4.48207766        2       0.00000000      -0.12599015       0.04167341      -0.07044132
Pt       2.64676995       1.46891792       4.49691500        2       0.00000000      -0.06901437       0.04153758       0.03689732
Ni       5.30610038       1.51883329       4.47962994        2       1.00000000       0.09955292       0.04525416      -0.18405089
Ni       7.84516339       1.54531663       4.50018506        2       1.00000000      -0.09184930       0.00224919      -0.14714534
Pt       1.21162979       3.83880587       4.50092245        2       0.00000000      -0.06503694       0.05073965      -0.00757040
Pt       4.03869093       3.73914152       4.43700106        2       0.00000000       0.09619554       0.01466652       0.03232526
Ni       6.61771265       3.76317338       4.48879339        2       1.00000000       0.07271416       0.02650819       0.04410360
Ni       9.13955797       3.82407997       4.50704468        2       1.00000000      -0.12324745       0.11388662      -0.19053626
Pt       2.60300262       6.09542402       4.45370429        2       0.00000000      -0.03526819       0.08428509       0.07022856
Pt       5.36240235       6.03487764       4.42184865        2       0.00000000       0.16920232      -0.05000922       0.11869512
Ni       7.92742148       6.01504960       4.46665978        2       1.00000000       0.09202564      -0.16290749      -0.23100916
Ni      10.42982295       6.05096518       4.53849244        2       1.00000000      -0.13366904      -0.04103483      -0.01178928
Pt       3.92356473       8.37598737       4.39515619        2       0.00000000       0.02070425      -0.04315329      -0.13829061
Pt       6.58770149       8.31406384       4.44368783        2       0.00000000      -0.06754478      -0.04623021       0.06487279
Pt       9.19833992       8.24673926       4.51957865        2       0.00000000      -0.04697701      -0.08992105       0.01780794
Pt      11.79936606       8.43182323       4.45746848        2       0.00000000      -0.03325756       0.05135968      -0.02178369
Pt      -0.02805988       0.02009831       6.80263411        1       0.00000000      -0.09431681       0.03381902       0.13860179
Ni       2.64268643      -0.03389434       6.75546117        1       1.00000000      -0.05582219       0.05384253      -0.13117744
Pt       5.22359870      -0.04650513       6.79999087        1       0.00000000      -0.03713695      -0.02631122       0.14059395
Ni       7.87309802       0.00261047       6.76220087        1       1.00000000      -0.04467346      -0.05159060      -0.12222572
Pt       1.25791449       2.26885648       6.68887121        1       0.00000000      -0.06969125       0.06480643      -0.22881459
Pt       3.95319956       2.21337536       6.68042440        1       0.00000000      -0.00194785       0.05164009      -0.27920760
Pt       6.65388062       2.21347532       6.62405354        1       0.00000000       0.05013264      -0.03818825      -0.08873338
Ni       9.18133829       2.27214460       6.74956784        1       1.00000000      -0.00375063       0.03089837      -0.11210690
Pt       2.59956946       4.53882083       6.67728578        1       0.00000000       0.09941195       0.01022941      -0.26758809
Pt       5.31042419       4.53488198       6.67761825        1       0.00000000       0.12715644       0.05089553      -0.16909129
Pt       7.99924393       4.54372897       6.61947259        1       0.00000000       0.04940713       0.03261898      -0.03316134
Ni      10.46761814       4.55731452       6.73835885        1       1.00000000       0.02096098       0.03668455      -0.12678717
Pt       3.92591873       6.86263799       6.77767599        1       0.00000000      -0.03274561       0.01495675       0.13504158
Pt       6.67280295       6.85446252       6.69783792        1       0.00000000       0.06230140       0.08825899      -0.03704115
Ni       9.19740147       6.81104637       6.72470786        1       1.00000000       0.01722851      -0.03047107      -0.12836946
Pt      11.72372048       6.81099721       6.78424999        1       0.00000000      -0.04394033      -0.05293608       0.08100167
