64
Lattice="9.835011163707327 0.0014546510960922522 -0.007592657869643762 4.918765346656523 8.51993297755026 -0.0019397296067918757 0.0 0.0 21.177978918377953" Properties=species:S:1:pos:R:3:tags:I:1:initial_magmoms:R:1:forces:R:3 unique_id=3956a5a52b8e413097c1ccad0a67aa2a energy=-355.6373021097612 stress="0.0038233983469770708 1.2436744121663504e-05 -2.679248383691475e-05 1.2436744121663504e-05 0.003801767248263475 7.769814131364325e-06 -2.679248383691475e-05 7.769814131364325e-06 -0.0019689513603127753" pbc="T T T"
Ni       0.00577393      -0.00639945       0.03832623        0       1.00000000      -0.00420928       0.01854212       0.01489708
Ni       2.45825281       0.00058517       0.03810305        0       1.00000000       0.01183412       0.00825523       0.04642231
Ni       4.91084563      -0.00492424       0.03613915        0       1.00000000      -0.01469918      -0.00673330       0.04222702
Ni       7.37462251      -0.00923977       0.04166659        0       1.00000000       0.00737558       0.02632632       0.04103217
Ni       1.24021961       2.12997933       0.04367275        0       1.00000000      -0.00674086      -0.00172629       0.02821744
Ni       3.67954299       2.12837209       0.03754024        0       1.00000000      -0.00619574      -0.01459732       0.05119837
Ni       6.11689060       2.11593971       0.00550625        0       1.00000000      -0.00050672      -0.03057161      -0.08126739
Ni       8.64193601       2.11115418       0.11747284        1       1.00000000       0.07415386      -0.04252558      -0.80675705
Ni       2.45620398       4.25943049       0.03671052        0       1.00000000      -0.00666798       0.00001945       0.05715858
Ni       4.90981234       4.26285054       0.04721093        0       1.00000000      -0.00739846      -0.03045049      -0.09238157
Ni       7.37634798       4.29156542       0.00000000        0       1.00000000       0.02192036       0.00412920      -0.09722465
Ni       9.84341565       4.26633309       0.03986649        0       1.00000000      -0.00921632      -0.01853962       0.02653000
Ni       3.68647343       6.39034797       0.05048917        1       1.00000000      -0.03020174       0.00748814      -0.05484519
Ni       6.14570992       6.40047864       0.04251663        0       1.00000000       0.03151617       0.02510561      -0.10233404
Ni       8.60786718       6.39937720       0.03423432        0       1.00000000       0.00834731       0.01211802       0.04124217
Ni      11.06499083       6.39143636       0.03650685        0       1.00000000      -0.01185472      -0.00071748       0.08408127
Ni       1.23834765       0.71101322       2.05766217        3       1.00000000      -0.00512736       0.02149740       0.02573149
Ni       3.67937056       0.70581500       2.06205753        3       1.00000000      -0.00634051      -0.00617453      -0.00014767
Ni       6.11842112       0.66797485       2.05837529        3       1.00000000      -0.00261250      -0.00203849       0.04690847
Ni       8.62604593       0.66557322       2.06631841        3       1.00000000      -0.01555070      -0.01091785       0.07154636
Ni       2.45504563       2.83728782       2.06336515        3       1.00000000      -0.00306477      -0.00347253       0.02598249
Ni       4.86424119       2.83479009       2.06220097        3       1.00000000      -0.02259777      -0.01112473       0.04436088
Pt       7.36589543       2.84475546       2.07246629        3       0.00000000      -0.04017001       0.01311478       0.00773873
Ni       9.88929809       2.84794373       2.06822423        3       1.00000000       0.01599560       0.02043752       0.07242320
Ni       3.65849149       4.96221779       2.03268436        2       1.00000000      -0.02820338      -0.00247267       0.01640880
Ni       6.14164283       5.00721007       2.02254436        2       1.00000000      -0.00751576       0.02952962       0.01030160
Ni       8.63358127       5.01362972       2.05409066        3       1.00000000       0.01457815      -0.00079937       0.03709519
Ni      11.06610902       4.97564886       2.05746685        3       1.00000000      -0.00013858       0.01027972       0.01812750
Ni       4.91853301       7.12194931       2.03097002        2       1.00000000      -0.00084994       0.00386106       0.02020273
Ni       7.38260728       7.11332990       2.05902396        3       1.00000000       0.01950297       0.02355591       0.00201254
Ni       9.83400847       7.10137181       2.06028825        3       1.00000000      -0.00046054       0.00223445       0.01318085
Ni      12.28672235       7.09439806       2.05928706        3       1.00000000      -0.01489358      -0.01332911       0.03621354
Ni       0.02447584       1.41378537       4.08101743        4       1.00000000      -0.00428090       0.01434473      -0.01682743
Ni       2.46308079       1.41860834       4.10331595        4       1.00000000      -0.00799493       0.00598285      -0.05716330
Ni       4.90071086       1.40716002       4.10447891        4       1.00000000      -0.01235198      -0.01353281      -0.04447583
Ni       7.34716545       1.38061696       4.11225108        4       1.00000000      -0.00641083      -0.01670445       0.00102204
Ni       1.23164379       3.55144248       4.11304368        4       1.00000000       0.01309293      -0.00617829      -0.00264036
Ni       3.65605951       3.51079160       4.11376586        4       1.00000000      -0.01753165      -0.00958831      -0.02049321
Ni       6.13987325       3.52036677       4.15268471        5       1.00000000      -0.00640099      -0.02722005       0.01790565
Ni       8.63560039       3.59065897       4.11043283        4       1.00000000       0.03150856       0.00782886       0.00707789
Ni       2.40727906       5.68105518       4.11315401        4       1.00000000      -0.00609330       0.00309389      -0.02287671
Pt       4.91033313       5.68600600       4.11307294        4       0.00000000       0.00354436       0.01320924       0.10719749
Ni       7.42094582       5.69717883       4.10309302        4       1.00000000       0.00552971       0.01446301      -0.06292971
Ni       9.83879332       5.69439409       4.10217318        4       1.00000000       0.01120366       0.00669023      -0.04268330
Ni       3.66103900       7.84310413       4.11491467        4       1.00000000      -0.00093644      -0.01005575      -0.00709212
Ni       6.17689821       7.84829534       4.10341126        4       1.00000000       0.00416321       0.00959760      -0.05754390
Ni       8.61091579       7.81591570       4.10439512        4       1.00000000       0.00587591       0.00701500      -0.04643850
Ni      11.04756246       7.80381845       4.10304095        4       1.00000000      -0.00825088      -0.01269273      -0.02800009
Ni       0.02625217      -0.03972668       6.13304207        6       1.00000000      -0.03337548       0.04794428       0.00332879
Ni       2.46905897       0.00265048       6.13499343        6       1.00000000       0.03875476      -0.01590515      -0.06448912
Ni       4.90529069      -0.00300507       6.13311961        6       1.00000000      -0.03344066      -0.03178845      -0.07484112
Ni       7.33779944      -0.04001321       6.13538027        6       1.00000000       0.04075608       0.05581454       0.02551752
Ni       1.27997110       2.12907706       6.13164981        6       1.00000000      -0.06524120       0.00937829      -0.03189103
Ni       3.68318489       2.12231587       6.13690252        6       1.00000000      -0.00828088      -0.00914087      -0.06332853
Ni       6.09100418       2.11895199       6.12617181        6       1.00000000       0.05217717      -0.02218709       0.15140140
Pt       8.60488046       2.13086591       6.17158488        7       0.00000000       0.03313810      -0.01354246       0.39306016
Ni       2.45726359       4.26244178       6.13654593        6       1.00000000       0.02372928       0.00937655      -0.01926594
Ni       4.90396281       4.23641384       6.17797892        7       1.00000000      -0.03298598      -0.00565317       0.11876095
Ni       7.35453914       4.30817813       6.12144489        6       1.00000000       0.03480141      -0.03641563       0.13849515
Ni       9.85954057       4.30964712       6.13032694        6       1.00000000      -0.01999389      -0.07099879      -0.00862367
Ni       3.65715638       6.39697071       6.17641525        7       1.00000000      -0.02239682      -0.01485382       0.11004335
Ni       6.17285944       6.40728666       6.17167375        7       1.00000000       0.02048243       0.02601487       0.06485497
Ni       8.61075628       6.40346356       6.13259119        6       1.00000000       0.01388403       0.04776409      -0.06653845
Ni      11.05374904       6.39413302       6.13289928        6       1.00000000      -0.00668255       0.00763624      -0.04680628
