64
Lattice="10.163839501907828 6.744024059435927e-05 -0.006763580942475434 5.081978155915558 8.709954079793864 -0.10090236030341881 -0.005522440714359206 -0.0919432749780158 8.663365415654706" Properties=species:S:1:pos:R:3:tags:I:1:initial_magmoms:R:1:forces:R:3 unique_id=bdd91f9c4e234464b53774a9082ae86d stress="-0.006341172890579866 5.6626428062671375e-06 -4.479223733871021e-06 5.6626428062671375e-06 -0.006257865246762473 3.962857353683589e-06 -4.479223733871021e-06 3.962857353683589e-06 -0.005420322417443377" energy=-389.87513080937026 pbc="T T T"
Ni       0.03385845      -0.05696750       0.20065411        4       1.00000000       0.06014925      -0.08235578       0.15394731
Ni       2.48905516      -0.01720829       0.17462277        4       1.00000000      -0.04199336      -0.00138069       0.04365863
Pt       5.10822400      -0.03935112       0.16169101        4       0.00000000      -0.01986289      -0.01681628      -0.17721646
Ni       7.64212606      -0.05989077       0.19191167        4       1.00000000       0.05376284      -0.11516145       0.14315501
Ni       1.26133051       2.18868283       0.10502762        4       1.00000000      -0.02795096       0.03308006       0.10623593
Pt       3.76979952       2.24339421       0.17285801        4       0.00000000      -0.03421196      -0.01460582      -0.09617913
Ni       6.35626133       2.22321972       0.09849473        4       1.00000000      -0.02539825       0.04983678       0.09128464
Pt       8.89674441       2.22396537       0.09910484        4       0.00000000       0.00228899       0.02012482      -0.19934298
Ni       2.51494248       4.39223421       0.05831666        4       1.00000000      -0.00243723      -0.00238098       0.03989854
Ni       5.09858862       4.39362389       0.06008949        4       1.00000000      -0.03868767       0.01109709       0.03526632
Ni       7.58676000       4.38376746       0.06845871        4       1.00000000      -0.04990078       0.01487639       0.10710189
Ni      10.19941662       4.38098116       0.06232107        4       1.00000000       0.05330233       0.01044266       0.08386325
Ni       3.81418073       6.49627959       0.03633992        4       1.00000000       0.01039948      -0.09419189       0.00391998
Ni       6.31505824       6.49558577       0.00348311        4       1.00000000      -0.06082935      -0.06984111      -0.09503018
Ni       8.87581984       6.45410928       0.08070080        4       1.00000000      -0.00736474      -0.13313254       0.06119248
Ni      11.47738907       6.46533287       0.00838436        4       1.00000000       0.05427846      -0.07562562      -0.03204843
Ni       1.28310851       0.75581157       2.19096086        3       1.00000000       0.00719013       0.04643337       0.08374270
Ni       3.74910470       0.72310622       2.18835692        3       1.00000000      -0.09666827      -0.04003413       0.00239301
Ni       6.38503676       0.73923786       2.17092467        3       1.00000000       0.05033186       0.00396129       0.02633610
Pt       8.91340554       0.71394932       2.19849697        3       0.00000000       0.05139299      -0.00661799       0.14747644
Ni       2.50141209       2.91507135       2.21843260        3       1.00000000       0.00764993       0.02184310       0.08300484
Ni       5.09036178       2.93725904       2.14368879        3       1.00000000      -0.01063309       0.07669523       0.02485097
Ni       7.60321833       2.92716175       2.15777579        3       1.00000000       0.00468803       0.02046537       0.02077199
Ni      10.21056319       2.92770754       2.19001698        3       1.00000000       0.04008488       0.03007256       0.03070387
Ni       3.80248690       5.04549635       2.12064125        3       1.00000000      -0.01642578      -0.05454629       0.01241451
Ni       6.31942586       5.03973749       2.08942315        3       1.00000000      -0.04576272      -0.00045080       0.01663032
Ni       8.89116856       4.98736630       2.12358951        3       1.00000000       0.00040499      -0.05326821       0.02950677
Ni      11.47016142       5.00172978       2.12827607        3       1.00000000       0.03661295      -0.05418427       0.06840904
Ni       5.06459689       7.16650209       2.06348639        3       1.00000000      -0.05824159      -0.10649866       0.02698699
Pt       7.55776345       7.21158410       2.10465648        3       0.00000000      -0.04492466      -0.04136285      -0.00240051
Pt      10.21538535       7.15644436       2.16597630        3       0.00000000       0.01714049      -0.09408460       0.05738703
Ni      12.72295091       7.15892267       2.05850874        3       1.00000000       0.04734767      -0.12279451       0.03217398
Ni       0.06007248       1.45001146       4.25586964        2       1.00000000       0.06309316       0.00771668      -0.02622792
Ni       2.48198087       1.43367231       4.22353612        2       1.00000000       0.00423021       0.02937388      -0.04267061
Pt       5.06116396       1.39983176       4.16436140        2       0.00000000      -0.02435699       0.02890293      -0.14226777
Ni       7.61951401       1.41713423       4.25453688        2       1.00000000      -0.04403947      -0.03168416      -0.05157039
Ni       1.27172789       3.59334830       4.25711591        2       1.00000000       0.02844104      -0.01797170      -0.04094107
Ni       3.75654388       3.65972367       4.20282055        2       1.00000000       0.01453037       0.06595034      -0.11914904
Pt       6.37886306       3.65075374       4.25004094        2       0.00000000       0.01908351      -0.01247357      -0.02102117
Ni       8.94418805       3.63837932       4.18838923        2       1.00000000       0.03045744       0.05649033      -0.13606317
Ni       2.51219883       5.70086836       4.22935317        2       1.00000000      -0.03152364      -0.04199659      -0.14860031
Ni       5.07469416       5.74690960       4.22799257        2       1.00000000       0.01295094      -0.02906324      -0.14868855
Ni       7.62808554       5.77637798       4.21161143        2       1.00000000       0.05027701       0.01520290      -0.06684252
Ni      10.19617314       5.70283097       4.23089694        2       1.00000000       0.04174901      -0.06049875      -0.03459516
Pt       3.81393392       7.85046805       4.17038221        2       0.00000000      -0.00072852       0.00804700       0.04347807
Ni       6.35464900       7.92398889       4.18160450        2       1.00000000      -0.05447569       0.02282970      -0.01649067
Ni       8.85590862       7.90354652       4.18243382        2       1.00000000      -0.05149352      -0.04095828      -0.03389627
Ni      11.45504844       7.86982973       4.18273140        2       1.00000000       0.06705604      -0.06342413      -0.04938107
Pt       0.01343737      -0.09956162       6.46749853        1       0.00000000      -0.07433353       0.06505857       0.18592238
Pt       2.52028767      -0.05731578       6.39987350        1       0.00000000       0.08529755       0.07882177       0.05035949
Pt       5.09269811      -0.07976780       6.31817562        1       0.00000000      -0.07825033       0.02281483       0.06618850
Pt       7.60957382      -0.10214034       6.45989229        1       0.00000000       0.04440856       0.07683329       0.19470752
Ni       1.26492392       2.18865959       6.35082455        1       1.00000000       0.02005231       0.06978511      -0.06556795
Pt       3.78166609       2.26899605       6.31096774        1       0.00000000      -0.02381404       0.11900385       0.05501286
Ni       6.34721394       2.17621293       6.38420373        1       1.00000000      -0.03084456       0.06085321      -0.01525772
Pt       8.90101360       2.23303925       6.24700816        1       0.00000000       0.00070324       0.07948217      -0.03613951
Ni       2.50523329       4.36071886       6.33045281        1       1.00000000      -0.00400600       0.09321244      -0.07626439
Ni       5.08521892       4.36608681       6.36400948        1       1.00000000      -0.02660420       0.11878927      -0.01005967
Ni       7.56269704       4.30608747       6.37667058        1       1.00000000      -0.10529244       0.04140984       0.06825282
Ni      10.24427356       4.29982184       6.32981170        1       1.00000000       0.13724420       0.02387843      -0.05130114
Ni       3.80589501       6.37901127       6.33751589        1       1.00000000      -0.01816433      -0.02326307      -0.04606698
Ni       6.32033483       6.40551048       6.30948007        1       1.00000000       0.00232010       0.03486657      -0.18173382
Pt       8.89028784       6.33957276       6.33242293        1       0.00000000       0.01874964      -0.00486400       0.07914682
Ni      11.46579168       6.39624112       6.30502326        1       1.00000000       0.01155094       0.04728014      -0.11236645
