64
Lattice="10.66269193923915 -0.009518840826987595 0.01387141473215728 5.323102411648825 9.269753121653885 0.054360088328391135 0.011325962701436914 0.04471213516270061 9.281687790717429" Properties=species:S:1:pos:R:3:tags:I:1:initial_magmoms:R:1:forces:R:3 unique_id=1b5b62b2c8c24509a312e634d46e5fb5 stress="0.00020058056459946322 3.7098300462939043e-06 -2.709307655013289e-06 3.7098300462939043e-06 0.0001947016320825376 3.28786761941509e-06 -2.709307655013289e-06 3.28786761941509e-06 0.00017560851608448835" energy=-424.51804838318395 pbc="T T T"
Pt       0.00232302       0.00122196       0.11936766        4       0.00000000       0.04538334       0.08489792       0.03607155
Ni       2.67282478      -0.00244842       0.10603277        4       1.00000000       0.03985248       0.00143839       0.37551688
Pt       5.33130240       0.02570516       0.12949274        4       0.00000000      -0.05912671       0.00660885       0.11267909
Ni       7.99394795       0.00936008       0.10878823        4       1.00000000      -0.01767258       0.08316569       0.39365485
Pt       1.33739769       2.29972322       0.13297790        4       0.00000000      -0.12507345       0.01548632       0.04737346
Pt       4.00369206       2.27837696       0.16099521        4       0.00000000      -0.07498677      -0.07044875       0.14289801
Ni       6.67318359       2.31232583       0.12348617        4       1.00000000      -0.00573400      -0.00372646       0.40104056
Pt       9.25427102       2.30552006       0.05688730        4       0.00000000      -0.18046105      -0.06957204      -0.09161195
Pt       2.66405831       4.62040205       0.15420085        4       0.00000000       0.01188903      -0.02484668       0.16923494
Pt       5.38939865       4.60021159       0.14134174        4       0.00000000       0.20565164      -0.11624731       0.08659405
Ni       7.99268043       4.62390035       0.13187808        4       1.00000000       0.00486562       0.01645933       0.34075822
Pt      10.60406965       4.63032363       0.15558593        4       0.00000000      -0.15916511      -0.04578696       0.19759966
Pt       3.99819959       6.98563195       0.15884399        4       0.00000000       0.04710519       0.01443601       0.11016629
Pt       6.67868661       6.96610900       0.15938417        4       0.00000000       0.00643587       0.11107628       0.05851059
Pt       9.29604466       6.94299343       0.09817464        4       0.00000000      -0.04059400       0.03331573       0.01126019
Pt      11.99273236       6.98205130       0.15727024        4       0.00000000      -0.00414514       0.07086746       0.17026609
Pt       1.37665585       0.77378156       2.37782164        3       0.00000000      -0.02660789      -0.04539287       0.05541937
Ni       3.98406838       0.78795523       2.33242763        3       1.00000000      -0.07485121      -0.00780484       0.08119682
Pt       6.65591760       0.79154639       2.29780650        3       0.00000000       0.06987320       0.04110949      -0.01403124
Pt       9.35652110       0.77006004       2.35544800        3       0.00000000       0.11154394       0.14942184       0.01997888
Ni       2.66522604       3.08348868       2.36111679        3       1.00000000      -0.03519289      -0.07607956       0.10077395
Pt       5.29149836       3.06079938       2.35133713        3       0.00000000      -0.06528485      -0.05754343       0.08467767
Pt       8.00844997       3.12896418       2.31098750        3       0.00000000       0.08277981       0.08928954      -0.06192596
Pt      10.69278466       3.09088479       2.43066352        3       0.00000000       0.16631459      -0.15661205       0.24054550
Pt       4.00499515       5.41397533       2.38108725        3       0.00000000       0.07527731       0.01124621      -0.00849617
Pt       6.69899625       5.43550889       2.35745156        3       0.00000000       0.13770360       0.04738285       0.01710719
Ni       9.32232549       5.41446262       2.36250580        3       1.00000000      -0.00955807       0.02533083       0.04646176
Pt      11.97716873       5.37165235       2.41485573        3       0.00000000      -0.02556238      -0.10157398       0.11562968
Ni       5.33897462       7.73998261       2.38419889        3       1.00000000       0.10054672       0.03750910       0.07735394
Pt       7.97869317       7.76242809       2.39855634        3       0.00000000      -0.07564537       0.10042406       0.09902834
Pt      10.61854076       7.72367387       2.40725957        3       0.00000000      -0.07249999      -0.03117582       0.11633290
Pt      13.34832207       7.74366574       2.38693170        3       0.00000000       0.01193976       0.02935820       0.05478095
Ni       0.01663270       1.57332242       4.64276963        2       1.00000000       0.05406406       0.02377639      -0.08421664
Pt       2.59431912       1.56396398       4.57036157        2       0.00000000      -0.11621612       0.01901110      -0.17964300
Pt       5.31747811       1.55670021       4.60609725        2       0.00000000      -0.05239837      -0.06733493      -0.12031415
Pt       8.05735956       1.56583880       4.65090359        2       0.00000000       0.08135055      -0.01379862      -0.08295025
Ni       1.32632567       3.86595963       4.63995843        2       1.00000000      -0.02963867      -0.09956411      -0.13259061
Pt       3.94633411       3.86813788       4.60349818        2       0.00000000      -0.15999461      -0.09137306      -0.16079408
Pt       6.67643831       3.88175998       4.62895369        2       0.00000000       0.02287344      -0.04232576      -0.13220950
Pt       9.38947118       3.84178821       4.64636705        2       0.00000000       0.07633359      -0.04976146      -0.09761937
Pt       2.64837539       6.17709105       4.63836823        2       0.00000000      -0.02386737       0.02231913      -0.06300579
Pt       5.35048567       6.24647567       4.62007995        2       0.00000000       0.08585262       0.09143237      -0.21015446
Pt       8.01123977       6.21335434       4.65697236        2       0.00000000       0.07397585      -0.11800149      -0.11184127
Pt      10.64678693       6.16803898       4.65333400        2       0.00000000      -0.06597635      -0.01885711      -0.12052397
Pt       4.06893010       8.55268372       4.62909120        2       0.00000000       0.22180232       0.05492082      -0.21918534
Ni       6.65610725       8.53450872       4.66807003        2       1.00000000       0.00253451       0.09104768      -0.13216857
Pt       9.27745426       8.52101297       4.66644710        2       0.00000000      -0.13123596       0.12331445      -0.08786806
Pt      12.00684689       8.51638878       4.66317187        2       0.00000000       0.08720509       0.06871570      -0.12826417
Pt       0.00833070       0.06488861       6.82406267        1       0.00000000       0.00641609       0.03370535      -0.13885042
Pt       2.67548481       0.00369763       6.91980296        1       0.00000000      -0.01540752       0.01542308       0.02764461
Pt       5.32301111       0.00133737       6.88171703        1       0.00000000      -0.01932163      -0.03478078      -0.09213065
Pt       8.02160629       0.05405995       6.95406861        1       0.00000000       0.02833401      -0.00071799       0.08298501
Pt       1.29050257       2.35152865       6.82958395        1       0.00000000      -0.11765542       0.00780443      -0.13928038
Pt       3.99701970       2.33428121       6.88597276        1       0.00000000      -0.04816801      -0.06801077      -0.06643526
Pt       6.71411520       2.34713740       6.97290848        1       0.00000000       0.07065508       0.00817244       0.08396245
Ni       9.33433826       2.34253518       6.89138719        1       1.00000000       0.00759717      -0.01313769      -0.35147053
Pt       2.64788355       4.65421114       6.87636287        1       0.00000000      -0.03671912      -0.05870805      -0.07171109
Pt       5.34771214       4.66263631       6.89925651        1       0.00000000       0.01238645      -0.00615235      -0.17801885
Pt       8.03579617       4.66280136       6.96770628        1       0.00000000       0.04644507       0.00722448       0.02599184
Pt      10.64173001       4.64969495       6.88837498        1       0.00000000      -0.03706266      -0.01899381      -0.02614814
Pt       4.00039171       6.99747333       6.90228698        1       0.00000000      -0.01015348       0.03228138      -0.14047899
Pt       6.70103030       6.99658950       6.89356476        1       0.00000000       0.03273143       0.00531955      -0.13189057
Ni       9.32769071       6.97548746       6.91926533        1       1.00000000      -0.02152536      -0.05202142      -0.32677986
Pt      11.96211796       6.97810315       6.91957475        1       0.00000000      -0.09021733      -0.01294230      -0.08088602
