64
Lattice="10.177930789034571 0.009836271925918813 -0.033550487386113374 5.097483855883659 8.793213635811297 -0.0759762834764402 0.0 0.0 21.503273753217783" Properties=species:S:1:pos:R:3:tags:I:1:initial_magmoms:R:1:forces:R:3 unique_id=8c4ce08709194877bdff4c5a0d29bf1c energy=-370.2468178919564 stress="0.004769591462335169 -3.313352868634297e-05 -0.00022164118731676774 -3.313352868634297e-05 0.004271472138333336 -0.00014053147858616804 -0.00022164118731676774 -0.00014053147858616804 -0.001759856602754177" pbc="T T T"
Ni       0.03863732      -0.04997469       0.18281705        2       1.00000000       0.09862474      -0.00830996      -0.24318205
Ni       2.50974614      -0.04198723       0.11088690        1       1.00000000       0.00130224      -0.01373547       0.28111198
Ni       5.07838044      -0.03947144       0.16262871        2       1.00000000      -0.07563228       0.04169379      -0.47218329
Ni       7.62287382      -0.06412371       0.15821659        2       1.00000000      -0.07832907      -0.02987879      -0.27982266
Ni       1.27150420       2.20147601       0.09389032        1       1.00000000      -0.01444242      -0.00293236       0.33158542
Pt       3.72551222       2.16514897       0.16257272        2       0.00000000       0.05558552       0.03785379      -0.52801886
Pt       6.36865062       2.16276020       0.06791207        1       0.00000000      -0.03822226      -0.01786348      -0.27495486
Pt       8.98397890       2.24929868       0.08035918        1       0.00000000       0.01796443       0.07636295      -0.72865661
Ni       2.49413008       4.43124388       0.06935592        1       1.00000000      -0.01420235       0.01988435       0.37103484
Pt       5.07500909       4.49433486       0.04940541        0       0.00000000      -0.11221687      -0.03839811      -0.04634649
Ni       7.64606577       4.44842845       0.02401568        0       1.00000000      -0.01866581       0.03421630       0.06043174
Ni      10.22763417       4.43727987       0.01911909        0       1.00000000       0.09739221       0.08514452       0.26291834
Ni       3.79062448       6.62415279       0.05558649        1       1.00000000      -0.01732258       0.03846437       0.26797793
Ni       6.38143760       6.63740649       0.04670970        0       1.00000000      -0.00840714       0.01498586       0.27071976
Ni       8.88929422       6.59796840       0.08208109        1       1.00000000      -0.06842686       0.03596688      -0.31603088
Ni      11.48070314       6.57801729       0.00000000        0       1.00000000       0.02541721      -0.03286439       0.25273482
Ni       1.30330769       0.72716092       2.19037162        4       1.00000000       0.05491067       0.09073517       0.12220375
Ni       3.75485379       0.71442692       2.18142555        4       1.00000000      -0.19058726      -0.04713361       0.04263224
Ni       6.36381158       0.72747553       2.17577023        4       1.00000000       0.07123624       0.03186703       0.14493455
Pt       8.92174266       0.72325665       2.17803694        4       0.00000000       0.08880694       0.08613709      -0.03284726
Ni       2.50212341       2.94097663       2.22681895        4       1.00000000       0.00006254       0.02105664       0.14968107
Ni       5.06439023       2.95131137       2.18481735        4       1.00000000      -0.10860268       0.13392311       0.10554663
Ni       7.61378418       2.92577515       2.18266763        4       1.00000000      -0.01584585      -0.06087955       0.07043633
Ni      10.25253891       2.93363609       2.19608210        4       1.00000000       0.17668489      -0.04299111       0.19687943
Ni       3.77036649       5.11724703       2.16044452        4       1.00000000      -0.10570376      -0.09066054       0.06915597
Ni       6.35452460       5.14725036       2.13137901        3       1.00000000       0.02492911       0.01944702       0.00329899
Pt       8.89527300       5.07871375       2.14448630        3       0.00000000       0.04229762      -0.10313931       0.01057550
Ni      11.49440887       5.09145860       2.12939476        3       1.00000000       0.05594286      -0.09853869       0.18382698
Ni       5.11840613       7.28321679       2.08836172        3       1.00000000      -0.01506748      -0.07935475       0.01152981
Ni       7.57379672       7.33654303       2.08728915        3       1.00000000      -0.11035472       0.01752336       0.05381706
Pt      10.23916942       7.31954501       2.08791737        3       0.00000000       0.12367115      -0.10149689       0.09901223
Ni      12.73932581       7.26715584       2.07768313        3       1.00000000       0.10819879      -0.14553105       0.08326386
Ni       0.04948760       1.47812139       4.29439457        6       1.00000000       0.11148584       0.06147540      -0.16212220
Ni       2.45906792       1.46963746       4.27339775        6       1.00000000      -0.08497631       0.06434066      -0.18404390
Pt       5.08038874       1.44311634       4.20526542        5       0.00000000      -0.03681839      -0.02265300      -0.09970492
Ni       7.63375307       1.45058102       4.27069791        6       1.00000000       0.04611524      -0.06374549      -0.22572252
Ni       1.26710479       3.63977381       4.30848169        6       1.00000000       0.04422714      -0.00564034      -0.10239017
Ni       3.73187926       3.66965277       4.25314707        6       1.00000000      -0.15719449       0.02099940      -0.28673487
Pt       6.42705773       3.65037831       4.27117669        6       0.00000000       0.08792917      -0.06635130      -0.10075471
Ni       8.95909197       3.67303572       4.24941375        5       1.00000000       0.21469071      -0.00254282      -0.11979377
Ni       2.48748218       5.78946473       4.29106011        6       1.00000000      -0.07415303      -0.08413989      -0.16411235
Pt       5.07548614       5.83289178       4.26235502        6       0.00000000       0.01369355      -0.03295097      -0.09624707
Ni       7.62985799       5.82603792       4.26310790        6       1.00000000      -0.00358877       0.00816989      -0.15618887
Ni      10.21670303       5.79229741       4.28202092        6       1.00000000       0.09355786      -0.02642490      -0.05417351
Pt       3.78658900       8.02132235       4.22717093        5       0.00000000      -0.10536743       0.06434937       0.03469612
Ni       6.35911029       8.05612679       4.22122307        5       1.00000000      -0.15635618       0.08533870      -0.24550744
Pt       8.82228590       8.00829203       4.20339669        5       0.00000000      -0.07044934       0.03308773       0.01502943
Ni      11.44394582       7.98624875       4.22550650        5       1.00000000      -0.04960046      -0.10633223      -0.03622688
Pt       0.08089747      -0.06476890       6.49876611        9       0.00000000      -0.03897129       0.12803169       0.14578059
Ni       2.52047744      -0.03777927       6.45571959        9       1.00000000       0.06896083       0.01099495      -0.08175902
Pt       5.04946569      -0.04592909       6.50327375        9       0.00000000       0.07566982       0.03575571       0.46045013
Pt       7.61639511      -0.07437872       6.48074538        9       0.00000000       0.00392217       0.13762925       0.45307757
Ni       1.25872531       2.20334331       6.41209886        8       1.00000000      -0.00933863       0.12583855      -0.24463071
Pt       3.73358809       2.24556962       6.36487553        8       0.00000000      -0.08120299       0.16499281       0.53176433
Ni       6.34382314       2.20395467       6.36011435        8       1.00000000      -0.03011294      -0.05604467       0.31764077
Pt       8.91141743       2.25781818       6.29877882        7       0.00000000       0.03546236      -0.10232802       0.66840860
Ni       2.49656138       4.40380833       6.39452941        8       1.00000000       0.04439222       0.00399284      -0.36066377
Ni       5.07567532       4.39183702       6.34847418        7       1.00000000      -0.10372480      -0.02190262       0.21674925
Ni       7.58764632       4.37199579       6.40678301        8       1.00000000      -0.02576388      -0.01709236      -0.00671663
Ni      10.22413785       4.37398452       6.36907561        8       1.00000000       0.10475302      -0.03188671      -0.26943164
Ni       3.79363930       6.49249021       6.42034124        8       1.00000000       0.00192124      -0.07919589      -0.14853170
Ni       6.34821676       6.52169973       6.40422686        8       1.00000000      -0.00767956      -0.05098658      -0.15651011
Pt       8.86528003       6.46457252       6.42244419        8       0.00000000       0.07587882      -0.12995348       0.16706887
Ni      11.46119054       6.49418074       6.36017905        8       1.00000000      -0.03835928       0.08362015      -0.23196517
