64
Lattice="10.261278017192122 0.010446925562766772 -0.022949261432436814 5.139686311524862 8.885502425094083 0.017999440685338514 0.0 0.0 21.494642312387455" Properties=species:S:1:pos:R:3:tags:I:1:initial_magmoms:R:1:forces:R:3 unique_id=79d5a7689b054f059e56e2ba01f2b24a stress="0.005505888571674325 0.00025551529237505125 -0.00014915857475631582 0.00025551529237505125 0.005716706355481212 0.0001274320849242587 -0.00014915857475631582 0.0001274320849242587 -0.0017331895271255095" energy=-374.20138122705583 pbc="T T T"
Ni      -0.00195607       0.02759864       0.10934404        1       1.00000000       0.09238877      -0.02274265      -0.14941372
Ni       2.55403267       0.01304199       0.13994120        1       1.00000000      -0.04931511       0.03066352      -0.07611382
Ni       5.12526183       0.00025912       0.08404199        1       1.00000000      -0.03739482       0.19915217      -0.39124470
Ni       7.69925645      -0.03482421       0.09949990        1       1.00000000      -0.07792217      -0.13212047      -0.24161482
Ni       1.24740037       2.23102947       0.04738043        0       1.00000000      -0.06323874       0.01545791       0.41164537
Pt       3.78451524       2.24176932       0.12384636        1       0.00000000       0.00566861       0.00516640      -0.55257886
Pt       6.43856254       2.18157636       0.04129463        0       0.00000000      -0.00776967      -0.03354425      -0.04727761
Ni       9.02387698       2.23205411       0.06706060        1       1.00000000       0.04747925       0.12439233      -0.10110663
Ni       2.56154805       4.47364849       0.01517496        0       1.00000000       0.09073980      -0.01554348       0.21674814
Ni       5.10063710       4.47042334       0.12696464        1       1.00000000      -0.04768015       0.03269345       0.04555961
Pt       7.76642635       4.45799401       0.04308651        0       0.00000000       0.02946708       0.05938720      -0.04307928
Ni      10.29871942       4.44310910       0.00611085        0       1.00000000       0.03724144      -0.06113561       0.24129244
Ni       3.81098655       6.66351626       0.06080063        1       1.00000000      -0.03028027      -0.00515229       0.42102364
Pt       6.37812787       6.71673840       0.12588619        1       0.00000000      -0.04654867       0.06159686      -0.39220259
Ni       8.99708219       6.68193342       0.10199298        1       1.00000000      -0.18438502      -0.07770558      -0.40322949
Ni      11.57440607       6.67296520       0.00000000        0       1.00000000       0.08847781       0.03554126       0.17077499
Ni       1.28674334       0.74860047       2.11175242        2       1.00000000      -0.02174290       0.01917426       0.03417858
Ni       3.83176679       0.76579681       2.13427551        2       1.00000000       0.02028456       0.03194225       0.16097843
Ni       6.40115784       0.78430588       2.14420098        2       1.00000000      -0.04513387       0.20626070       0.24325102
Pt       8.98814937       0.79018383       2.10001336        2       0.00000000      -0.01486392       0.09366568       0.11168257
Ni       2.55596160       2.97533592       2.15376879        3       1.00000000       0.01893527       0.05785961       0.02768164
Ni       5.11933133       2.99044690       2.17133738        3       1.00000000      -0.08499784       0.03016560       0.15969038
Ni       7.70649411       2.98929023       2.16553366        3       1.00000000       0.03654629       0.05408539       0.19678863
Ni      10.26368892       2.97292047       2.12486202        2       1.00000000       0.05512473       0.00648936       0.11770108
Ni       3.88434385       5.18951267       2.15222933        3       1.00000000       0.12951866      -0.01872250       0.09370106
Ni       6.39953607       5.19672296       2.17266126        3       1.00000000      -0.02520911       0.05394566       0.11387587
Ni       8.95394862       5.17118615       2.16093737        3       1.00000000      -0.07500069      -0.13289166       0.20330394
Pt      11.59865409       5.13866314       2.08838908        2       0.00000000       0.09170102      -0.03894293       0.01734464
Ni       5.13193205       7.38886629       2.17669971        3       1.00000000       0.01122283      -0.11331685       0.12883989
Ni       7.66015481       7.41810911       2.16230857        3       1.00000000      -0.15040014      -0.02969160       0.19967261
Pt      10.25587820       7.43121592       2.05704797        2       0.00000000       0.04876556      -0.07961673      -0.06586241
Ni      12.86468665       7.39401799       2.09093256        2       1.00000000       0.15936597      -0.10331349       0.03367683
Ni      -0.01773240       1.54034450       4.27081994        5       1.00000000      -0.09823590       0.05296364      -0.18127315
Pt       2.48668809       1.56664363       4.17560743        4       0.00000000      -0.05336372      -0.06938057       0.03027627
Ni       5.13574579       1.53367458       4.24059338        4       1.00000000      -0.05284190       0.00874057      -0.31016780
Ni       7.70234719       1.53060170       4.25699178        5       1.00000000       0.06991238      -0.05523104      -0.23208411
Ni       1.28051308       3.70260863       4.32507794        5       1.00000000       0.02568019      -0.04977824      -0.07215144
Ni       3.82251044       3.77032179       4.23374206        4       1.00000000      -0.02841638       0.06767657      -0.34975233
Pt       6.42366412       3.71718029       4.21619201        4       0.00000000      -0.05215196      -0.00124721       0.01990419
Ni       8.97985291       3.69982445       4.23863604        4       1.00000000       0.01327257      -0.10837521      -0.34948220
Ni       2.60167830       5.88169133       4.32360483        5       1.00000000       0.12138968      -0.12762664      -0.09955696
Ni       5.11356037       5.91384272       4.22730933        4       1.00000000       0.04105111      -0.15329464      -0.36613147
Ni       7.66883130       5.91474800       4.23401716        4       1.00000000      -0.04723623      -0.03845036      -0.39970865
Pt      10.27809119       5.83012057       4.28670736        5       0.00000000       0.04182882      -0.01664287       0.04808010
Pt       3.91182669       8.09890517       4.25735675        5       0.00000000       0.10329297      -0.08588982       0.12223342
Ni       6.40093986       8.14652103       4.22879900        4       1.00000000      -0.03016330      -0.01767428      -0.40132933
Pt       8.90954188       8.15845622       4.22519769        4       0.00000000      -0.08909591       0.01108095      -0.00641739
Pt      11.57270211       8.17852047       4.22411141        4       0.00000000       0.04392165      -0.01357478       0.00041969
Pt      -0.01190963       0.05246713       6.46641597        8       0.00000000       0.01624697       0.17803628       0.23999756
Pt       2.53501044       0.04791950       6.48933911        8       0.00000000       0.06044884      -0.13735755       0.38021228
Pt       5.14096866       0.02877368       6.46936061        8       0.00000000      -0.03755925       0.11153351       0.43827042
Pt       7.69130781      -0.00479963       6.48170033        8       0.00000000       0.05803629       0.19338301       0.28962141
Ni       1.25799401       2.31180503       6.42728310        7       1.00000000      -0.01317115       0.12545352      -0.23210689
Pt       3.80089163       2.30726643       6.36329409        7       0.00000000       0.06511099       0.11255657       0.49387419
Ni       6.42067295       2.26385010       6.34324732        6       1.00000000      -0.05525487      -0.06134110       0.11651701
Pt       8.97903299       2.34785685       6.39859861        7       0.00000000      -0.04108099      -0.07441834       0.00324895
Ni       2.50522097       4.49697952       6.41832036        7       1.00000000      -0.04203208      -0.00402777      -0.34776260
Pt       5.08361249       4.47985721       6.44567028        7       0.00000000      -0.11468801      -0.00321951      -0.00460239
Ni       7.69246172       4.44714551       6.34540426        6       1.00000000      -0.04745147       0.05534599       0.04439110
Ni      10.31519359       4.43915125       6.42972990        7       1.00000000       0.13183800      -0.02685794      -0.13578499
Ni       3.79202543       6.63982620       6.44152540        7       1.00000000      -0.07055236      -0.04458710      -0.24642048
Pt       6.39026454       6.65327314       6.33445510        6       0.00000000       0.05512814       0.02036014       0.41059847
Pt       9.02208473       6.57352606       6.49464231        8       0.00000000      -0.02975594      -0.08655801       0.36346519
Ni      11.58527278       6.62480541       6.44200033        7       1.00000000       0.05484823      -0.01479729      -0.15206548
