64
Lattice="10.29204656260965 -0.006904740088907283 -0.013973094869468874 5.1400436009813015 8.849506444193986 -0.08321704481074496 0.0 0.0 21.597103864808815" Properties=species:S:1:pos:R:3:tags:I:1:initial_magmoms:R:1:forces:R:3 unique_id=5bcf80578b2840ef889627a2520ae799 stress="0.0052364098739500235 4.310011033043025e-05 9.752238383087394e-05 4.310011033043025e-05 0.00536384578155554 -0.0004811645353550194 9.752238383087394e-05 -0.0004811645353550194 -0.0019191873765836316" energy=-373.8869451199947 pbc="T T T"
Ni      -0.01982911       0.02547272       0.22195249        2       1.00000000      -0.00627182      -0.00002506      -0.08012478
Ni       2.56204832      -0.00460767       0.22108992        2       1.00000000      -0.07848979       0.01813629      -0.15646540
Ni       5.13595119      -0.03515994       0.17065050        2       1.00000000      -0.03313752       0.18142930      -0.50070634
Ni       7.75446665      -0.05548517       0.10120176        1       1.00000000       0.08637629      -0.04153412       0.30792584
Ni       1.24591746       2.20655131       0.10478296        1       1.00000000      -0.07710727      -0.02073085       0.42845216
Pt       3.78262447       2.20998066       0.09724761        1       0.00000000       0.03945774      -0.02688365      -0.04848954
Pt       6.45398569       2.18632135       0.11821782        1       0.00000000       0.00205521       0.04863486      -0.73521782
Ni       9.05087277       2.17146475       0.16158387        2       1.00000000       0.01149711      -0.01881003       0.10477154
Ni       2.56413418       4.43483774       0.04491526        0       1.00000000       0.08174852       0.01926002       0.19576332
Ni       5.10457830       4.43611364       0.15443439        2       1.00000000      -0.04867856       0.03387696      -0.00890967
Pt       7.79835786       4.42975192       0.06996887        1       0.00000000       0.04545470      -0.00759517      -0.04025412
Ni      10.32075741       4.40130104       0.02992828        0       1.00000000       0.03856558      -0.08166963       0.24314309
Ni       3.82073929       6.63090104       0.14318885        1       1.00000000      -0.02572298      -0.04106652      -0.01515092
Pt       6.39256198       6.67257056       0.13454108        1       0.00000000      -0.11320716       0.03918543      -0.56060920
Ni       9.01840351       6.63797277       0.00326693        0       1.00000000      -0.11517917      -0.01633143       0.03537921
Ni      11.59466633       6.62124115       0.00000000        0       1.00000000       0.14338499      -0.02154109       0.18034136
Ni       1.26068809       0.74126365       2.16488610        4       1.00000000      -0.07979442       0.10485843       0.03575643
Ni       3.82613180       0.73395291       2.19442830        4       1.00000000       0.00695643       0.02840967       0.18962502
Pt       6.47491850       0.73413468       2.25750945        5       0.00000000       0.05895166       0.12655710       0.01162767
Ni       9.04100022       0.73333512       2.17460875        4       1.00000000       0.07057174       0.08581598       0.11454195
Ni       2.56718163       2.92221979       2.18666427        4       1.00000000      -0.00394282      -0.01369676       0.10803695
Ni       5.09943071       2.97130424       2.20397068        4       1.00000000      -0.17402188       0.02864771       0.11231719
Ni       7.77857052       2.94680621       2.20686565        4       1.00000000       0.20656973      -0.01137403       0.13217344
Ni      10.26735663       2.88820768       2.16231293        4       1.00000000       0.05116716      -0.04825391       0.08019306
Ni       3.88245610       5.14486820       2.17108014        4       1.00000000       0.06837337      -0.04194744       0.13642994
Ni       6.40987472       5.14578540       2.18805650        4       1.00000000      -0.04396320       0.06361691       0.13630349
Ni       8.98234923       5.11038352       2.20598100        4       1.00000000      -0.02491984      -0.16448369       0.24113594
Pt      11.61011810       5.09636122       2.11036881        3       0.00000000       0.07245347      -0.12927698      -0.04027164
Ni       5.09743383       7.35145764       2.13210196        3       1.00000000      -0.09775467      -0.09609905       0.01957217
Ni       7.70178228       7.34860803       2.13359642        3       1.00000000       0.01604172      -0.12202829       0.02770507
Pt      10.23925441       7.31084446       2.05297910        3       0.00000000      -0.00335976      -0.10700026      -0.00127789
Ni      12.90157165       7.33469035       2.08687267        3       1.00000000       0.00773966      -0.05190879       0.00144350
Ni      -0.02860441       1.47758185       4.30667913        7       1.00000000      -0.03005289       0.03023433      -0.32066098
Pt       2.58750009       1.49964192       4.29196863        7       0.00000000      -0.07569983      -0.00845183      -0.09832440
Ni       5.12562374       1.46478067       4.32137148        7       1.00000000      -0.05754635       0.08908905      -0.24777669
Ni       7.76133842       1.46439764       4.31296444        7       1.00000000       0.23526062       0.11059358      -0.21700178
Pt       1.23406739       3.69607951       4.37499510        8       0.00000000      -0.07121007      -0.02489880      -0.01830705
Ni       3.85431979       3.68490960       4.29388471        7       1.00000000       0.03108891       0.12125779      -0.28059479
Pt       6.44562594       3.67906352       4.21332740        6       0.00000000      -0.02169619       0.00432498      -0.06706601
Ni       8.99912668       3.66855811       4.29398887        7       1.00000000      -0.00616554       0.00044208      -0.29377737
Ni       2.57606769       5.82498674       4.30591836        7       1.00000000       0.14718175      -0.08582122      -0.16447838
Ni       5.10463961       5.82828828       4.25062701        7       1.00000000      -0.09464299      -0.00617690      -0.34607767
Ni       7.75740605       5.80665748       4.26670461        7       1.00000000       0.06301694      -0.04785777      -0.27605009
Ni      10.25410184       5.82180315       4.34204022        7       1.00000000      -0.07782937      -0.03450769      -0.12086921
Pt       3.84277030       8.08703930       4.19945701        6       0.00000000       0.03454373       0.07961112      -0.02197123
Pt       6.40272578       8.04786753       4.16052111        6       0.00000000      -0.06600793       0.00567856      -0.13275820
Pt       8.98976594       8.01297278       4.25336233        7       0.00000000      -0.06333589      -0.02030518       0.00155414
Pt      11.59449954       8.02601358       4.30500401        7       0.00000000       0.02408569      -0.09316593       0.09604163
Pt      -0.02709170      -0.00366507       6.57940565       11       0.00000000       0.09070080       0.08600206       0.18213791
Pt       2.58239830       0.00668617       6.59710386       11       0.00000000       0.02291806       0.02148810       0.39850619
Pt       5.17067481      -0.11465633       6.58588469       11       0.00000000      -0.08276574       0.06804299       0.59415570
Ni       7.70886992      -0.05502349       6.51953798       10       1.00000000       0.04164834       0.15030165       0.00937163
Ni       1.29447763       2.23031596       6.50333143       10       1.00000000      -0.00956213       0.03039059      -0.12820848
Ni       3.82367151       2.19269514       6.41753640        9       1.00000000       0.04057654      -0.08032857       0.14878858
Pt       6.43902142       2.14517340       6.39028305        9       0.00000000       0.00840145      -0.01409520       0.73947204
Pt       9.04188950       2.25597728       6.46646750       10       0.00000000       0.07854261       0.14540289      -0.03959789
Ni       2.50681729       4.35740547       6.47523337       10       1.00000000      -0.02758641       0.04822789      -0.14924413
Pt       5.06022364       4.33906340       6.47688337       10       0.00000000      -0.10804309       0.09256642       0.12350451
Ni       7.76224030       4.39643724       6.37915436        9       1.00000000       0.05907640       0.04812774       0.00063824
Ni      10.29229908       4.42484696       6.45750582       10       1.00000000      -0.04746357       0.09551072      -0.19341707
Pt       3.72979082       6.57529006       6.48006929       10       0.00000000       0.12196051      -0.18899630      -0.00491725
Pt       6.48208276       6.53086663       6.37970114        9       0.00000000      -0.12741778      -0.05474715       0.48794013
Ni       9.03642419       6.51629123       6.43311321        9       1.00000000      -0.01285432      -0.06780367      -0.16958141
Ni      11.53140415       6.52377074       6.44208233        9       1.00000000      -0.10093648      -0.21630825      -0.14659167
