64
Lattice="10.286936117634465 -0.009752182733544782 0.0003366812689759972 5.135022420827631 8.853558578599728 -0.02120101629831198 0.0 0.0 21.54067480921345" Properties=species:S:1:pos:R:3:tags:I:1:initial_magmoms:R:1:forces:R:3 unique_id=52e98b0f04a342c1881f67b203caf4ea energy=-374.1026627019898 stress="0.005295341920361935 3.0339108829177236e-05 0.00019039204693594312 3.0339108829177236e-05 0.005283472132570414 -9.84626127567286e-05 0.00019039204693594312 -9.84626127567286e-05 -0.00213536750529841" pbc="T T T"
Ni      -0.02236120       0.02616290       0.16524416        2       1.00000000      -0.03174364       0.00500525      -0.07272090
Ni       2.56898846      -0.00041686       0.16999886        2       1.00000000      -0.02386870       0.01923276      -0.19190132
Ni       5.14341475      -0.01905239       0.12453058        1       1.00000000       0.00915291       0.21881613      -0.45849830
Ni       7.74056160      -0.04942005       0.07586194        1       1.00000000       0.01216612      -0.05366561       0.34177584
Ni       1.26339112       2.20486911       0.03976188        0       1.00000000      -0.01091986      -0.07559865       0.23668243
Pt       3.78975239       2.21642481       0.06037197        1       0.00000000       0.06442727      -0.01881150      -0.06498894
Pt       6.45106403       2.14746256       0.14478636        1       0.00000000      -0.00143216      -0.05513928      -0.53097080
Ni       9.01843237       2.16101922       0.09863041        1       1.00000000      -0.09761996      -0.10679287      -0.11585553
Ni       2.56788509       4.44468057       0.02081573        0       1.00000000       0.10462185       0.03971316       0.17495854
Ni       5.10544233       4.43845549       0.13550313        1       1.00000000      -0.03479713       0.02352420       0.01403445
Pt       7.78198379       4.42956132       0.05021198        1       0.00000000      -0.00513980      -0.04856356      -0.01605785
Ni      10.31768747       4.42677095       0.00416443        0       1.00000000       0.04927010       0.02683484       0.15754725
Ni       3.81745969       6.64226609       0.13750806        1       1.00000000      -0.02885529      -0.03123610       0.01615652
Pt       6.39093914       6.68243151       0.13351808        1       0.00000000      -0.09485727       0.03236469      -0.55151272
Ni       9.01827267       6.64748530       0.01332732        0       1.00000000      -0.09097578      -0.01859327       0.09798340
Ni      11.58887578       6.63927647       0.00000000        0       1.00000000       0.14216294       0.03504436       0.15697325
Ni       1.28536983       0.71891620       2.11231576        3       1.00000000      -0.00989111      -0.01091892       0.01167182
Ni       3.85207955       0.75199552       2.15014515        4       1.00000000       0.07511902       0.07367539       0.18086096
Ni       6.45722497       0.73229006       2.19528362        4       1.00000000       0.08151709       0.08305446       0.21771422
Ni       8.97502973       0.70378454       2.13036549        3       1.00000000      -0.10073731       0.00085889       0.06319209
Ni       2.59409772       2.94756774       2.15307074        4       1.00000000       0.06808461       0.06629817       0.11969008
Ni       5.11259393       2.95477588       2.17987969        4       1.00000000      -0.15906414      -0.00429294       0.15714168
Ni       7.71615111       2.92734689       2.18735239        4       1.00000000       0.03086437      -0.04176024       0.15428862
Pt      10.25104317       2.88509506       2.13252366        3       0.00000000       0.04598637       0.02558358       0.00015137
Ni       3.89209010       5.16100497       2.15347090        4       1.00000000       0.12926873      -0.03195826       0.13490548
Ni       6.40623068       5.15885529       2.17211707        4       1.00000000      -0.04725163       0.06063013       0.12996322
Ni       8.96909833       5.15866981       2.18956358        4       1.00000000      -0.07030178      -0.05710593       0.22258768
Pt      11.63436824       5.16041251       2.10589030        3       0.00000000       0.11655413      -0.04477552      -0.00744396
Ni       5.09491495       7.36461073       2.13125798        3       1.00000000      -0.10339673      -0.11296292       0.02694750
Ni       7.70768846       7.36463276       2.13372419        3       1.00000000       0.05739400      -0.10832204       0.04030143
Pt      10.26200627       7.37859149       2.05655419        3       0.00000000       0.01487892      -0.05518202      -0.04865091
Ni      12.88775260       7.38126455       2.09275718        3       1.00000000       0.00057167       0.03176423      -0.00754268
Ni      -0.02279436       1.49288318       4.28506095        6       1.00000000      -0.00909234      -0.02061125      -0.19182782
Pt       2.60205561       1.52531698       4.24643789        5       0.00000000      -0.02101833      -0.00601276      -0.09813224
Ni       5.14529147       1.48487543       4.25867717        6       1.00000000       0.02990336       0.05321849      -0.34045935
Ni       7.73911659       1.47941503       4.25124267        6       1.00000000       0.08669112       0.06703781      -0.34070670
Pt       1.25689527       3.73684495       4.37230065        7       0.00000000      -0.05977566      -0.00731215       0.02694907
Ni       3.86185345       3.71091115       4.26462172        6       1.00000000       0.05709956       0.10723596      -0.28993363
Pt       6.44308863       3.69738431       4.18811090        5       0.00000000      -0.05457859       0.00950959       0.01761778
Ni       8.99253462       3.70120658       4.28925764        6       1.00000000      -0.03351586       0.02398601      -0.23961534
Ni       2.58029728       5.86445838       4.29000878        6       1.00000000       0.13590095       0.00236297      -0.14940149
Ni       5.10768779       5.85689320       4.23633173        5       1.00000000      -0.08296750      -0.01431220      -0.33551756
Ni       7.75450136       5.83521335       4.25641744        6       1.00000000       0.04852975      -0.04405340      -0.27147079
Ni      10.25695054       5.85628749       4.33441101        6       1.00000000      -0.03571919       0.04108720      -0.11826867
Pt       3.84009830       8.11737314       4.19540707        5       0.00000000       0.03031291       0.04968342      -0.00355890
Pt       6.40374650       8.07472028       4.16085264        5       0.00000000      -0.04844639      -0.03746706      -0.13434293
Pt       8.99205478       8.04294152       4.25615202        6       0.00000000      -0.04837523      -0.02445423       0.01146186
Pt      11.59179935       8.08933046       4.27144298        6       0.00000000       0.01921145       0.00532816       0.03491408
Pt      -0.02098292       0.02651853       6.51340451        9       0.00000000       0.09013670       0.06211639       0.20486134
Pt       2.58932518       0.03577570       6.54067481        9       0.00000000       0.02840032      -0.00773238       0.40012054
Pt       5.17901677      -0.08669315       6.52489878        9       0.00000000      -0.07141300       0.04930503       0.50115626
Ni       7.71118091      -0.02582104       6.46757707        9       1.00000000       0.02096980       0.11133234      -0.05612473
Ni       1.30151212       2.26000397       6.46160151        9       1.00000000      -0.00893775      -0.01459549      -0.05989648
Ni       3.82602159       2.22596019       6.37793876        8       1.00000000       0.04098767      -0.08863606       0.15139895
Pt       6.44132967       2.17382247       6.37516398        8       0.00000000       0.00109083      -0.04168773       0.55960207
Pt       9.04172414       2.28516419       6.43081782        8       0.00000000       0.04655441       0.12364937       0.03156585
Ni       2.51353483       4.39353084       6.44968337        8       1.00000000      -0.01258944       0.05242538      -0.08512778
Pt       5.06535985       4.37105580       6.45017947        9       0.00000000      -0.10951708       0.08495979       0.13797629
Ni       7.76453960       4.42702012       6.35303690        8       1.00000000       0.04640936       0.03227591       0.01465511
Ni      10.28966559       4.45893995       6.44248586        8       1.00000000      -0.06218731       0.09863356      -0.13499270
Pt       3.73405522       6.60913344       6.46751047        9       0.00000000       0.11851551      -0.18879981       0.02731553
Pt       6.48439152       6.56395556       6.37270745        8       0.00000000      -0.12481371      -0.07576951       0.50511700
Ni       9.03722978       6.55034741       6.42891567        8       1.00000000      -0.01153704      -0.07135546      -0.16795445
Ni      11.53108201       6.55949407       6.43805351        8       1.00000000      -0.09741709      -0.19806851      -0.19676409
