64
Lattice="10.189459032461986 -0.027298662508636013 0.02003099992787898 5.071088181009174 8.774815933948226 0.0008965663201561322 0.0 0.0 21.44109644890103" Properties=species:S:1:pos:R:3:tags:I:1:initial_magmoms:R:1:forces:R:3 unique_id=259feb2ecf5f4557afa44f5bd571246a stress="0.005074195829711572 1.130674239519836e-05 -1.3490023810425202e-05 1.130674239519836e-05 0.004417870369875506 7.026906146989873e-05 -1.3490023810425202e-05 7.026906146989873e-05 -0.0021929682592821825" energy=-370.34713489618025 pbc="T T T"
Ni       0.01125013       0.01216204       0.10454289        1       1.00000000       0.09467339      -0.04388403      -0.33108629
Ni       2.54131251      -0.01067252       0.14879356        1       1.00000000      -0.01960989      -0.01311446      -0.23157944
Ni       5.09772358      -0.02584689       0.10135350        1       1.00000000       0.00165635       0.18973280      -0.37513509
Ni       7.64265425      -0.06291544       0.12217361        1       1.00000000      -0.11838748      -0.07178456      -0.34886673
Ni       1.23065002       2.20421621       0.04235855        0       1.00000000      -0.04063707       0.03296992       0.30485730
Pt       3.76394748       2.20302425       0.11825828        1       0.00000000       0.03078803      -0.00848645      -0.64646707
Pt       6.41924579       2.19226616       0.04615926        0       0.00000000       0.02835217      -0.07334869      -0.06365636
Ni       8.95218989       2.20596233       0.09524264        1       1.00000000       0.00613914       0.15202974      -0.20527339
Ni       2.52945869       4.41570250       0.00000000        0       1.00000000       0.01407231      -0.01896448       0.19003852
Ni       5.06727258       4.40124210       0.04195764        0       1.00000000      -0.05617619      -0.03471248       0.21459295
Ni       7.67258348       4.38144695       0.05230256        1       1.00000000       0.12288543       0.03887948       0.25639043
Ni      10.17157285       4.35615987       0.02651807        0       1.00000000      -0.05545094      -0.00001741       0.29905161
Ni       3.77363512       6.57265092       0.03599300        0       1.00000000      -0.01409216       0.01583079       0.25840280
Pt       6.34626216       6.56576642       0.03642837        0       0.00000000       0.02438018       0.09403131      -0.05036244
Ni       8.90773174       6.54591340       0.10469217        1       1.00000000      -0.10339007      -0.12992909      -0.30066657
Ni      11.46933926       6.55375339       0.00799071        0       1.00000000       0.04165013      -0.01772779       0.14315890
Ni       1.28417515       0.72927351       2.09196068        2       1.00000000       0.00520504       0.02997248       0.06012633
Ni       3.81805315       0.72799425       2.12853829        2       1.00000000       0.06656773      -0.00022021       0.12945513
Ni       6.36152381       0.73828861       2.16651354        3       1.00000000      -0.03354244       0.14054030       0.30057517
Pt       8.92145603       0.75178685       2.10834541        2       0.00000000      -0.03483986       0.13329382      -0.00039283
Ni       2.52738073       2.92996619       2.13574088        2       1.00000000       0.00756948       0.02277737       0.01053886
Ni       5.08947750       2.93316988       2.16436030        3       1.00000000      -0.05475463       0.00506827       0.12738009
Ni       7.65874306       2.94789337       2.14006814        2       1.00000000       0.06681030       0.09713438       0.09263728
Ni      10.18467638       2.90510943       2.13586467        2       1.00000000       0.04510833       0.03623787       0.15201866
Ni       3.83460309       5.10320284       2.09030950        2       1.00000000       0.06495608      -0.06631817      -0.08270959
Ni       6.37389825       5.09108177       2.11164747        2       1.00000000       0.06262518      -0.04885617      -0.01645470
Ni       8.87023043       5.06568702       2.13232897        2       1.00000000      -0.00824467      -0.06345159       0.11710667
Pt      11.47823608       5.04323945       2.13914973        2       0.00000000       0.03695944      -0.04584996       0.05374845
Ni       5.08596016       7.29308054       2.10842439        2       1.00000000       0.01404954      -0.04578582       0.04531221
Ni       7.59189170       7.29278587       2.13124506        2       1.00000000      -0.09428061      -0.08393278       0.19947736
Pt      10.19384685       7.29845309       2.08720023        2       0.00000000       0.03165463      -0.03392655       0.06261307
Ni      12.74086741       7.26712118       2.10492533        2       1.00000000       0.10197424      -0.07665406       0.02841153
Ni      -0.00599506       1.51200498       4.22955866        4       1.00000000      -0.11192424       0.08981152      -0.13011193
Pt       2.49033867       1.51406264       4.15898826        4       0.00000000      -0.07353690       0.00017198       0.10052937
Ni       5.13213820       1.44409942       4.20826656        4       1.00000000      -0.00861942      -0.09657030      -0.27540343
Ni       7.63580288       1.44460432       4.24519224        4       1.00000000       0.02024291      -0.07320773      -0.15812042
Ni       1.24569952       3.68725723       4.28061592        5       1.00000000      -0.05268389       0.00675996      -0.01823864
Ni       3.78726538       3.69056445       4.20450022        4       1.00000000      -0.11547134       0.00096335      -0.30295512
Pt       6.40662110       3.60342150       4.23243316        4       0.00000000       0.02690829      -0.05590734      -0.02467226
Ni       8.95316072       3.66435808       4.22636462        4       1.00000000       0.09190486       0.04402016      -0.22743089
Ni       2.49918624       5.81242165       4.28111249        5       1.00000000      -0.07198758      -0.04406324      -0.07095645
Pt       5.08136605       5.81956044       4.23310407        4       0.00000000       0.01367799      -0.02414887      -0.14315019
Ni       7.65310670       5.80199561       4.22631491        4       1.00000000       0.07638182      -0.07355013      -0.28144803
Ni      10.21051950       5.77400834       4.27641404        5       1.00000000       0.00225881      -0.00055706      -0.09038442
Pt       3.77315502       8.03179285       4.18619186        4       0.00000000      -0.06314424       0.00259312       0.07450344
Ni       6.35195145       8.02181037       4.20069098        4       1.00000000      -0.08060121       0.02188005      -0.29746852
Pt       8.89118704       7.99423405       4.19655256        4       0.00000000      -0.04839182      -0.00883274       0.00862583
Ni      11.45289686       8.00056423       4.23223447        4       1.00000000      -0.06088330      -0.04715955      -0.16909278
Pt       0.01404537      -0.03854303       6.40909823        7       0.00000000       0.05816140       0.03850898       0.30994439
Pt       2.53824893      -0.02204232       6.44109645        7       0.00000000       0.01069979      -0.03205931       0.43404679
Pt       5.12550232      -0.01897121       6.40563366        7       0.00000000       0.00617627       0.10562124       0.42011844
Pt       7.64185455      -0.06983093       6.43363437        7       0.00000000      -0.03297112       0.10956263       0.37138520
Ni       1.27199072       2.25806296       6.36817443        7       1.00000000       0.04561817       0.07404437      -0.14171675
Pt       3.83734212       2.30812398       6.31537929        6       0.00000000       0.08866533       0.08165398       0.60456741
Ni       6.38155092       2.21324588       6.31347081        6       1.00000000      -0.02374197      -0.04492716       0.34076710
Pt       8.92895306       2.26981601       6.37502966        7       0.00000000      -0.02782357      -0.08203626       0.03664367
Ni       2.51729125       4.42934060       6.35029431        7       1.00000000       0.05224565      -0.02206049      -0.28499190
Ni       5.10521355       4.42002650       6.39263325        7       1.00000000      -0.00052841       0.00421566      -0.13954700
Ni       7.59748041       4.36395475       6.38333201        7       1.00000000      -0.10939802      -0.00738745      -0.12032427
Ni      10.25507634       4.35840326       6.36561376        7       1.00000000       0.10819157      -0.02365210      -0.22715128
Ni       3.79217336       6.50001038       6.38658658        7       1.00000000      -0.01364828      -0.06855504      -0.19130608
Ni       6.34517333       6.51252875       6.30662176        6       1.00000000       0.09567560       0.04778552       0.21972153
Pt       8.92203253       6.42006104       6.41224345        7       0.00000000      -0.03428673      -0.06491145       0.17781414
Ni      11.48583338       6.48342800       6.36707823        7       1.00000000      -0.00183754       0.03045992      -0.19743979
