64
Lattice="10.263655226802207 -0.026706374973840485 0.045104595346448347 5.1086992142307635 8.820061225585079 0.01918514249304658 0.0 0.0 21.539514188217645" Properties=species:S:1:pos:R:3:tags:I:1:initial_magmoms:R:1:forces:R:3 unique_id=2d7c6f11a9e340fbabab1ef948166d4b stress="0.005614228908972335 1.7466171314667996e-05 0.00028466019814968053 1.7466171314667996e-05 0.004817897575632724 0.00021022092575188073 0.00028466019814968053 0.00021022092575188073 -0.0012434605489806752" energy=-372.5595535772182 pbc="T T T"
Ni       0.04280185      -0.04141940       0.09433684        1       1.00000000       0.15865419      -0.10937803      -0.15129588
Ni       2.51887046      -0.03337225       0.14027067        1       1.00000000      -0.02350953      -0.06533993      -0.08663875
Pt       5.12899759      -0.04651166       0.08425364        1       0.00000000      -0.09502949       0.18027547      -1.02701644
Ni       7.72419225      -0.07103909       0.14108831        1       1.00000000      -0.04749150      -0.04952999      -0.37910576
Ni       1.28192842       2.21087080       0.03380172        0       1.00000000      -0.01704608       0.05472768       0.36143337
Pt       3.77322075       2.25829592       0.12530963        1       0.00000000       0.06179847       0.00541971      -0.51802124
Pt       6.42698662       2.26659717       0.06245116        1       0.00000000       0.01186208       0.06346706      -0.10769495
Pt       9.05090468       2.24406310       0.09834527        1       0.00000000       0.00276540       0.15985142      -0.70148021
Ni       2.55142332       4.44561854       0.00000000        0       1.00000000       0.08613541       0.05915633       0.30323962
Ni       5.12409371       4.47247975       0.04922614        0       1.00000000      -0.04188806       0.18624100       0.42703117
Ni       7.68989784       4.45927168       0.06612437        1       1.00000000       0.04076587       0.11777679       0.40180881
Ni      10.27449753       4.42372486       0.04293950        0       1.00000000       0.01606655       0.10574054       0.33493421
Ni       3.84059310       6.60270161       0.04406366        0       1.00000000       0.09747390      -0.02311406       0.46987747
Ni       6.39606161       6.60073657       0.13595898        1       1.00000000      -0.03068557       0.01016208       0.11004065
Ni       8.92891555       6.55425004       0.12431522        1       1.00000000      -0.19510661      -0.05785781      -0.15887112
Ni      11.57022290       6.55888487       0.04201024        0       1.00000000       0.06194253       0.03873761       0.20772648
Ni       1.30885279       0.72277250       2.11366795        2       1.00000000       0.06877915       0.00159136       0.09534173
Ni       3.82903371       0.74385953       2.15940858        3       1.00000000       0.03046943      -0.02465902       0.17990423
Ni       6.41180490       0.75155926       2.17124982        3       1.00000000      -0.08670987       0.09822657       0.21006216
Pt       9.03838609       0.67601973       2.15915010        3       0.00000000       0.12524010      -0.00802780      -0.07983196
Ni       2.55469726       2.94591961       2.16514013        3       1.00000000       0.03189391       0.04996792       0.04206297
Ni       5.12092001       2.96587054       2.19147454        3       1.00000000      -0.06563702       0.09633625       0.16971271
Ni       7.69828474       2.99045361       2.17532796        3       1.00000000       0.02116418       0.16364113       0.11104199
Ni      10.28654550       2.92317076       2.21828076        3       1.00000000       0.02077568      -0.06383415       0.26652218
Ni       3.88443974       5.14008781       2.14078607        2       1.00000000       0.14082435      -0.03794201       0.07233823
Ni       6.40840483       5.15473749       2.13281780        2       1.00000000      -0.02136166       0.00291231       0.01906078
Ni       8.92597773       5.09127836       2.16788141        3       1.00000000      -0.13107335      -0.21155114       0.13886726
Pt      11.58369438       5.05707616       2.18391774        3       0.00000000       0.13088041      -0.10930218       0.08419937
Ni       5.16135406       7.29345912       2.11839189        2       1.00000000       0.06902803      -0.20076907       0.07260226
Ni       7.62299237       7.31618890       2.13322956        2       1.00000000      -0.13220328      -0.08492539       0.16490440
Pt      10.22011014       7.25789736       2.15803116        3       0.00000000      -0.06690528      -0.19072346      -0.14828643
Ni      12.85746490       7.28407142       2.13261312        2       1.00000000       0.12969707      -0.19579826      -0.01997420
Ni       0.03874356       1.51267868       4.25488294        5       1.00000000      -0.04981323       0.04464499      -0.20535867
Pt       2.51974740       1.53774285       4.19336266        4       0.00000000      -0.05706977       0.00514059       0.05885341
Ni       5.13043127       1.49157639       4.25228631        5       1.00000000      -0.13336850       0.00349322      -0.43380566
Pt       7.70439633       1.50074834       4.26107374        5       0.00000000      -0.02169691      -0.04762527      -0.09912636
Ni       1.27090534       3.70750693       4.31480078        5       1.00000000      -0.05612586       0.01765552      -0.00605154
Ni       3.83779373       3.74081762       4.25660964        5       1.00000000      -0.08617199       0.13241213      -0.29907718
Pt       6.38260139       3.74275657       4.28408160        5       0.00000000      -0.02899351       0.04358207      -0.03008290
Ni       9.03038658       3.72321688       4.27733298        5       1.00000000      -0.00430167       0.12745672      -0.28013146
Ni       2.58278858       5.80190703       4.31983549        5       1.00000000       0.03509049      -0.16817081      -0.07588537
Ni       5.11766302       5.84832709       4.27363261        5       1.00000000       0.01315956      -0.05834835      -0.28674834
Ni       7.69597672       5.84185079       4.26979579        5       1.00000000      -0.02439810      -0.00689672      -0.33684873
Ni      10.27528422       5.77776567       4.33516727        5       1.00000000      -0.01281191      -0.07598891      -0.09656631
Pt       3.92150528       7.98365434       4.25157547        5       0.00000000       0.09621347      -0.09623687       0.04997751
Ni       6.40648221       8.04351191       4.24952548        4       1.00000000      -0.05865828      -0.11898784      -0.32481389
Pt       8.89496451       8.03443021       4.25064685        5       0.00000000      -0.10718175       0.00944192      -0.04750498
Pt      11.56644855       7.97723419       4.26778548        5       0.00000000      -0.05587359      -0.19635618      -0.06206553
Pt       0.02507326       0.01268347       6.46255052        7       0.00000000       0.00556208       0.14018174       0.25879013
Pt       2.57181882       0.01541981       6.49947771        7       0.00000000       0.03091647      -0.04864065       0.34759526
Pt       5.16580244       0.00975323       6.39273278        6       0.00000000      -0.01134881       0.19797497       1.00231240
Pt       7.72453448      -0.08028277       6.53951419        7       0.00000000       0.01928474       0.10128560       0.44787994
Ni       1.30215057       2.27818017       6.42312741        6       1.00000000       0.01839344       0.16532539      -0.18780800
Pt       3.86563232       2.33245903       6.37530025        6       0.00000000       0.02594682       0.01374715       0.47121509
Ni       6.43557744       2.24357256       6.39025172        6       1.00000000      -0.04720203       0.03031508       0.22153641
Pt       9.03365098       2.30484691       6.39087479        6       0.00000000       0.12190217      -0.03722455       0.72432250
Ni       2.55014633       4.45620911       6.41258440        6       1.00000000      -0.01953156      -0.02045293      -0.38288865
Ni       5.11975043       4.41224010       6.44663911        6       1.00000000      -0.11683839       0.04327583      -0.23506851
Ni       7.68753110       4.37023183       6.45617697        7       1.00000000      -0.07490538      -0.05236330      -0.20883306
Ni      10.34758623       4.39034088       6.44533271        6       1.00000000       0.18354018      -0.01576271      -0.28498027
Ni       3.82002257       6.52908671       6.44369281        6       1.00000000      -0.05438278      -0.14439283      -0.27898754
Pt       6.37006068       6.50538141       6.45327076        7       0.00000000       0.08505021       0.12482481      -0.13999631
Pt       9.03682737       6.46589653       6.48965286        7       0.00000000       0.01364510      -0.04960088       0.05870374
Ni      11.58631435       6.51325212       6.47621942        7       1.00000000       0.02039990      -0.02518784      -0.20305225
