64
Lattice="10.745120606576164 0.0003515677582893294 -0.007050000880756104 5.3728647698979115 9.320947432547323 0.0016681007679112663 0.0 0.0 22.00576786960137" Properties=species:S:1:pos:R:3:tags:I:1:initial_magmoms:R:1:forces:R:3 unique_id=df75996e9c3841868389d111fa2c18e9 energy=-402.7105629483379 stress="0.0031252152305399385 -1.1047692972738075e-05 -3.6291921529723165e-05 -1.1047692972738075e-05 0.0032267348616903443 -3.7941539001295685e-05 -3.6291921529723165e-05 -3.7941539001295685e-05 -0.0012543869861084238" pbc="T T T"
Pt       0.03962583       0.00570307       0.05858736        1       0.00000000       0.10077145       0.04250731      -0.35452027
Ni       2.69927522       0.01467857       0.04796946        0       1.00000000      -0.00778751      -0.00678311       0.38417921
Pt       5.31004903       0.02804730       0.00000000        0       0.00000000      -0.14792235      -0.06538332       0.21027573
Pt       8.04809220       0.00839087       0.04834034        0       0.00000000      -0.01403693       0.12364515      -0.41105610
Pt       1.41485185       2.30648202       0.07494116        1       0.00000000       0.19758020       0.02691322      -0.20135811
Ni       4.02219916       2.31987161       0.00613535        0       1.00000000      -0.03245419       0.01134074       0.58620610
Pt       6.68680366       2.34597920       0.05267397        1       0.00000000      -0.03740419      -0.04651643      -0.23011483
Pt       9.39214250       2.35758550       0.05509949        1       0.00000000       0.08063506      -0.01513411      -0.37180004
Pt       2.70199342       4.61168569       0.07815427        1       0.00000000      -0.00510813      -0.21426602      -0.18706072
Pt       5.38452253       4.63102120       0.05597539        1       0.00000000       0.04374554       0.07179434      -0.34276492
Ni       8.05803608       4.66246470       0.04812319        0       1.00000000      -0.03111146       0.01824487       0.32234448
Pt      10.71725517       4.65962701       0.05823443        1       0.00000000       0.03344188      -0.04158036      -0.39211087
Pt       4.03460457       6.98392506       0.06188282        1       0.00000000       0.09354117      -0.07184646      -0.36077127
Pt       6.74803594       6.98949443       0.05983608        1       0.00000000       0.00832126      -0.01789124      -0.32165087
Pt       9.38651170       7.00487236       0.06990100        1       0.00000000       0.13652184       0.13694088      -0.26964030
Pt      12.06614054       6.99896770       0.07179022        1       0.00000000      -0.24809744       0.02710343      -0.25397693
Pt       1.38125055       0.79813169       2.30818024        2       0.00000000       0.15837960      -0.03071964       0.36898211
Pt       4.01887883       0.78963677       2.28116421        2       0.00000000      -0.05820492       0.09946461       0.07449851
Pt       6.67969559       0.75213568       2.32779800        2       0.00000000      -0.18974401      -0.03202478       0.46032713
Pt       9.40120814       0.78229307       2.32889888        2       0.00000000      -0.02067176       0.04377977       0.49626269
Ni       2.69149621       3.10139229       2.31136481        2       1.00000000       0.07603714      -0.06315662       0.33810086
Pt       5.31786627       3.08959745       2.30813884        2       0.00000000      -0.24651598      -0.16982365       0.30157043
Pt       8.05213601       3.12241037       2.30022375        2       0.00000000      -0.06731875       0.07441682       0.35482080
Pt      10.78362378       3.11099995       2.32501753        2       0.00000000       0.11338762       0.00441087       0.46551571
Pt       4.00935221       5.40755877       2.33407644        2       0.00000000      -0.03758698      -0.04842381       0.49187617
Pt       6.72673291       5.43085408       2.30415672        2       0.00000000       0.07800059      -0.05541236       0.36028229
Pt       9.40957495       5.46236078       2.30604811        2       0.00000000      -0.02897127       0.02943043       0.35256863
Pt      12.08382700       5.43741065       2.32722158        2       0.00000000      -0.04958479       0.00673577       0.42389234
Pt       5.37626514       7.76643464       2.33819906        2       0.00000000       0.01748963      -0.04172266       0.54145620
Pt       8.09647401       7.79186155       2.30709330        2       0.00000000       0.13267369       0.20103602       0.37776257
Ni      10.74138336       7.77229511       2.31556042        2       1.00000000      -0.03429945       0.03895245       0.42777782
Pt      13.39378090       7.76336161       2.33408620        2       0.00000000      -0.09813252      -0.02079676       0.46028297
Pt       0.00323904       1.55785732       4.64420863        3       0.00000000       0.05584375       0.00315504      -0.48544757
Pt       2.70003011       1.56311845       4.63527318        3       0.00000000       0.10679993      -0.03260945      -0.40021096
Pt       5.35104349       1.54783376       4.69181476        4       0.00000000      -0.13539948      -0.03132424      -0.16030795
Pt       8.04591975       1.55325021       4.63729213        3       0.00000000      -0.05843923       0.01721969      -0.54778166
Pt       1.35069528       3.88113744       4.62009870        3       0.00000000       0.00483483      -0.01323562      -0.52750949
Pt       4.02123933       3.86174827       4.63988077        3       0.00000000       0.05199567      -0.18535855      -0.38874007
Pt       6.71057318       3.88311773       4.63699811        3       0.00000000      -0.00601255      -0.01691486      -0.53045590
Pt       9.39952867       3.89169173       4.62230334        3       0.00000000      -0.01349812       0.04559310      -0.50699282
Pt       2.68066706       6.21361291       4.64332225        3       0.00000000      -0.00571141      -0.02047464      -0.46452843
Pt       5.36725694       6.21008406       4.64349454        3       0.00000000       0.01587970      -0.05896812      -0.51625321
Pt       8.05984434       6.21589067       4.63490996        3       0.00000000       0.01044296       0.00000395      -0.47455566
Pt      10.74347653       6.23042108       4.60988936        3       0.00000000      -0.02867667       0.01310951      -0.57549020
Pt       4.02070142       8.54687313       4.64218597        3       0.00000000      -0.02539406       0.00422469      -0.50011335
Pt       6.72983415       8.55479786       4.63874139        3       0.00000000       0.15373336       0.06026693      -0.49490621
Pt       9.41271941       8.55507222       4.64321499        3       0.00000000      -0.01500576       0.07538263      -0.41615029
Pt      12.06115011       8.55188957       4.63902200        3       0.00000000      -0.13855835       0.08879352      -0.40417885
Pt       0.00575000       0.00570661       6.92907977        5       0.00000000       0.05996796       0.04991205       0.42085302
Pt       2.74499682       0.04313853       7.00576787        6       0.00000000       0.15166289       0.03318538      -0.12966387
Ni       5.35560262       0.01793335       6.93393237        5       1.00000000       0.01266119       0.00067617      -0.35525503
Pt       8.01839954       0.00760238       6.92121026        5       0.00000000      -0.08213411       0.05134593       0.40312944
Pt       1.38770237       2.32778941       6.93674604        5       0.00000000       0.04032396       0.00866778       0.24164547
Ni       4.02840484       2.31927440       6.98138261        6       1.00000000       0.02468076      -0.00252091      -0.51662253
Pt       6.65100926       2.30361727       6.92922894        5       0.00000000      -0.07240687      -0.07521030       0.33097202
Pt       9.39101179       2.33506632       6.92589890        5       0.00000000      -0.04769286      -0.05337295       0.40074711
Pt       2.70069954       4.62936671       6.93229219        5       0.00000000      -0.04165620       0.03616513       0.28281861
Pt       5.35538197       4.62728808       6.93408359        5       0.00000000      -0.00061129      -0.06056956       0.34470370
Pt       8.05020874       4.66045553       6.99889720        6       0.00000000      -0.07501758      -0.03345015       0.07445238
Pt      10.74306020       4.66683249       6.93060333        5       0.00000000       0.11274161       0.03798519       0.36398675
Pt       4.02121215       6.99125785       6.92868485        5       0.00000000      -0.05958138      -0.05050932       0.48481915
Pt       6.72074473       6.99842425       6.93268258        5       0.00000000       0.06607805       0.03792337       0.38830827
Pt       9.41270310       7.03054177       6.93314298        5       0.00000000       0.04400531       0.08505282       0.25213182
Pt      12.06646517       7.02225012       6.92423414        5       0.00000000      -0.02143001      -0.02937957       0.30443878
