64
Lattice="10.261593310389987 -0.006251868769236227 -0.0021346799376934754 5.12538237801971 8.890133377861185 -0.026136112780791955 -0.0017429588705016798 -0.023635065668468475 8.819140466838938" Properties=species:S:1:pos:R:3:tags:I:1:initial_magmoms:R:1:forces:R:3 unique_id=3f4095ed62414543b9e759e915cfca8b stress="-0.00033936240805929746 -4.0019502192752035e-06 1.9220763129224393e-05 -4.0019502192752035e-06 -0.00032918995876191764 2.0961619935802652e-05 1.9220763129224393e-05 2.0961619935802652e-05 -0.0002780675389272638" energy=-396.6964298058807 pbc="T T T"
Ni       0.04962428       0.04117962       0.15393793        4       1.00000000       0.20552186       0.13738940       0.20094278
Ni       2.58427071       0.03167237       0.20272227        4       1.00000000       0.06079111       0.06055669       0.28430662
Ni       5.08207822      -0.01642457       0.07247780        4       1.00000000      -0.10966993       0.00949061       0.07347364
Pt       7.70761136      -0.05014883      -0.01425634        4       0.00000000      -0.01435116      -0.03050177      -0.18088819
Ni       1.28770104       2.23141087       0.10377200        4       1.00000000       0.02729471       0.05904260       0.14100091
Ni       3.80337865       2.21983822       0.19528648        4       1.00000000      -0.07714568      -0.03204316       0.23020624
Pt       6.38755302       2.29862183       0.15265274        4       0.00000000      -0.03548465       0.07737322       0.43244955
Ni       9.02839420       2.27018646       0.06298912        4       1.00000000       0.10342549       0.10755988       0.03262145
Ni       2.56835459       4.41690960       0.06234330        4       1.00000000      -0.00364688      -0.17522421       0.01840438
Ni       5.07463218       4.44041528       0.16166196        4       1.00000000      -0.18627068      -0.01537826       0.25869137
Ni       7.76132761       4.43284093       0.06078938        4       1.00000000       0.25668966      -0.01981259       0.04541618
Ni      10.24928859       4.41211274       0.04895952        4       1.00000000      -0.01998178      -0.10663701       0.00016320
Ni       3.83218891       6.60690696       0.03473555        4       1.00000000      -0.03982119      -0.19918719       0.04143407
Pt       6.45765002       6.66331241      -0.02650625        4       0.00000000       0.05993355      -0.01281166      -0.28140179
Ni       8.99049561       6.64417363       0.11905571        4       1.00000000       0.03294508      -0.09904094       0.16468375
Ni      11.52094194       6.61809569       0.01885479        4       1.00000000      -0.09238821      -0.14056107      -0.07231977
Ni       1.33608503       0.78027063       2.16350410        3       1.00000000       0.01219885       0.09315696      -0.02338462
Ni       3.79870385       0.75061551       2.18480709        3       1.00000000       0.00081746      -0.01949006       0.04047640
Pt       6.32321085       0.76753377       2.27509708        3       0.00000000      -0.05641911       0.10340044      -0.04986095
Pt       9.05337783       0.83632409       2.17988101        3       0.00000000      -0.01199219      -0.03992297      -0.09635133
Ni       2.56579461       2.92746213       2.15160102        3       1.00000000      -0.09576151       0.00699489      -0.03601252
Ni       5.05510127       2.96978814       2.20432156        3       1.00000000      -0.08813862      -0.01925503       0.08127716
Ni       7.75548269       2.99754897       2.19976604        3       1.00000000       0.14038452       0.03769625       0.02281598
Ni      10.26627049       2.96451582       2.17887027        3       1.00000000       0.03364237      -0.03591247       0.01516804
Ni       3.84307303       5.13137191       2.16495845        3       1.00000000      -0.06432102      -0.00281604      -0.04483638
Pt       6.46072448       5.13854313       2.18278346        3       0.00000000       0.07484568       0.01627922      -0.08165290
Ni       8.97071979       5.13372363       2.19818031        3       1.00000000       0.05651632      -0.10545526       0.05319474
Pt      11.51567828       5.08268949       2.14476021        3       0.00000000       0.00626508      -0.04634467      -0.04763920
Pt       5.15705876       7.39224711       2.16180448        3       0.00000000       0.01959182      -0.07803935      -0.21909809
Ni       7.70270127       7.42235091       2.18656162        3       1.00000000      -0.03480830      -0.00069169      -0.01778101
Pt      10.15110511       7.38062560       2.21158143        3       0.00000000      -0.10993272      -0.06786258       0.02042313
Pt      12.80169467       7.33854128       2.19463280        3       0.00000000      -0.06202324      -0.01919441      -0.10074072
Ni       0.00463270       1.49495713       4.39677644        2       1.00000000       0.10680026      -0.06470726      -0.03218806
Pt       2.57410386       1.44879822       4.28429142        2       0.00000000       0.05847318      -0.02292569       0.08698029
Ni       5.11441187       1.42176439       4.39193570        2       1.00000000      -0.02237412       0.01453982       0.11955132
Pt       7.75620257       1.47666424       4.38628487        2       0.00000000       0.02341902       0.09612030       0.15404710
Pt       1.19439161       3.72295958       4.43202982        2       0.00000000      -0.03137015      -0.02345945      -0.00964644
Pt       3.83546598       3.75414862       4.29784267        2       0.00000000       0.00212195       0.06608707       0.05577285
Pt       6.46771148       3.73757135       4.35407273        2       0.00000000      -0.06553881       0.01192650       0.07485890
Ni       8.98535424       3.72917880       4.38386497        2       1.00000000       0.02706370       0.12562521      -0.08132168
Ni       2.51521770       5.91998879       4.42051069        2       1.00000000      -0.20417355      -0.03517126      -0.02335744
Ni       5.12080229       5.91807042       4.37523669        2       1.00000000       0.01206339      -0.07862252      -0.13091583
Ni       7.75699643       5.90296195       4.36143332        2       1.00000000       0.25660284      -0.00614391      -0.16388542
Ni      10.24714988       5.92707366       4.37125917        2       1.00000000      -0.00825377      -0.01000751      -0.10853338
Pt       3.80136683       8.05520762       4.41118301        2       0.00000000       0.06691104      -0.03871344       0.00084010
Pt       6.46039313       8.06879392       4.33284047        2       0.00000000       0.08735373       0.06053347       0.00912810
Ni       9.02079090       8.11123898       4.36199795        2       1.00000000       0.00234516      -0.00940132       0.04999341
Ni      11.47917471       8.09819209       4.41476260        2       1.00000000      -0.09563066      -0.07001520      -0.02758237
Pt      -0.05858827       0.02680180       6.60715437        1       0.00000000      -0.13782989       0.06465309       0.10074418
Pt       2.58388155      -0.04419895       6.61607408        1       0.00000000       0.06005979       0.03825408       0.22230226
Ni       5.16993118      -0.06272454       6.51403863        1       1.00000000       0.03814898      -0.07413275      -0.14426913
Ni       7.64941404      -0.06765196       6.44550564        1       1.00000000      -0.16229895      -0.10862496      -0.30805670
Ni       1.23581275       2.24995145       6.55099319        1       1.00000000      -0.03460324       0.04535715       0.00469440
Pt       3.80607190       2.24184593       6.59535333        1       0.00000000      -0.16593944       0.12643149       0.18155231
Pt       6.45071487       2.17381147       6.51630693        1       0.00000000       0.09100872      -0.04639537      -0.22368608
Ni       9.01397245       2.25740031       6.53389921        1       1.00000000       0.07561724       0.21793405      -0.11917071
Ni       2.50782999       4.48275038       6.54272799        1       1.00000000      -0.11682594       0.17306386      -0.03815980
Pt       5.11532033       4.54308687       6.59217541        1       0.00000000      -0.02488226       0.17598937       0.17719136
Ni       7.74011791       4.42616572       6.52636613        1       1.00000000       0.10056132      -0.02090112      -0.08967365
Ni      10.25864855       4.40636975       6.53719790        1       1.00000000       0.01511010      -0.01819482      -0.01675877
Ni       3.78518457       6.64839037       6.52091519        1       1.00000000      -0.18092526       0.04703467      -0.06965101
Ni       6.41024424       6.64026456       6.41388072        1       1.00000000       0.07151039      -0.00281176      -0.46209054
Pt       9.03479573       6.57779869       6.50415391        1       0.00000000       0.12947825      -0.05444059       0.09621360
Ni      11.56732411       6.64356125       6.49067568        1       1.00000000       0.03729031      -0.02163895      -0.19010532
