64
Lattice="10.290852375818474 -0.011336608693399235 0.05349509742530288 5.135608396787993 8.869796559451625 0.012385811683215769 0.04367856414415552 -0.013540375524175922 8.810161710474587" Properties=species:S:1:pos:R:3:tags:I:1:initial_magmoms:R:1:forces:R:3 unique_id=20372204e76c4d1796978929f9909263 stress="0.0002452748552448508 5.361295748470596e-06 -3.290642037478981e-05 5.361295748470596e-06 0.00024942619057408827 8.003015763548322e-06 -3.290642037478981e-05 8.003015763548322e-06 0.0002343438032777409" energy=-397.1577769092222 pbc="T T T"
Ni       0.01657889      -0.00136899       0.17735712        4       1.00000000       0.06113719       0.05692917       0.34424102
Ni       2.54927488       0.01264534       0.21163848        4       1.00000000      -0.03590405       0.08829338       0.44534175
Pt       5.14225608      -0.05389273       0.16007645        4       0.00000000       0.01367654      -0.06882237       0.32579686
Ni       7.74776593      -0.06481299       0.22634961        4       1.00000000       0.03137688      -0.05029658       0.39510856
Ni       1.28924301       2.22354214       0.11131949        4       1.00000000       0.03464829       0.02652876       0.26225443
Pt       3.75287044       2.21745776       0.19758871        4       0.00000000      -0.05116078       0.07839193       0.16025060
Pt       6.45229046       2.18817378       0.13881791        4       0.00000000       0.05488878       0.03937283       0.01776328
Pt       9.10927372       2.20788097       0.16476165        4       0.00000000       0.13080939       0.02577221       0.11698395
Ni       2.53083326       4.46352269       0.06986893        4       1.00000000      -0.03142759       0.03431067       0.00698704
Pt       5.06119905       4.49285030       0.11923458        4       0.00000000      -0.08355064       0.08249096      -0.06776143
Pt       7.76762901       4.47600054       0.06586190        4       0.00000000       0.09991895       0.09918576      -0.16606937
Ni      10.35302752       4.45231802       0.10910684        4       1.00000000       0.16217961       0.07030004       0.07009871
Ni       3.80106877       6.68416076       0.11564997        4       1.00000000      -0.08104813       0.09835680       0.20087174
Pt       6.42548989       6.74867879       0.21382564        4       0.00000000       0.01460181       0.08153858       0.18890046
Ni       9.03088088       6.64460090       0.10932886        4       1.00000000       0.08535727      -0.03923274       0.11175981
Ni      11.60874949       6.61208991       0.11870986        4       1.00000000       0.12594908      -0.05283276       0.06777758
Ni       1.32844951       0.74726193       2.24074251        3       1.00000000       0.04739922       0.06016489       0.17380085
Ni       3.82809860       0.76449276       2.28319524        3       1.00000000      -0.02659564       0.08808780       0.10822822
Ni       6.44237036       0.76540506       2.29098900        3       1.00000000      -0.07254856       0.05726585       0.12354946
Pt       9.03383397       0.72538602       2.29453743        3       0.00000000       0.05461127       0.22496213      -0.02924455
Ni       2.56897389       2.92393679       2.29750235        3       1.00000000       0.01240591      -0.13300036       0.22371138
Ni       5.13107678       2.94405769       2.29352487        3       1.00000000      -0.15580595      -0.02923833       0.03132096
Ni       7.70769009       2.92931015       2.29483022        3       1.00000000       0.05895697      -0.08004391      -0.05277364
Ni      10.34843242       2.92118659       2.31444817        3       1.00000000       0.14359054      -0.08819372       0.16937074
Ni       3.86862146       5.16846627       2.24729714        3       1.00000000      -0.02961176      -0.07912005      -0.00319846
Ni       6.41560198       5.16205760       2.26118357        3       1.00000000       0.04703963      -0.04246506      -0.12127468
Pt       8.97695023       5.12072206       2.33563365        3       0.00000000      -0.09369150      -0.19979425      -0.10220359
Pt      11.66200177       5.10075219       2.28142635        3       0.00000000       0.07181206      -0.13981923       0.11987844
Ni       5.14829686       7.38390247       2.24358168        3       1.00000000       0.03426864      -0.00085793       0.03377775
Ni       7.68382366       7.42256496       2.27115838        3       1.00000000      -0.12070870       0.00527351       0.09042525
Pt      10.29796750       7.35820836       2.26180740        3       0.00000000       0.02243633      -0.00494221      -0.22026909
Ni      12.90395655       7.35244207       2.23202112        3       1.00000000       0.09280832      -0.13124025       0.03021630
Ni       0.07995937       1.52467865       4.34447001        2       1.00000000       0.16985922       0.10942653      -0.07685318
Ni       2.55340945       1.51508274       4.33733090        2       1.00000000      -0.07332899       0.09150959      -0.10314478
Ni       5.15038399       1.49129785       4.34982103        2       1.00000000      -0.14665860      -0.02381338      -0.17710303
Ni       7.73926058       1.48621126       4.39512963        2       1.00000000       0.04976131      -0.05357440      -0.05860124
Ni       1.30616107       3.67760706       4.40619871        2       1.00000000      -0.00112319      -0.03265913      -0.00152085
Ni       3.82383565       3.68637643       4.34110957        2       1.00000000      -0.17748364      -0.07837119      -0.25027402
Pt       6.47566976       3.63614463       4.37952123        2       0.00000000       0.00745391      -0.07093001      -0.11402387
Ni       9.06462226       3.70109466       4.40131768        2       1.00000000       0.16568466      -0.08788067      -0.10683634
Ni       2.56414869       5.84384337       4.41743249        2       1.00000000      -0.07240940      -0.14060627       0.01396410
Pt       5.12822658       5.85647049       4.32266578        2       0.00000000       0.06586203      -0.04247526       0.04081684
Ni       7.75992565       5.87567035       4.40771767        2       1.00000000      -0.06739823      -0.03428923      -0.03897670
Ni      10.31058922       5.83807457       4.48396989        2       1.00000000       0.06423361      -0.07979594       0.06193307
Pt       3.91039072       8.12257994       4.35458220        2       0.00000000       0.01576368      -0.02617755       0.23846887
Ni       6.44574693       8.15092559       4.34111015        2       1.00000000      -0.09291007       0.05017703      -0.10602622
Pt       8.93034042       8.11342280       4.35672976        2       0.00000000      -0.06429890       0.06193186       0.13442684
Pt      11.61182056       8.08622572       4.36654670        2       0.00000000       0.00492833      -0.03206539       0.10230109
Pt       0.03530164       0.00488174       6.55992628        1       0.00000000      -0.01572318       0.03626390       0.15420019
Pt       2.58675725       0.01053875       6.57860470        1       0.00000000      -0.05935493       0.08726098       0.18165536
Pt       5.16752559      -0.04087986       6.50517672        1       0.00000000      -0.01169440      -0.00769664      -0.37156637
Pt       7.73461588      -0.05511368       6.63620536        1       0.00000000      -0.08423853      -0.06293836       0.21940602
Ni       1.30975077       2.27906964       6.50067067        1       1.00000000      -0.02715490       0.23650553      -0.22752867
Pt       3.86576799       2.31280095       6.44051174        1       0.00000000      -0.06915745       0.16793181      -0.21193274
Ni       6.45807346       2.23497099       6.48282682        1       1.00000000      -0.02727812       0.02627146      -0.21565786
Pt       9.04372772       2.30234690       6.45346157        1       0.00000000       0.00052620       0.08943243      -0.31248729
Ni       2.55592799       4.46150946       6.50599110        1       1.00000000      -0.14951409       0.08083292      -0.25311829
Ni       5.15228177       4.42149831       6.48025956        1       1.00000000      -0.06724474       0.03464182      -0.25756343
Ni       7.76289652       4.42635785       6.45883377        1       1.00000000       0.08884110       0.02851466      -0.42046706
Ni      10.34577548       4.45690752       6.54302666        1       1.00000000       0.08517331       0.07680529      -0.21538165
Ni       3.83993556       6.57474494       6.54577978        1       1.00000000      -0.09184789      -0.18672545      -0.11154053
Pt       6.47446754       6.55391789       6.49695924        1       0.00000000      -0.04993000      -0.03335220      -0.21188187
Ni       9.05858270       6.55996610       6.55186934        1       1.00000000       0.05788290      -0.15931337      -0.20065659
Ni      11.59532199       6.55403224       6.57543434        1       1.00000000      -0.04504041      -0.10216687      -0.15965014
