64
Lattice="10.356587666152997 -0.017941383672100287 0.036158310416984994 5.162756139037417 8.8134633497102 -0.025456608831658564 0.029523136827591705 -0.04104591196923777 8.789489983813407" Properties=species:S:1:pos:R:3:tags:I:1:initial_magmoms:R:1:forces:R:3 unique_id=663cf829f86b4b9080dc03e0e3e5616a stress="0.00025131286487065085 2.101027782332945e-06 -1.577661043231482e-05 2.101027782332945e-06 0.0002650435688071884 2.2868879154183852e-05 -1.577661043231482e-05 2.2868879154183852e-05 0.00023806842147622298" energy=-397.62163056695545 pbc="T T T"
Ni      -0.01127187      -0.01630992       0.17644627        4       1.00000000      -0.03789597       0.04227070       0.34073692
Ni       2.61430632      -0.01534822       0.20625104        4       1.00000000       0.12864293       0.03038272       0.44638714
Ni       5.18093705      -0.04076471       0.17532547        4       1.00000000       0.02210126       0.00914769       0.22041759
Ni       7.76063179      -0.08111562       0.21608126        4       1.00000000      -0.05383791      -0.13960110       0.40020907
Pt       1.29836505       2.21183058       0.09972197        4       0.00000000       0.03565373       0.01595409      -0.01833719
Pt       3.86291176       2.15317965       0.18531152        4       0.00000000       0.02485028      -0.00044780       0.19020339
Pt       6.47033358       2.11264075       0.11438763        4       0.00000000       0.05406991      -0.08426513      -0.03218575
Pt       9.08435430       2.18336667       0.14008814        4       0.00000000       0.04081788      -0.03450184       0.13959956
Ni       2.55732257       4.45665105       0.04271781        4       1.00000000       0.00518109       0.09558314       0.01655654
Pt       5.12786242       4.44552428       0.02842332        4       0.00000000      -0.05395354       0.08048416      -0.12756590
Pt       7.80388053       4.45313713       0.03343303        4       0.00000000       0.10204057       0.12220464      -0.15849946
Ni      10.38606070       4.44590131       0.07127470        4       1.00000000       0.06386131       0.13419224       0.03210534
Ni       3.82437115       6.65294154       0.06551377        4       1.00000000      -0.06535034       0.08735767       0.18012103
Pt       6.46515056       6.71379212       0.08959208        4       0.00000000       0.00293855       0.10008900      -0.09545859
Ni       9.08713631       6.63790313       0.06072703        4       1.00000000       0.04010955       0.06337960      -0.02625433
Ni      11.65974841       6.60095615       0.06976254        4       1.00000000       0.11460193      -0.03634030      -0.00324192
Ni       1.33239614       0.71497955       2.25136701        3       1.00000000       0.05045014       0.02818540       0.17162159
Ni       3.85924058       0.73883984       2.26124310        3       1.00000000      -0.07425567       0.13098855       0.18553679
Ni       6.47270479       0.74158128       2.25957804        3       1.00000000      -0.02620177       0.09737282       0.19792998
Pt       9.07900359       0.70752975       2.27434602        3       0.00000000       0.03286077       0.21326016      -0.02007937
Ni       2.58465615       2.88106168       2.28588220        3       1.00000000      -0.02119260      -0.11206284       0.22498152
Ni       5.18531475       2.88786547       2.27338716        3       1.00000000      -0.07707821      -0.06306267       0.05825834
Ni       7.74387947       2.90160585       2.26872268        3       1.00000000       0.02221174      -0.04337083      -0.06008137
Ni      10.38138254       2.89106213       2.30370083        3       1.00000000       0.05253328      -0.09075199       0.19642534
Pt       3.88758924       5.13265764       2.23640561        3       0.00000000       0.00820892      -0.06815533      -0.09293644
Ni       6.47355636       5.13242152       2.22726425        3       1.00000000       0.00715287       0.02186332      -0.06829894
Pt       9.02010705       5.09741096       2.29984297        3       0.00000000      -0.14979351      -0.05679685      -0.04175756
Pt      11.65591825       5.06963772       2.24216546        3       0.00000000      -0.00712789      -0.09631738       0.11280707
Ni       5.20647455       7.34656388       2.19638781        3       1.00000000       0.09327624       0.00137043       0.09315761
Ni       7.72247608       7.36211020       2.21600680        3       1.00000000      -0.11038785       0.00111220       0.08499759
Pt      10.34466676       7.36949070       2.13307945        3       0.00000000      -0.00753181      -0.04119082      -0.04986261
Ni      12.94867209       7.32027485       2.18319042        3       1.00000000       0.00276607      -0.08305194       0.02364033
Ni       0.07352675       1.49546341       4.33451254        2       1.00000000       0.16523229       0.06049357      -0.07619939
Ni       2.56048836       1.48268532       4.32519835        2       1.00000000      -0.05465604       0.04420987      -0.08188661
Ni       5.17908020       1.45824216       4.33470576        2       1.00000000      -0.11875959      -0.04711007      -0.12436298
Ni       7.77653343       1.45761723       4.36596895        2       1.00000000       0.03087370      -0.06976343      -0.04039408
Ni       1.30272839       3.64302905       4.38128193        2       1.00000000       0.00419058       0.00593308      -0.04562429
Ni       3.84520856       3.64488900       4.33335251        2       1.00000000      -0.10715311      -0.08284797      -0.12665104
Pt       6.51522692       3.59845859       4.35356020        2       0.00000000       0.02612741      -0.08583591      -0.13299689
Ni       9.10835286       3.66339192       4.36366971        2       1.00000000       0.13355362      -0.05737716      -0.08831728
Ni       2.56850183       5.80065342       4.40462804        2       1.00000000      -0.05814176      -0.11572746       0.07429637
Pt       5.21900338       5.84423550       4.39532952        2       0.00000000       0.10324659       0.01770803      -0.05608295
Ni       7.78492144       5.83619025       4.39967150        2       1.00000000       0.00097417      -0.00197127      -0.01325045
Ni      10.35886728       5.78629964       4.44079865        2       1.00000000       0.02442489      -0.05697702       0.07867046
Pt       3.91307639       8.05696733       4.30953424        2       0.00000000      -0.02726777      -0.03232242       0.16407045
Ni       6.48302798       8.07785623       4.30371088        2       1.00000000      -0.02243341       0.12362158      -0.13089431
Pt       8.99409086       8.04088301       4.30512654        2       0.00000000      -0.04689458       0.04580214       0.11306544
Pt      11.65264300       8.02327104       4.31898701        2       0.00000000       0.00026002      -0.05222602       0.09296337
Pt       0.03873897      -0.06558910       6.54369989        1       0.00000000       0.00788185      -0.03832159       0.15636818
Pt       2.58815328      -0.07408682       6.55524829        1       0.00000000      -0.06687539      -0.03197600       0.20207379
Pt       5.19243546      -0.08223273       6.58599544        1       0.00000000       0.00015369      -0.08356454       0.04925024
Pt       7.77999396      -0.08622870       6.61324750        1       0.00000000      -0.09881048      -0.06402882       0.22526171
Ni       1.30932541       2.22896633       6.40507213        1       1.00000000      -0.00780104       0.14859175      -0.27472106
Pt       3.88417335       2.26003009       6.41230766        1       0.00000000      -0.06240875       0.14611066      -0.17984823
Ni       6.48938492       2.19248922       6.45111354        1       1.00000000      -0.01905582       0.02227842      -0.24065544
Pt       9.09138994       2.25527533       6.40977113        1       0.00000000       0.00631158       0.14504411      -0.31987497
Ni       2.56788375       4.41024670       6.46824429        1       1.00000000      -0.13551169       0.05742169      -0.24446493
Ni       5.19708384       4.39023154       6.43145271        1       1.00000000       0.02035691       0.01564290      -0.31325025
Ni       7.78065539       4.40838618       6.41647212        1       1.00000000       0.02031396       0.10959359      -0.36989145
Ni      10.39619004       4.40251214       6.49154366        1       1.00000000       0.08408996       0.08003104      -0.23258163
Ni       3.87162023       6.50859987       6.50610959        1       1.00000000      -0.09517813      -0.17984349      -0.06288164
Ni       6.50034206       6.52022143       6.43527782        1       1.00000000       0.11363031      -0.06004515      -0.14244860
Ni       9.07502381       6.48947128       6.49941446        1       1.00000000       0.00819872      -0.17333739      -0.21205647
Ni      11.65602012       6.48347393       6.52014007        1       1.00000000      -0.04859465      -0.11448846      -0.16781834
