64
Lattice="10.221110409947281 0.013648846253945654 -0.04618165267216957 5.12237545256191 8.798707894996468 -0.08559020151020956 0.0 0.0 21.53189939850014" Properties=species:S:1:pos:R:3:tags:I:1:initial_magmoms:R:1:forces:R:3 unique_id=b95348e5d6614265a9a546cac52af93d stress="0.005268938144549906 8.081382655044288e-06 -0.00016699061508978076 8.081382655044288e-06 0.004520248270883032 -0.00013014949891391135 -0.00016699061508978076 -0.00013014949891391135 -0.0012635106501619666" energy=-371.1837268136843 pbc="T T T"
Ni       0.03242685      -0.04854003       0.20800096        2       1.00000000       0.11262430      -0.02589891      -0.14348154
Ni       2.49475030      -0.03527253       0.21472035        2       1.00000000      -0.03773744      -0.02461746      -0.07671403
Pt       5.09893753      -0.06183883       0.14618069        1       0.00000000      -0.11432510       0.05628376      -1.02605239
Ni       7.68572800      -0.04977150       0.16172407        2       1.00000000      -0.05793864      -0.03203032      -0.26619411
Ni       1.26976797       2.20118676       0.11442442        1       1.00000000      -0.03786843       0.00220795       0.36362454
Pt       3.73055683       2.21311175       0.17751757        2       0.00000000       0.06292812      -0.00810709      -0.56909298
Pt       6.42128787       2.22140371       0.08614507        1       0.00000000      -0.01862487       0.01275671      -0.22694922
Pt       9.02355223       2.25153833       0.09464869        1       0.00000000       0.05113783       0.08935113      -0.58784111
Ni       2.51882375       4.42681931       0.04838830        0       1.00000000       0.01617058       0.02424096       0.20124823
Pt       5.10684060       4.51376086       0.06301966        1       0.00000000      -0.06318621       0.09766285       0.05198068
Ni       7.69727393       4.46165917       0.06426519        1       1.00000000       0.06090889       0.05976862       0.28365325
Ni      10.24016003       4.43687156       0.02179941        0       1.00000000      -0.01957115       0.07792089       0.28352337
Ni       3.81606958       6.63205429       0.06177215        1       1.00000000      -0.00266100       0.07975823       0.34272723
Ni       6.41237943       6.63574241       0.06139295        1       1.00000000      -0.02277968       0.07193310       0.34909278
Ni       8.90931150       6.54979680       0.10676872        1       1.00000000      -0.10897501      -0.04650690      -0.12134406
Ni      11.53751075       6.56288021       0.00000000        0       1.00000000       0.01360166       0.01998494       0.21824423
Ni       1.29556150       0.72248951       2.22369611        4       1.00000000       0.00106012       0.04248785       0.21919499
Ni       3.75881560       0.73171379       2.21673120        4       1.00000000      -0.19867172      -0.07075478       0.12196485
Ni       6.40527547       0.73981878       2.21582900        4       1.00000000       0.09591314       0.00154380       0.15004086
Pt       8.95896554       0.72358755       2.20797458        4       0.00000000       0.08110999       0.07483909      -0.00250311
Ni       2.52931043       2.89566672       2.26299104        5       1.00000000       0.03448461      -0.15803345       0.26669027
Ni       5.09469323       2.96173669       2.20103550        4       1.00000000      -0.04227720       0.17458022       0.07332595
Ni       7.67190314       2.97698608       2.20696400        4       1.00000000       0.04986281       0.07881133       0.10391710
Ni      10.24343391       2.93196364       2.21398596        4       1.00000000       0.04628768      -0.10350787       0.27832259
Ni       3.84804359       5.12980109       2.20652594        4       1.00000000       0.08569716      -0.00542646       0.22542590
Ni       6.40617577       5.15756491       2.16697218        4       1.00000000       0.03484856       0.07973244       0.05971806
Ni       8.89770368       5.09225788       2.15213421        4       1.00000000      -0.04741645      -0.16015900       0.15700867
Pt      11.53537186       5.06123686       2.15270518        4       0.00000000       0.11886305      -0.20141470       0.10740401
Ni       5.14703647       7.27421044       2.12496047        3       1.00000000       0.03462370      -0.13423923       0.05402688
Ni       7.59921119       7.30190338       2.10646785        3       1.00000000      -0.12780038      -0.07306671       0.09691451
Pt      10.22517415       7.27140345       2.16507404        4       0.00000000      -0.00310646      -0.07770019      -0.04059962
Ni      12.79702605       7.29957430       2.08370522        3       1.00000000       0.07507827      -0.11740388       0.05272646
Ni       0.03727548       1.47281044       4.32826063        7       1.00000000       0.13558185       0.00744969      -0.14066098
Ni       2.47196043       1.47952899       4.28962263        7       1.00000000      -0.09264435       0.03728341      -0.18698543
Pt       5.10452283       1.46882405       4.21776390        6       0.00000000      -0.09373377      -0.01772285      -0.14933552
Ni       7.65987068       1.45782696       4.28904016        7       1.00000000       0.03954482      -0.03634782      -0.26875241
Ni       1.26441099       3.62901746       4.35805447        8       1.00000000       0.03304878      -0.06609632      -0.01512319
Ni       3.77313095       3.70887844       4.27773041        7       1.00000000      -0.06306879       0.13026005      -0.27919724
Pt       6.41079668       3.71702336       4.28477065        7       0.00000000       0.03926588      -0.02526094      -0.09426409
Ni       8.97187410       3.68823588       4.24655328        6       1.00000000       0.11188880       0.10730587      -0.27157049
Ni       2.54082989       5.79210063       4.34443373        7       1.00000000      -0.01853522      -0.11048487      -0.05924812
Ni       5.09823626       5.83412397       4.29909913        7       1.00000000       0.06116620      -0.00309784      -0.20376891
Ni       7.63630991       5.83351341       4.25792157        7       1.00000000      -0.02926859       0.05791277      -0.25905754
Ni      10.23884366       5.78617102       4.29658246        7       1.00000000       0.05027591      -0.07083177      -0.03290910
Pt       3.83404468       7.95534008       4.23782416        6       0.00000000       0.01425861      -0.07462667       0.05838466
Ni       6.36104025       8.01356417       4.22246781        6       1.00000000      -0.13724909      -0.05311096      -0.27851786
Pt       8.84865381       7.99958177       4.19621673        6       0.00000000      -0.17806424       0.08315686      -0.03355122
Ni      11.51554960       7.99203962       4.22441094        6       1.00000000       0.03535512      -0.12760545      -0.14615035
Pt      -0.01538939      -0.07978146       6.53189940       11       0.00000000       0.02477279       0.10293807       0.19851589
Pt       2.50669513      -0.02883401       6.51582899       11       0.00000000       0.00424213       0.11447521       0.30664269
Pt       5.10729898      -0.04871819       6.41354392       10       0.00000000       0.06605847      -0.00800278       1.04723507
Pt       7.64157102      -0.07522611       6.48534789       11       0.00000000      -0.06548443       0.12863150       0.30823585
Ni       1.24917700       2.22549702       6.44322136       10       1.00000000       0.02612483       0.08126878      -0.24324736
Pt       3.77862582       2.29612115       6.38921534       10       0.00000000      -0.05914828       0.13930351       0.50037002
Ni       6.37309674       2.21870135       6.37726323       10       1.00000000       0.01386056       0.04795673       0.20188394
Pt       8.93695792       2.27178334       6.31957424        9       0.00000000      -0.01538743      -0.06379872       0.54667076
Ni       2.50393201       4.41415716       6.41808556       10       1.00000000       0.05050493       0.00851370      -0.35069343
Ni       5.09554417       4.42232572       6.35482625       10       1.00000000      -0.09256571       0.07530852       0.03539802
Ni       7.60466773       4.37241125       6.43158888       10       1.00000000      -0.09336185      -0.02806661      -0.12601399
Ni      10.26884164       4.36979389       6.38982551       10       1.00000000       0.11748553      -0.02764358      -0.30624075
Ni       3.81339771       6.47978029       6.42448340       10       1.00000000       0.01898040      -0.14419419      -0.30177641
Ni       6.34340530       6.50065205       6.40416138       10       1.00000000      -0.02768105      -0.03054428      -0.32374221
Pt       8.92620449       6.43018562       6.43190443       10       0.00000000       0.04748597      -0.08986615       0.11908802
Ni      11.51773544       6.49644729       6.37696350       10       1.00000000       0.00403047       0.05054020      -0.25162152
