64
Lattice="10.236709949021655 -0.007816328971076477 -0.03996392335896578 5.111585835057538 8.840262955254365 -0.08248118298128856 -0.03263040678305329 -0.05892483093518097 8.766089035720618" Properties=species:S:1:pos:R:3:tags:I:1:initial_magmoms:R:1:forces:R:3 unique_id=b2dadac773ec4f9a89ad66c6459e3340 stress="0.00015103759454045823 -2.653830224560693e-07 9.484509499678983e-06 -2.653830224560693e-07 0.00016049759625968302 1.6709822633979828e-05 9.484509499678983e-06 1.6709822633979828e-05 0.0001572464144888111" energy=-395.5076381957973 pbc="T T T"
Ni      -0.00097291       0.01096724       0.18795320        4       1.00000000       0.01760505       0.05719854       0.33346088
Ni       2.55398836      -0.00779923       0.20025734        4       1.00000000      -0.00313236      -0.00866063       0.36889273
Ni       5.11640390      -0.03422742       0.05670809        4       1.00000000      -0.01853956      -0.00235598       0.04627931
Ni       7.67950883      -0.03800919       0.02852888        4       1.00000000       0.01063102      -0.06148262       0.03448926
Ni       1.23762705       2.20984589       0.17381947        4       1.00000000      -0.15221040       0.02206106       0.31217073
Pt       3.77713596       2.20180977       0.07610993        4       0.00000000      -0.10105363      -0.04144232      -0.17467971
Pt       6.44235917       2.19202482       0.14769664        4       0.00000000       0.05660943      -0.01416981       0.33542671
Ni       8.98616823       2.22729704       0.09902510        4       1.00000000       0.09273935       0.10163257       0.14192964
Ni       2.54194261       4.43406054       0.03470667        4       1.00000000      -0.08170709      -0.01322762       0.03157349
Ni       5.07770746       4.41869963       0.11698598        4       1.00000000      -0.12626865      -0.07561310       0.30692362
Ni       7.72524824       4.40749204       0.02327519        4       1.00000000       0.16551790      -0.04675135       0.08063399
Ni      10.21749802       4.39572279       0.00731364        4       1.00000000      -0.05727518      -0.09141362       0.04410314
Ni       3.81392781       6.61331888       0.00493628        4       1.00000000      -0.00605993      -0.12616017       0.01555122
Pt       6.38842310       6.65397245      -0.01857080        4       0.00000000      -0.05691910      -0.03781424      -0.25455536
Ni       8.95340886       6.59843355       0.06545580        4       1.00000000      -0.11468592      -0.17792002       0.16717102
Ni      11.50833755       6.60717028      -0.05657919        4       1.00000000      -0.06647600      -0.14973093      -0.15472848
Ni       1.29028546       0.74455921       2.15053674        3       1.00000000       0.00957815       0.10214318       0.02876193
Ni       3.82688779       0.74160151       2.17678481        3       1.00000000       0.08509506       0.01244014       0.02156539
Ni       6.36671428       0.74223844       2.21739740        3       1.00000000      -0.02011954       0.04927481       0.17573042
Pt       8.97275441       0.79169008       2.14674792        3       0.00000000      -0.06501517       0.00327493       0.08378863
Ni       2.55140429       2.92572468       2.17616667        3       1.00000000       0.01360303       0.05685389      -0.04058775
Ni       5.06746318       2.90775007       2.19528440        3       1.00000000      -0.12543523      -0.07437421       0.07131285
Ni       7.71719290       2.94565808       2.17316876        3       1.00000000       0.18022525       0.06080447       0.04704915
Ni      10.22493983       2.92890194       2.14902646        3       1.00000000       0.03015201       0.01297286       0.15446473
Ni       3.82141013       5.09510603       2.12469409        3       1.00000000      -0.06045296      -0.14450775      -0.04218566
Pt       6.42247556       5.12178285       2.11757148        3       0.00000000       0.08559732       0.08304535      -0.11148177
Ni       8.94568811       5.09668200       2.13436014        3       1.00000000       0.07856745      -0.07349147       0.08757062
Pt      11.49400009       5.04396497       2.13050143        3       0.00000000       0.01085004      -0.01824206      -0.02148181
Ni       5.11328692       7.35912296       2.10101381        3       1.00000000      -0.01893010      -0.03002793      -0.07272269
Ni       7.65841756       7.37283814       2.10189441        3       1.00000000       0.01316854      -0.01227349       0.01411571
Pt      10.19015521       7.36401208       2.04993102        3       0.00000000      -0.00288629      -0.03194905       0.01310701
Pt      12.80227581       7.32629120       2.04080179        3       0.00000000       0.04801012      -0.05242066      -0.05565471
Ni      -0.02895244       1.51049196       4.32380035        2       1.00000000       0.03597649       0.17850438       0.00337561
Pt       2.56117197       1.54137663       4.24391665        2       0.00000000      -0.06961400       0.07086088       0.03577998
Ni       5.11793476       1.42789006       4.27927099        2       1.00000000       0.05668625      -0.00376711      -0.21740927
Ni       7.65336628       1.43183977       4.28277921        2       1.00000000      -0.03847639       0.05221671      -0.06571115
Ni       1.23667454       3.70329235       4.32777187        2       1.00000000      -0.03836706       0.00856238      -0.01907605
Ni       3.78766580       3.66659918       4.29851024        2       1.00000000      -0.05479383       0.08710933      -0.13824041
Pt       6.42959468       3.59875347       4.25152020        2       0.00000000      -0.01869820      -0.06691222       0.16259047
Ni       8.98400957       3.67340819       4.27085453        2       1.00000000       0.13707532       0.06997876      -0.16390606
Ni       2.47817943       5.82808725       4.35493478        2       1.00000000      -0.14670707      -0.01902716      -0.06573159
Pt       5.02665956       5.83923236       4.27428226        2       0.00000000      -0.09554961      -0.02885599      -0.07734271
Ni       7.70887165       5.82017065       4.28473222        2       1.00000000       0.15557178      -0.04831139      -0.11614843
Ni      10.24738044       5.80768865       4.29041879        2       1.00000000       0.02977879      -0.01866777      -0.09980826
Pt       3.71589191       8.10080309       4.31321420        2       0.00000000       0.03761844       0.03734834       0.10926664
Pt       6.38269706       8.07902288       4.19463651        2       0.00000000      -0.06580639       0.07692587       0.02157943
Pt       9.01226858       8.05631566       4.24327277        2       0.00000000      -0.04630724      -0.06687965       0.03371871
Ni      11.48835587       8.07072325       4.29765165        2       1.00000000      -0.04881259      -0.04564615      -0.07451703
Pt      -0.06452370      -0.09452200       6.58393359        1       0.00000000       0.00846647      -0.00658551       0.19923225
Pt       2.60239215      -0.02895380       6.57578592        1       0.00000000       0.13656963       0.06565799       0.26553706
Ni       5.14553663      -0.07834266       6.47888493        1       1.00000000       0.11251403      -0.23494418      -0.12749470
Ni       7.60013683      -0.09721389       6.47657383        1       1.00000000      -0.08709049      -0.08574056      -0.09036751
Pt       1.29190099       2.28222800       6.50893988        1       0.00000000       0.14134255       0.11113747       0.20939768
Ni       3.82752041       2.18749120       6.39376488        1       1.00000000       0.01117444       0.08555873      -0.33153638
Pt       6.33377796       2.08370015       6.40725460        1       0.00000000      -0.04311606      -0.07722297      -0.18795421
Pt       8.91721672       2.23019579       6.43212967        1       0.00000000      -0.00585232       0.11164719      -0.02172768
Ni       2.50915799       4.44676613       6.43284817        1       1.00000000      -0.07212315       0.24903824      -0.21088257
Pt       5.03491920       4.40496699       6.50585362        1       0.00000000      -0.04281006       0.10848248       0.11863444
Ni       7.65481721       4.39551518       6.43293722        1       1.00000000      -0.09859687       0.02072882      -0.16804912
Ni      10.24385878       4.41138685       6.40143991        1       1.00000000       0.18927232       0.07516292      -0.21755622
Ni       3.74212840       6.57921025       6.44719800        1       1.00000000      -0.18024837       0.02613337      -0.13081818
Ni       6.38098956       6.56553112       6.34949338        1       1.00000000       0.10544456      -0.02224035      -0.45612507
Pt       8.98938785       6.50285703       6.44292422        1       0.00000000       0.10267151      -0.00863733       0.09836826
Ni      11.52726203       6.58035986       6.38249696        1       1.00000000       0.07202451       0.02071167      -0.26507214
