64
Lattice="10.331232192238705 -0.017533490478118793 0.037875922197202046 5.150431647948292 8.936431467672081 0.021386807754295224 0.0 0.0 21.56393698403297" Properties=species:S:1:pos:R:3:tags:I:1:initial_magmoms:R:1:forces:R:3 unique_id=427afae86df54082a8e90e9a9a2f73ae stress="0.005766869406319932 0.0001548758444187121 0.0004110493259281645 0.0001548758444187121 0.0060069931482009675 0.00014383200194882363 0.0004110493259281645 0.00014383200194882363 -0.0016778686494008724" energy=-376.3905686664755 pbc="T T T"
Ni      -0.01417193       0.03267647       0.13034342        1       1.00000000      -0.03893524       0.06226866       0.05791861
Ni       2.58069589       0.00194363       0.14567986        1       1.00000000      -0.03204330       0.04487254      -0.04396790
Ni       5.16977577      -0.01759323       0.10875452        1       1.00000000       0.01509914       0.21031640      -0.32593217
Ni       7.77445354      -0.04412354       0.06966904        1       1.00000000       0.05956662      -0.02367563       0.46748436
Ni       1.25383970       2.23693137       0.04529980        0       1.00000000      -0.07790347      -0.01819185       0.49198793
Pt       3.81101241       2.23327486       0.13553344        1       0.00000000       0.03225689      -0.00948111      -0.51352831
Pt       6.49277383       2.16648107       0.15115601        2       0.00000000       0.06517944      -0.06096833      -0.41963587
Ni       9.08259401       2.19822081       0.13963851        1       1.00000000       0.05645594      -0.04895562       0.21063968
Ni       2.55740521       4.47542171       0.00000000        0       1.00000000      -0.01032854      -0.04991118       0.13877353
Ni       5.15703588       4.46381253       0.10837583        1       1.00000000       0.18468273      -0.09397107      -0.28916636
Pt       7.82079945       4.46675058       0.06858468        1       0.00000000       0.02744340      -0.06296825       0.05491440
Ni      10.34990463       4.44224959       0.03414089        0       1.00000000      -0.00282553      -0.12031947       0.21978861
Ni       3.83323757       6.73140412       0.11741234        1       1.00000000      -0.03597539       0.19497205      -0.13764049
Pt       6.43075304       6.74956689       0.15479045        2       0.00000000      -0.06722898       0.04739468      -0.56352222
Ni       9.05383833       6.70575311       0.04190615        0       1.00000000      -0.06500403      -0.01186726       0.18562036
Ni      11.62960947       6.69753837       0.03142303        0       1.00000000       0.14147400       0.05445221       0.21056987
Ni       1.27149289       0.76687038       2.09331121        3       1.00000000      -0.12352547       0.15210101      -0.05414603
Ni       3.87597960       0.74675729       2.15143006        4       1.00000000       0.07022177      -0.00777659       0.13400276
Ni       6.49414029       0.74474763       2.19874941        4       1.00000000       0.14558093       0.10170672       0.22761552
Ni       9.04699215       0.75604463       2.14635489        3       1.00000000      -0.03810357       0.12766654       0.02127434
Ni       2.55470886       2.95970736       2.15136578        4       1.00000000      -0.18125227      -0.00513045       0.03426456
Ni       5.17204633       2.95144657       2.19885429        4       1.00000000      -0.04823725      -0.12233577       0.25107298
Ni       7.80170139       2.94837273       2.19565982        4       1.00000000       0.26310595      -0.10586708       0.13059465
Ni      10.30659052       2.91929237       2.16289369        4       1.00000000      -0.03606798      -0.11876960       0.04491793
Pt       3.88659302       5.19227863       2.10921664        3       0.00000000      -0.02601078      -0.09189883       0.02464318
Ni       6.49485456       5.19492002       2.17348202        4       1.00000000       0.12953823      -0.05583208       0.14032908
Ni       9.01121243       5.18070844       2.20013840        4       1.00000000      -0.08157931      -0.11779242       0.20685844
Pt      11.59426397       5.15836137       2.11059912        3       0.00000000      -0.11142682      -0.08814087      -0.02268304
Ni       5.13800438       7.49606627       2.13562256        3       1.00000000      -0.11851927       0.13608805       0.00848536
Ni       7.74329389       7.44460684       2.16539727        4       1.00000000       0.05357920      -0.03343421       0.08127303
Pt      10.30760559       7.45915413       2.08333416        3       0.00000000       0.00968726      -0.06819720      -0.08736643
Ni      12.92823834       7.46964567       2.14670120        3       1.00000000      -0.00694814       0.11278231      -0.05575612
Ni      -0.01941027       1.53315343       4.26149754        6       1.00000000      -0.07636312       0.06336123      -0.36573796
Pt       2.59670324       1.52710742       4.19749623        5       0.00000000      -0.02999576       0.00752080      -0.09816943
Ni       5.19125709       1.50358436       4.27420095        6       1.00000000       0.01314909       0.06671431      -0.37850240
Ni       7.79502066       1.50064594       4.27891371        6       1.00000000       0.11226057       0.06469476      -0.37040308
Pt       1.28394401       3.71340734       4.35129645        7       0.00000000      -0.04525864      -0.07836736      -0.01839411
Ni       3.88247115       3.72915492       4.29218354        6       1.00000000       0.05119554      -0.02009998      -0.24728445
Pt       6.52444214       3.68337915       4.21943253        5       0.00000000       0.00824131      -0.06189062      -0.07547753
Ni       9.03998409       3.69016220       4.31019910        6       1.00000000       0.00396820      -0.13018959      -0.37230833
Ni       2.57237278       5.93771865       4.32869178        6       1.00000000      -0.00611000      -0.03725533      -0.17182195
Pt       5.15466501       5.92551277       4.25504800        6       0.00000000      -0.03230338       0.00093469      -0.10619564
Ni       7.77575913       5.90638566       4.30336827        6       1.00000000      -0.04648012      -0.06620376      -0.33329703
Pt      10.29660498       5.89905213       4.40861082        7       0.00000000      -0.00820142       0.03313099      -0.08686836
Pt       3.85846594       8.25837277       4.23296519        5       0.00000000      -0.01861423       0.14411313      -0.10344026
Pt       6.44377855       8.20767453       4.20438347        5       0.00000000      -0.03330561       0.09072109      -0.20794937
Pt       9.03328742       8.17791806       4.29954066        6       0.00000000      -0.10834613       0.03248870      -0.04095437
Pt      11.65601234       8.21483797       4.31737821        6       0.00000000       0.03585802       0.04909416      -0.04214257
Pt      -0.00811011       0.04128911       6.52735949        9       0.00000000       0.02729240      -0.00985036       0.11804553
Pt       2.60567209       0.00177931       6.56393698       10       0.00000000       0.03065093      -0.04079932       0.39602361
Pt       5.23324019      -0.09749860       6.55495295       10       0.00000000      -0.08848171       0.11991459       0.40764223
Ni       7.76649851      -0.01842468       6.50942251        9       1.00000000       0.03645791       0.06282176      -0.11406961
Ni       1.29713461       2.28410457       6.48894120        9       1.00000000      -0.02171356      -0.02761695      -0.13041914
Pt       3.83501783       2.27558829       6.42574687        8       0.00000000       0.22414352      -0.08305268       0.54338775
Pt       6.51999787       2.19653504       6.42886099        8       0.00000000      -0.06515214      -0.05353281       0.53047466
Pt       9.10632197       2.30684780       6.48721907        9       0.00000000       0.01360094       0.10194163      -0.11331263
Ni       2.53111770       4.47769643       6.47889829        9       1.00000000      -0.03795350       0.06357198      -0.13929111
Pt       5.16160141       4.46350993       6.52634854        9       0.00000000      -0.03574145      -0.05652608       0.34598286
Ni       7.81687038       4.47869011       6.41551845        8       1.00000000       0.09754401       0.05158304      -0.03602544
Ni      10.35798399       4.48029673       6.52973613        9       1.00000000      -0.02924331       0.04248763      -0.12889267
Pt       3.75519380       6.69981434       6.53578847        9       0.00000000       0.04575615      -0.04824418       0.05831257
Pt       6.53891918       6.65282728       6.45527847        9       0.00000000      -0.03326386       0.01198964       0.55433396
Ni       9.07893367       6.63214955       6.51970452        9       1.00000000      -0.06238225      -0.08534828      -0.00193723
Ni      11.61084588       6.64212722       6.52642460        9       1.00000000      -0.07316454      -0.13724312      -0.10099272
