64
Lattice="10.253946993822996 -0.009150837371053754 0.019154843214779116 5.119048639282267 8.794124567834912 -0.024700046832773853 0.015639863993073832 -0.03231710716792999 8.753524944779286" Properties=species:S:1:pos:R:3:tags:I:1:initial_magmoms:R:1:forces:R:3 unique_id=4bacaf553b64464693405df46e099ada stress="-7.709175135577062e-05 1.6041939743773864e-06 -9.451566572717725e-06 1.6041939743773864e-06 -6.654431453136794e-05 1.5474278894040282e-05 -9.451566572717725e-06 1.5474278894040282e-05 -2.6287835134003457e-05" energy=-394.03980766028974 pbc="T T T"
Ni       0.01700867      -0.01396889       0.18017644        4       1.00000000       0.06345087      -0.02611670       0.36568386
Ni       2.52902737      -0.00013692       0.20679032        4       1.00000000      -0.05936376       0.02202169       0.42965704
Pt       5.12548008      -0.04005123       0.15484130        4       0.00000000      -0.02274019      -0.09737821       0.36835294
Ni       7.71495038      -0.05852283       0.20013755        4       1.00000000       0.04036608      -0.02467420       0.37391450
Ni       1.28051872       2.20571567       0.10494061        4       1.00000000       0.01751643       0.04548465       0.26986769
Pt       3.76502537       2.25268819       0.17897995        4       0.00000000      -0.09102144       0.10791758       0.16597774
Pt       6.42252596       2.25940386       0.11417270        4       0.00000000       0.05260193       0.16199405       0.00524651
Pt       9.04230385       2.24004116       0.13543863        4       0.00000000       0.09355925       0.03722399       0.12559296
Ni       2.55094081       4.43326811       0.05407154        4       1.00000000       0.03091901       0.08897145       0.00924917
Ni       5.09832335       4.42989513       0.10059246        4       1.00000000      -0.10658845       0.09247286       0.25060057
Ni       7.70914245       4.42389573       0.10934410        4       1.00000000       0.08114145       0.07772794       0.25820579
Ni      10.27258317       4.41974124       0.08040591        4       1.00000000       0.09466398       0.13315725       0.10431083
Ni       3.80956254       6.58150296       0.08865301        4       1.00000000      -0.02507955      -0.04074336       0.18800612
Pt       6.39159829       6.57985220       0.16645463        4       0.00000000      -0.04130255      -0.02696930       0.03977448
Ni       8.96029423       6.53822432       0.15254128        4       1.00000000      -0.07576478      -0.12445308       0.19930887
Ni      11.56684217       6.54951939       0.06994240        4       1.00000000       0.08911019      -0.04193403       0.05183661
Ni       1.31486620       0.73452873       2.21916864        3       1.00000000       0.02677739       0.04210514       0.15764155
Ni       3.80712563       0.76080607       2.24531675        3       1.00000000      -0.01444819       0.09521230       0.05085508
Ni       6.41280216       0.76604801       2.24780155        3       1.00000000      -0.06657409       0.12737422       0.07428642
Pt       8.99495374       0.71929324       2.25133025        3       0.00000000       0.03671381       0.18177720      -0.00384945
Ni       2.55398373       2.90098466       2.26748354        3       1.00000000       0.02870029      -0.09940946       0.19854425
Ni       5.11260328       2.94678866       2.24596890        3       1.00000000      -0.13038018       0.05285488       0.03178329
Ni       7.69421175       2.96427537       2.24574154        3       1.00000000       0.10094216       0.02722332       0.01942485
Ni      10.28016649       2.91783441       2.26288469        3       1.00000000       0.04719838      -0.05867383       0.16073954
Ni       3.87983853       5.11253069       2.19157239        3       1.00000000       0.08954557      -0.05851483       0.02584075
Ni       6.40600090       5.10581173       2.21837642        3       1.00000000      -0.02138284       0.02009885      -0.01701231
Ni       8.92634999       5.07335484       2.20615914        3       1.00000000      -0.08112382      -0.18329515       0.07128221
Pt      11.57961871       5.04304221       2.21422274        3       0.00000000       0.14672936      -0.15493340       0.07168003
Ni       5.13596930       7.28571980       2.20180358        3       1.00000000       0.06945604      -0.15144966       0.01181618
Ni       7.64398233       7.31438342       2.20342392        3       1.00000000      -0.18130515      -0.09064099       0.02246254
Pt      10.22143514       7.24585076       2.19232487        3       0.00000000      -0.07407558      -0.08345199      -0.20398266
Ni      12.84921626       7.27511688       2.14990042        3       1.00000000       0.10071798      -0.19298519      -0.03506825
Ni       0.06286983       1.49832611       4.31155609        2       1.00000000       0.13049643       0.07643472      -0.08397465
Ni       2.52682087       1.50322540       4.28860152        2       1.00000000      -0.05642507       0.11651232      -0.10921435
Ni       5.12193096       1.48477403       4.29399355        2       1.00000000      -0.11626283       0.05894500      -0.22121975
Ni       7.69416023       1.47372176       4.33381849        2       1.00000000       0.01556581       0.01828632      -0.08270101
Ni       1.28980330       3.63811161       4.36165573        2       1.00000000       0.03152744      -0.04287904      -0.01861165
Ni       3.81740274       3.68601382       4.28917337        2       1.00000000      -0.08479090       0.04921473      -0.26165367
Pt       6.40866001       3.66168608       4.32133982        2       0.00000000      -0.01253455      -0.00267146      -0.00503077
Ni       9.00749485       3.67956945       4.29843562        2       1.00000000       0.06763406       0.05270908      -0.26138394
Ni       2.57914895       5.77464464       4.36115615        2       1.00000000       0.01252052      -0.15029916      -0.08786398
Ni       5.10320657       5.80354371       4.28735770        2       1.00000000      -0.01650743      -0.16882278      -0.24013450
Ni       7.69703980       5.81127651       4.28175701        2       1.00000000       0.02734566      -0.02193004      -0.23941958
Ni      10.26957304       5.75996720       4.35519123        2       1.00000000       0.05617039      -0.14400607      -0.05394320
Pt       3.91142320       7.97515387       4.28581651        2       0.00000000       0.04035923      -0.13265655       0.22243402
Ni       6.40334135       8.04483660       4.26128315        2       1.00000000      -0.06003862      -0.00525330      -0.16705970
Pt       8.87912974       8.05373338       4.26102353        2       0.00000000      -0.04304568       0.04877914       0.13208661
Pt      11.56609512       8.00720846       4.27033840        2       0.00000000       0.01751670      -0.03330376       0.06757447
Pt       0.01355240       0.00052345       6.52130410        1       0.00000000       0.02828465       0.07825953       0.13056487
Pt       2.55149855       0.01714072       6.52349554        1       0.00000000      -0.06354980       0.05387707       0.20484036
Pt       5.14788248       0.00181211       6.44350186        1       0.00000000       0.06362735       0.07879215      -0.41072057
Pt       7.70370492      -0.06544109       6.56322076        1       0.00000000      -0.10271309      -0.05080721       0.16122736
Ni       1.28956359       2.25337386       6.44778705        1       1.00000000       0.02592268       0.17293688      -0.21470104
Pt       3.83523614       2.30314094       6.38027728        1       0.00000000      -0.09984618       0.17601347      -0.26777571
Ni       6.42005455       2.21999448       6.40807627        1       1.00000000      -0.02368724       0.04074293      -0.24468885
Pt       8.99161705       2.27780508       6.37479265        1       0.00000000       0.00403656       0.12978203      -0.38755572
Ni       2.54063485       4.42132350       6.44521198        1       1.00000000      -0.07255784       0.08315979      -0.24405263
Ni       5.10996227       4.37856244       6.47124092        1       1.00000000      -0.12095662       0.07365856      -0.15609954
Ni       7.67636261       4.34576027       6.47669002        1       1.00000000      -0.10974137      -0.02361364      -0.14294021
Ni      10.33157422       4.36276607       6.46225908        1       1.00000000       0.25669274      -0.00758172      -0.24259391
Ni       3.81220001       6.49177065       6.46534414        1       1.00000000      -0.05968252      -0.19495861      -0.12359476
Pt       6.36619385       6.47580083       6.37602586        1       0.00000000      -0.05734763       0.01475843      -0.33262540
Pt       9.02855492       6.44115727       6.48947913        1       0.00000000       0.05678310      -0.13164020       0.03832925
Ni      11.57750198       6.49153642       6.48054696        1       1.00000000       0.04624442      -0.07043260      -0.19952749
