64
Lattice="10.207738343201607 -0.003937312380272304 0.011526507848045361 5.100459359056854 8.74988952215331 -0.07734839605136014 0.00941135424796566 -0.07835841505759486 8.701222282890845" Properties=species:S:1:pos:R:3:tags:I:1:initial_magmoms:R:1:forces:R:3 unique_id=292a20f0c13e4dcb86e65cf1dc68cdb9 stress="8.3910179782265e-05 3.507420146513184e-06 -8.230575038060325e-06 3.507420146513184e-06 0.00010709733669145294 3.844555238537575e-05 -8.230575038060325e-06 3.844555238537575e-05 0.00010076189330882751" energy=-392.77240609457414 pbc="T T T"
Ni      -0.00481185      -0.01545878       0.07339770        4       1.00000000       0.04020666      -0.10088113       0.00854874
Pt       2.55277291      -0.00668497       0.09946570        4       0.00000000       0.00926948      -0.12477125      -0.13312221
Ni       5.11054668       0.04194681       0.10876402        4       1.00000000      -0.00783653       0.04410070       0.21571286
Ni       7.66315847       0.02994175       0.07786291        4       1.00000000       0.01172824       0.01076677       0.04883450
Ni       1.25060353       2.12705127       0.07749693        4       1.00000000      -0.07819296      -0.15932590       0.14986896
Ni       3.86524773       2.14290584       0.05603298        4       1.00000000       0.07552773      -0.15119089       0.09735792
Ni       6.38033559       2.12505184       0.05760952        4       1.00000000       0.07809064      -0.21387608       0.08938667
Ni       8.92008071       2.12533089       0.05476718        4       1.00000000      -0.04700123      -0.09178341       0.00278249
Pt       2.61301810       4.29908840       0.07256029        4       0.00000000       0.08524299      -0.11278258       0.26455546
Ni       5.11708154       4.36822129       0.02838625        4       1.00000000      -0.04719891      -0.00849583       0.05458320
Pt       7.57582213       4.35262296       0.06028024        4       0.00000000      -0.07445341      -0.08117625      -0.09349093
Pt      10.17035542       4.30541117       0.02511820        4       0.00000000      -0.06957076      -0.10065069      -0.10702840
Ni       3.87719398       6.60058071       0.12791844        4       1.00000000       0.05631488       0.09447795       0.42708248
Ni       6.34375103       6.56164458       0.14227424        4       1.00000000      -0.03392658      -0.04086784       0.31858092
Ni       8.91030292       6.56983997       0.13536668        4       1.00000000      -0.01632808      -0.06878860       0.30608390
Pt      11.48182836       6.65743313       0.01597469        4       0.00000000      -0.01369569       0.03929465      -0.15052365
Ni       1.30083869       0.72626816       2.19519717        3       1.00000000       0.08403997       0.04248061       0.04115000
Ni       3.81824952       0.67197098       2.20173040        3       1.00000000      -0.08602539      -0.08052765       0.09739708
Ni       6.36743993       0.66004873       2.15454147        3       1.00000000      -0.02225522      -0.10538924       0.04654826
Pt       8.95416229       0.71604418       2.12728967        3       0.00000000       0.03463447       0.01751803       0.02749871
Ni       2.52926616       2.82527018       2.20280499        3       1.00000000       0.02663807      -0.07663310       0.05171866
Pt       5.13483503       2.85968973       2.13650777        3       0.00000000       0.04745540      -0.00562964      -0.03205893
Ni       7.66803447       2.90959565       2.16429713        3       1.00000000       0.01372612       0.03613773      -0.00647595
Ni      10.22663504       2.86531368       2.18054401        3       1.00000000       0.09291790      -0.03403301      -0.02821343
Pt       3.88774233       5.14573519       2.22257234        3       0.00000000      -0.02699529       0.04588517       0.04233511
Ni       6.41724389       5.12139366       2.19339143        3       1.00000000       0.07339789       0.03674502       0.21322954
Ni       8.88860353       5.11812151       2.18160026        3       1.00000000      -0.04345857       0.09505463      -0.01608548
Pt      11.43066044       5.09060831       2.27043294        3       0.00000000      -0.03527746       0.01756814      -0.17896291
Ni       5.16196831       7.28735784       2.09422224        3       1.00000000       0.17900015       0.12114919       0.08323820
Ni       7.67543157       7.25503171       2.13582130        3       1.00000000       0.08985848       0.01496116       0.05858194
Ni      10.16430448       7.31596370       2.17024516        3       1.00000000      -0.04731769       0.05687957       0.09249370
Ni      12.73323954       7.30521516       2.14376385        3       1.00000000      -0.15851253       0.04247242       0.04805362
Ni       0.05127527       1.45214237       4.33470664        2       1.00000000      -0.01366115       0.02056186      -0.08073433
Ni       2.53389513       1.46386251       4.31861943        2       1.00000000      -0.04681139       0.13077115      -0.08571559
Pt       5.03335274       1.38976826       4.36081116        2       0.00000000      -0.05251506      -0.04409546      -0.01644469
Pt       7.62849299       1.44060964       4.36306765        2       0.00000000      -0.08410956       0.02457521      -0.02801687
Ni       1.28314738       3.55971602       4.26531972        2       1.00000000       0.05531545      -0.12031868      -0.13617005
Ni       3.83596940       3.60541767       4.28245510        2       1.00000000      -0.03342129      -0.00073445      -0.08356661
Ni       6.36103789       3.65526456       4.31964594        2       1.00000000      -0.02654010       0.04106178      -0.10133971
Pt       8.96536405       3.65673723       4.27665817        2       0.00000000       0.01425961       0.06840782      -0.17560983
Ni       2.51728539       5.78666483       4.28445550        2       1.00000000      -0.03020589      -0.02718660       0.09839538
Ni       5.13589989       5.73929745       4.28777220        2       1.00000000       0.11771655       0.03043763       0.21003732
Ni       7.66220798       5.79063173       4.22963226        2       1.00000000       0.02965727       0.09018678      -0.05526186
Ni      10.21981299       5.83561710       4.28587413        2       1.00000000      -0.08501799       0.10861271      -0.03052780
Pt       3.81583048       7.94476125       4.22703916        2       0.00000000       0.01631846      -0.13671634       0.11829951
Pt       6.44317360       8.01097047       4.20640189        2       0.00000000       0.05242634      -0.01182029       0.07965411
Ni       8.95422133       7.95709024       4.23078291        2       1.00000000      -0.00177240      -0.10391549      -0.12241688
Ni      11.44642638       7.93732155       4.26694735        2       1.00000000      -0.03070276       0.01973858      -0.13599131
Ni       0.00609542       0.02040860       6.45845271        1       1.00000000      -0.02047448       0.11836822      -0.14459546
Ni       2.57612783       0.01646589       6.37661647        1       1.00000000       0.09333642       0.16231117      -0.24213939
Ni       5.13233242      -0.02710864       6.45852506        1       1.00000000       0.07222392       0.08692835       0.00330161
Ni       7.62758984      -0.01293958       6.47862979        1       1.00000000      -0.09223436       0.15436907      -0.08643826
Ni       1.25758266       2.10101441       6.40241017        1       1.00000000      -0.08219303      -0.05738950      -0.14264453
Ni       3.83649898       2.11294132       6.43950185        1       1.00000000      -0.03571638      -0.00785863      -0.03097785
Ni       6.37395269       2.14818424       6.46580547        1       1.00000000      -0.05897455       0.12190565       0.00377197
Ni       8.95612903       2.12976398       6.45254429        1       1.00000000       0.05068466       0.08677684      -0.10615287
Pt       2.52817584       4.24956713       6.29138579        1       0.00000000      -0.04147529      -0.10734137      -0.31660048
Ni       5.12680350       4.25964950       6.38776354        1       1.00000000      -0.02491222      -0.10259973      -0.19929698
Ni       7.64884044       4.27099002       6.33898887        1       1.00000000       0.01479148      -0.05939049      -0.24811659
Ni      10.21650714       4.29072612       6.32915655        1       1.00000000       0.02036004      -0.02893081      -0.29108393
Pt       3.78972500       6.53346688       6.44748343        1       0.00000000      -0.04386528       0.14844139       0.21867375
Pt       6.39372919       6.48646853       6.42059325        1       0.00000000       0.00840342       0.08137679       0.18452325
Pt       8.99725243       6.52280782       6.37841952        1       0.00000000       0.04148095       0.07310754       0.17763708
Ni      11.48377706       6.53497482       6.28551183        1       1.00000000       0.02762581       0.08167068      -0.27411315
