64
Lattice="10.804670835422128 0.0008867631270189422 -0.005734163853336929 5.403103377106202 9.34987637302765 -0.006149664021953843 0.0 0.0 21.902966683284557" Properties=species:S:1:pos:R:3:tags:I:1:initial_magmoms:R:1:forces:R:3 unique_id=86c09815ee0643289e72242a29a2222b stress="0.0023317717897310478 4.955053944137753e-06 2.310512976165919e-05 4.955053944137753e-06 0.002388148514748306 2.8699913528153478e-05 2.310512976165919e-05 2.8699913528153478e-05 -0.003567895295100258" energy=-407.093039954853 pbc="T T T"
Pt      -0.00788578       0.00438497       0.03115745        0       0.00000000      -0.08413444       0.05038545      -0.12632265
Pt       2.69765526      -0.00216470       0.00811389        0       0.00000000      -0.00604629      -0.01849289      -0.06287140
Pt       5.40317175       0.00004375       0.00929708        0       0.00000000      -0.02476006       0.00105073      -0.17106057
Pt       8.11417371       0.00608605       0.02743248        0       0.00000000       0.11953567       0.06125517      -0.23246029
Pt       1.34958912       2.33641024       0.00972562        0       0.00000000       0.03010234      -0.01884700      -0.27600887
Pt       4.05125108       2.33732764       0.00475214        0       0.00000000      -0.01106435      -0.01973414      -0.29999972
Pt       6.75413750       2.33704056       0.00818901        0       0.00000000      -0.02802261       0.00677112      -0.31616925
Pt       9.45467180       2.32594152       0.02551725        0       0.00000000       0.00825754      -0.13980398      -0.24619037
Pt       2.70141324       4.67429532       0.00995425        0       0.00000000       0.01209342      -0.01139424      -0.30323621
Pt       5.40269841       4.67502975       0.00660530        0       0.00000000      -0.00789419       0.00408253      -0.31412990
Pt       8.10455329       4.67235327       0.00782462        0       0.00000000      -0.01323414       0.00299455      -0.26739412
Pt      10.80366034       4.67194897       0.00878910        0       0.00000000       0.00540814      -0.00593640      -0.25261315
Pt       4.05213068       7.01418766       0.00913811        0       0.00000000       0.02279900      -0.01309677      -0.27078043
Pt       6.75110878       7.01742355       0.00496754        0       0.00000000       0.01289148       0.03808522      -0.14663833
Pt       9.45436417       7.01491521       0.00000000        0       0.00000000      -0.02787587       0.03947095      -0.18995568
Pt      12.15810620       7.01591234       0.00640156        0       0.00000000      -0.00720325       0.01470594      -0.22997704
Pt       1.31666894       0.76355804       2.33439990        1       0.00000000      -0.01090346      -0.00026472       0.41962023
Pt       4.04798565       0.76255691       2.33351150        1       0.00000000      -0.00300563      -0.00525065       0.47368147
Pt       6.78546850       0.77727108       2.30412724        1       0.00000000       0.01232807      -0.00463190       0.43151589
Ni       9.45569091       0.77788993       2.28110747        1       1.00000000       0.01372532      -0.00553125       0.49337263
Pt       2.69357260       3.10409195       2.31274415        1       0.00000000      -0.03078518      -0.06804176       0.49969332
Pt       5.40594188       3.10860324       2.30667996        1       0.00000000       0.02192633      -0.03858416       0.48496318
Pt       8.12155680       3.08450703       2.30228430        1       0.00000000       0.01357905      -0.01990766       0.44611691
Pt      10.78732154       3.07940426       2.30447573        1       0.00000000      -0.00257097      -0.05492884       0.45612333
Pt       4.05346256       5.46442622       2.30894221        1       0.00000000       0.01123940       0.05138889       0.48166852
Pt       6.75556076       5.46091712       2.30664076        1       0.00000000       0.01803848       0.03086866       0.48449993
Pt       9.45006224       5.45331456       2.30462302        1       0.00000000      -0.01860964      -0.00629419       0.46465595
Pt      12.15206763       5.45793233       2.30370085        1       0.00000000      -0.01123845       0.01657976       0.49262185
Pt       5.39935142       7.82879173       2.32995955        1       0.00000000       0.01115008       0.00915073       0.44102998
Pt       8.09598425       7.81180330       2.36144628        2       0.00000000      -0.03388916       0.05662088       0.54115132
Pt      10.79376491       7.80171454       2.32640517        1       0.00000000       0.00112466       0.01302656       0.47374904
Pt      13.52533210       7.82543525       2.30450554        1       0.00000000       0.02748470       0.02764953       0.45553667
Pt       0.01000553       1.51752867       4.58507807        3       0.00000000       0.03540866      -0.03029698      -0.43559065
Pt       2.69406902       1.47828357       4.60408562        3       0.00000000      -0.03038164      -0.12355560      -0.42962016
Pt       5.37922713       1.52357991       4.60569033        3       0.00000000      -0.02292223      -0.03356650      -0.44514591
Pt       8.11482688       1.54297107       4.57966945        3       0.00000000       0.01334288      -0.02931420      -0.48263543
Pt       1.34678841       3.88187472       4.60578369        3       0.00000000      -0.00360386      -0.06923079      -0.50366161
Pt       4.04916687       3.88620355       4.60624090        3       0.00000000      -0.00655373      -0.04858240      -0.49148310
Pt       6.75393329       3.89917445       4.60461215        3       0.00000000       0.01533844       0.03325076      -0.49551024
Pt       9.45126970       3.90082268       4.60555901        3       0.00000000      -0.00438548       0.05219487      -0.47069056
Pt       2.70120651       6.24259883       4.60399742        3       0.00000000       0.01048714       0.04683488      -0.48976738
Pt       5.42338633       6.27039366       4.60135353        3       0.00000000       0.02822356       0.06987331      -0.46500918
Pt       8.10099232       6.31113068       4.60459227        3       0.00000000      -0.00247433       0.12293408      -0.39702997
Pt      10.77826263       6.26586146       4.60264269        3       0.00000000      -0.04066687       0.03795783      -0.45679384
Pt       4.08195024       8.58298429       4.57945144        3       0.00000000       0.00902105       0.00170433      -0.45848776
Ni       6.76790945       8.57019749       4.62340627        3       1.00000000       0.03245595       0.01236052      -0.49197646
Ni       9.43338643       8.56934571       4.62582131        3       1.00000000      -0.04616045       0.00981348      -0.50363212
Pt      12.12322907       8.57098696       4.60133695        3       0.00000000      -0.00639014       0.00243465      -0.44591837
Pt       0.00679437      -0.00673717       6.88470855        4       0.00000000       0.10453299      -0.06939481       0.08700928
Pt       2.69712157      -0.01604922       6.85626876        4       0.00000000      -0.00739047      -0.15625734       0.12174619
Pt       5.38633343      -0.00776087       6.88061743        4       0.00000000      -0.12271649      -0.08294015       0.19892611
Pt       8.10252466      -0.00230867       6.89680923        4       0.00000000       0.01965449      -0.01858886       0.13159920
Pt       1.35048334       2.33063373       6.89770065        4       0.00000000       0.00171593       0.00689186       0.22231679
Pt       4.04533334       2.33066628       6.89357802        4       0.00000000      -0.02505343       0.01896125       0.23565037
Pt       6.74753048       2.33314160       6.89768480        4       0.00000000       0.00543651      -0.01436522       0.23956333
Pt       9.45331491       2.33092575       6.89797678        4       0.00000000       0.01734589      -0.02277889       0.16877267
Pt       2.69791983       4.67295353       6.90296668        4       0.00000000      -0.00187153       0.01136086       0.33555366
Pt       5.40048184       4.67633063       6.89676025        4       0.00000000      -0.02243745       0.01937010       0.27312445
Pt       8.10057091       4.67991824       6.89211798        4       0.00000000       0.00225639       0.03160020       0.22042025
Pt      10.80112974       4.67617022       6.89624809        4       0.00000000       0.02626539       0.00610980       0.28730416
Pt       4.05089188       7.01087246       6.90076897        4       0.00000000      -0.01827811      -0.00120977       0.30058943
Pt       6.75090455       7.02305058       6.87653079        4       0.00000000      -0.03263275       0.12383943       0.23431239
Pt       9.44990253       7.02301204       6.87462995        4       0.00000000       0.02294383       0.11906400       0.24730518
Pt      12.15118900       7.01143401       6.89597084        4       0.00000000       0.02904389      -0.01982080       0.32456703
