64
Lattice="10.347028283177472 -0.013210200009917614 -0.04229734969643559 5.162073772791071 8.987771358697259 -0.037596396676613394 -0.03453564140944404 -0.01550706085323798 8.925635593279974" Properties=species:S:1:pos:R:3:tags:I:1:initial_magmoms:R:1:forces:R:3 unique_id=d2b57a66cc5d4141bc698f635510ef77 stress="-5.879912725720998e-05 -4.981336064880702e-07 -6.36831353464595e-06 -4.981336064880702e-07 -6.013976868265297e-05 -3.0678887054391916e-06 -6.36831353464595e-06 -3.0678887054391916e-06 -5.485965254072023e-05" energy=-403.47346919484147 pbc="T T T"
Ni      -0.01328122       0.01961280       0.17918169        4       1.00000000      -0.02016189      -0.00178420       0.16479381
Pt       2.52330111      -0.00497438       0.17384833        4       0.00000000      -0.00691899       0.00450799       0.01659091
Pt       5.15019747      -0.02419759       0.09821865        4       0.00000000      -0.01614779       0.08063958      -0.19093642
Pt       7.87365544      -0.03559212       0.04620794        4       0.00000000       0.00588572      -0.02510680      -0.07995624
Ni       1.22324882       2.28439672       0.07898385        4       1.00000000      -0.07146508       0.02334312       0.13879318
Pt       3.82092720       2.33402969       0.00214353        4       0.00000000      -0.03782803      -0.00097560      -0.22212360
Pt       6.47194590       2.30029420       0.10722972        4       0.00000000      -0.02344390       0.06717642      -0.07246612
Ni       9.11310801       2.23423674       0.14953362        4       1.00000000       0.06834244      -0.04851888       0.23880643
Ni       2.58259719       4.49356363       0.05265748        4       1.00000000       0.00688454       0.00221498       0.06985128
Ni       5.12004785       4.52067987       0.08298542        4       1.00000000      -0.05928519       0.01299850       0.14341783
Pt       7.83881721       4.52938697       0.00349648        4       0.00000000       0.08447926       0.03295658      -0.19663420
Ni      10.36173057       4.43081112       0.02866002        4       1.00000000       0.06909979      -0.11570791       0.14201333
Ni       3.86970332       6.69124701       0.17046267        4       1.00000000      -0.05608628      -0.11132149       0.20036731
Pt       6.37311063       6.71594100       0.15183315        4       0.00000000      -0.04881647      -0.02524287      -0.08308649
Ni       9.03675753       6.70692011       0.02993247        4       1.00000000      -0.04556625       0.03124896       0.03581639
Pt      11.65865067       6.63712724      -0.05495095        4       0.00000000      -0.01914414      -0.04411200      -0.19211713
Pt       1.19526308       0.70812675       2.29818603        3       0.00000000      -0.05691983      -0.00157687       0.17467392
Ni       3.86207616       0.76452376       2.25679437        3       1.00000000       0.00164842       0.04509714       0.03098394
Pt       6.45161511       0.75490307       2.27808916        3       0.00000000       0.02609710       0.03499213       0.06297293
Ni       9.05760267       0.72371135       2.20813574        3       1.00000000      -0.07301255      -0.00127822       0.07791256
Pt       2.62060067       3.01059515       2.23216325        3       0.00000000       0.05067501      -0.01173220       0.01335631
Ni       5.15375817       3.05052120       2.24766169        3       1.00000000       0.01033758       0.09295687       0.00960576
Pt       7.83172478       3.06319446       2.23776272        3       0.00000000       0.03122434       0.06465487       0.05065042
Ni      10.33870229       2.97734506       2.19082225        3       1.00000000       0.07885579       0.02219535       0.13750486
Ni       3.91962559       5.26432242       2.22998529        3       1.00000000       0.03508768      -0.02155838       0.09480760
Ni       6.41262401       5.26380073       2.24689451        3       1.00000000      -0.04696332       0.00473452      -0.00379603
Ni       9.01447044       5.24129248       2.22180739        3       1.00000000      -0.04258486       0.02791940       0.04507842
Pt      11.64309889       5.20697432       2.18724307        3       0.00000000       0.02586955       0.00987961       0.00138216
Ni       5.13651135       7.43272844       2.22864071        3       1.00000000      -0.01273086      -0.08732562       0.04016017
Ni       7.67875031       7.42410578       2.23849435        3       1.00000000      -0.13862336      -0.10975108       0.06063883
Pt      10.25398549       7.42237744       2.16518966        3       0.00000000      -0.04487148      -0.01079842      -0.02254797
Ni      12.97908077       7.43971705       2.17174754        3       1.00000000       0.00746008      -0.05666207      -0.02201205
Ni      -0.00096402       1.50097624       4.42513266        2       1.00000000       0.03477731       0.01052346       0.06724845
Pt       2.58953753       1.51994445       4.43748985        2       0.00000000      -0.01044098       0.04262106      -0.03233825
Ni       5.13193265       1.52361610       4.38727354        2       1.00000000       0.03919329       0.04492005      -0.10726259
Pt       7.81641027       1.51129568       4.41356855        2       0.00000000       0.07927037      -0.00089227       0.02741983
Pt       1.26497176       3.73598322       4.50893701        2       0.00000000      -0.01847326      -0.01228090       0.00165454
Ni       3.87176909       3.78743816       4.44020619        2       1.00000000      -0.02982582       0.09505648      -0.07287897
Pt       6.38645473       3.83456932       4.36920913        2       0.00000000      -0.02086916       0.00803334      -0.06319339
Ni       9.02462460       3.74754137       4.40787434        2       1.00000000      -0.01253910      -0.00858076      -0.02020621
Ni       2.60977616       5.93386717       4.39780774        2       1.00000000       0.08665359      -0.07249924      -0.09795123
Ni       5.12960654       5.96865412       4.34613642        2       1.00000000      -0.03586712      -0.00866265      -0.10200244
Ni       7.70493038       5.96708673       4.34212019        2       1.00000000      -0.09919620       0.00691896      -0.19110016
Pt      10.25009287       5.91509121       4.45110735        2       0.00000000      -0.08776463      -0.01142215      -0.09529354
Pt       3.94098089       8.17134531       4.31010197        2       0.00000000       0.02786413      -0.00652124       0.02025361
Ni       6.42831387       8.18063430       4.36118814        2       1.00000000       0.00259007      -0.10932001      -0.00407414
Pt       8.94754754       8.19409352       4.31771830        2       0.00000000       0.01335394      -0.04394365      -0.09796725
Pt      11.66804716       8.15921523       4.37557529        2       0.00000000       0.07320355      -0.09319602      -0.16269478
Pt      -0.04562334       0.01489730       6.64615250        1       0.00000000      -0.00941823      -0.00172952       0.11493443
Pt       2.56650437       0.01341068       6.58045945        1       0.00000000      -0.01742928      -0.03298881       0.19360883
Pt       5.17681592      -0.05302726       6.52210730        1       0.00000000       0.05396246       0.01368980       0.02074560
Ni       7.74944759      -0.02569491       6.52327457        1       1.00000000       0.03648280       0.01995803      -0.10439289
Ni       1.29635791       2.29129176       6.62868723        1       1.00000000       0.08559555       0.02848310       0.06882924
Ni       3.83772641       2.30214285       6.49197526        1       1.00000000       0.04373469       0.09993178      -0.19401871
Pt       6.39469049       2.30077140       6.52079528        1       0.00000000      -0.00736667       0.05757313       0.10806154
Pt       9.09884766       2.33728841       6.62959239        1       0.00000000       0.09237472       0.13401760       0.22624575
Ni       2.55539611       4.45172577       6.60270369        1       1.00000000       0.01987160      -0.05616057      -0.01873125
Ni       5.09524791       4.46626304       6.56870066        1       1.00000000      -0.11583778       0.01095138      -0.06071201
Ni       7.77035006       4.50684069       6.47489351        1       1.00000000       0.09071362       0.07257879      -0.23604602
Ni      10.34253794       4.51011658       6.59083630        1       1.00000000       0.09375226       0.12167278       0.07856712
Pt       3.77417610       6.64524486       6.61470904        1       0.00000000      -0.04375033      -0.03008656       0.14204021
Pt       6.46584581       6.63459676       6.47575046        1       0.00000000      -0.04609943      -0.03393493      -0.05589625
Ni       9.04000204       6.67129938       6.57364275        1       1.00000000      -0.02753859      -0.02650304      -0.01875884
Ni      11.60152656       6.66814189       6.47164985        1       1.00000000       0.02764557      -0.10227083      -0.19859235
