64
Lattice="10.813453697140984 -3.359078424916274e-14 -3.305028391833853e-15 5.406726848570522 9.364725604370832 -1.6675128021879206e-15 0.0 0.0 21.949932707541468" Properties=species:S:1:pos:R:3:tags:I:1:initial_magmoms:R:1:forces:R:3 unique_id=59c419435f6645b4bd7131f5f3bba9bc stress="0.002199403082299836 2.3262659659055774e-17 -1.3317881284257128e-17 2.3262659659055774e-17 0.0021994030822996974 1.1823080675605536e-18 -1.3317881284257128e-17 1.1823080675605536e-18 -0.0023877106967994024" energy=-408.0806180868709 pbc="T T T"
Pt       0.00000000      -0.00000000       0.00156475        0       0.00000000       0.00000000      -0.00000000      -0.28419725
Pt       2.70333933       0.00011302       0.00191288        0       0.00000000       0.00934544      -0.01021858      -0.27054918
Pt       5.40672685       0.00064927       0.00000000        0       0.00000000      -0.00000000      -0.03174417      -0.24724138
Pt       8.11011437       0.00011302       0.00191288        0       0.00000000      -0.00934544      -0.01021858      -0.27054918
Pt       1.35176754       2.34110402       0.00191288        0       0.00000000      -0.00417683       0.01320268      -0.27054918
Pt       4.05478417       2.34103073       0.00287847        0       0.00000000      -0.00309750      -0.00178834      -0.25852762
Pt       6.75866953       2.34103073       0.00287847        0       0.00000000       0.00309750      -0.00178834      -0.25852762
Pt       9.46168616       2.34110402       0.00191288        0       0.00000000       0.00417683       0.01320268      -0.27054918
Pt       2.70392570       4.68203817       0.00000000        0       0.00000000      -0.02749126       0.01587209      -0.24724138
Pt       5.40672685       4.68266415       0.00287847        0       0.00000000      -0.00000000       0.00357668      -0.25852762
Pt       8.10952799       4.68203817       0.00000000        0       0.00000000       0.02749126       0.01587209      -0.24724138
Pt      10.81345370       4.68412108       0.00044852        0       0.00000000      -0.00000000       0.03202203      -0.17654506
Pt       4.05515506       7.02350856       0.00191288        0       0.00000000      -0.01352227      -0.00298410      -0.27054918
Pt       6.75829864       7.02350856       0.00191288        0       0.00000000       0.01352227      -0.00298410      -0.27054918
Pt       9.46329470       7.02266506       0.00044852        0       0.00000000       0.02773189      -0.01601101      -0.17654506
Pt      12.16361269       7.02266506       0.00044852        0       0.00000000      -0.02773189      -0.01601101      -0.17654506
Pt       1.35192477       0.78053413       2.30955337        1       0.00000000       0.00207277       0.00119671       0.56354180
Pt       4.05650609       0.77739524       2.31246461        1       0.00000000       0.01295668      -0.02361875       0.57595791
Pt       6.75694761       0.77739524       2.31246461        1       0.00000000      -0.01295668      -0.02361875       0.57595791
Pt       9.46152893       0.78053413       2.30955337        1       0.00000000      -0.00207277       0.00119671       0.56354180
Pt       2.70149707       3.12433971       2.31246461        1       0.00000000      -0.01397609       0.02303019       0.57595791
Pt       5.40672685       3.12157520       2.31110532        1       0.00000000       0.00000000      -0.00000000       0.55963805
Pt       8.11195663       3.12433971       2.31246461        1       0.00000000       0.01397609       0.02303019       0.57595791
Pt      10.81345370       3.12446834       2.31205134        1       0.00000000      -0.00000000       0.01047482       0.54836506
Pt       4.05171783       5.46299066       2.31246461        1       0.00000000      -0.02693277       0.00058856       0.57595791
Pt       6.76173587       5.46299066       2.31246461        1       0.00000000       0.02693277       0.00058856       0.57595791
Pt       9.47179123       5.46854121       2.33493683        1       0.00000000       0.02386268       0.01377712       0.60256869
Pt      12.15511617       5.46854121       2.33493683        1       0.00000000      -0.02386268       0.01377712       0.60256869
Pt       5.40672685       7.80365734       2.30955337        1       0.00000000      -0.00000000      -0.00239343       0.56354180
Pt       8.11259581       7.80249143       2.31205134        1       0.00000000       0.00907146      -0.00523741       0.54836506
Pt      10.81345370       7.79236878       2.33493683        1       0.00000000       0.00000000      -0.02755425       0.60256869
Pt      13.51431159       7.80249143       2.31205134        1       0.00000000      -0.00907146      -0.00523741       0.54836506
Pt       0.00000000       1.56686526       4.64309230        2       0.00000000       0.00000000       0.05765725      -0.55431605
Pt       2.70325660       1.56072592       4.64288818        2       0.00000000       0.00214197       0.00123667      -0.57954957
Pt       5.40672685       1.55461050       4.64209736        2       0.00000000      -0.00000000      -0.05527620      -0.57120531
Pt       8.11019710       1.56072592       4.64288818        2       0.00000000      -0.00214197       0.00123667      -0.57954957
Pt       1.33463399       3.93188626       4.64183085        2       0.00000000      -0.03274894       0.06314349      -0.53681593
Pt       4.04969561       3.90505755       4.64209736        2       0.00000000      -0.04787059       0.02763810      -0.57120531
Pt       6.76375809       3.90505755       4.64209736        2       0.00000000       0.04787059       0.02763810      -0.57120531
Pt       9.47881971       3.93188626       4.64183085        2       0.00000000       0.03274894       0.06314349      -0.53681593
Pt       2.66893045       6.24295554       4.64183085        2       0.00000000      -0.07105834      -0.00321033      -0.53681593
Pt       5.40672685       6.24327376       4.64288818        2       0.00000000      -0.00000000      -0.00247334      -0.57954957
Pt       8.14452324       6.24295554       4.64183085        2       0.00000000       0.07105834      -0.00321033      -0.53681593
Ni      10.81345370       6.24315040       4.65872182        3       1.00000000      -0.00000000       0.00000000      -0.53893288
Pt       4.04978173       8.58129298       4.64309230        2       0.00000000      -0.04993264      -0.02882862      -0.55431605
Pt       6.76367197       8.58129298       4.64309230        2       0.00000000       0.04993264      -0.02882862      -0.55431605
Pt       9.47915723       8.55460941       4.64183085        2       0.00000000       0.03830940      -0.05993316      -0.53681593
Pt      12.14775016       8.55460941       4.64183085        2       0.00000000      -0.03830940      -0.05993316      -0.53681593
Pt       0.00000000      -0.00000000       6.94852185        4       0.00000000       0.00000000      -0.00000000       0.26700013
Pt       2.70516792      -0.00167582       6.94609443        4       0.00000000       0.02265437      -0.00477979       0.21934673
Pt       5.40672685      -0.00180260       6.94565504        4       0.00000000      -0.00000000       0.02384947       0.24776468
Pt       8.10828577      -0.00167582       6.94609443        4       0.00000000      -0.02265437      -0.00477979       0.21934673
Pt       1.35113266       2.34358205       6.94609443        4       0.00000000       0.00718776       0.02200916       0.21934673
Pt       4.05524751       2.34129824       6.94993271        4       0.00000000       0.01223519       0.00706399       0.28346512
Pt       6.75820619       2.34129824       6.94993271        4       0.00000000      -0.01223519       0.00706399       0.28346512
Pt       9.46232104       2.34358205       6.94609443        4       0.00000000      -0.00718776       0.02200916       0.21934673
Pt       2.70180233       4.68326410       6.94565504        4       0.00000000       0.02065425      -0.01192474       0.24776468
Pt       5.40672685       4.68212913       6.94993271        4       0.00000000      -0.00000000      -0.01412798       0.28346512
Pt       8.11165137       4.68326410       6.94565504        4       0.00000000      -0.02065425      -0.01192474       0.24776468
Pt      10.81345370       4.69262596       6.92884270        4       0.00000000      -0.00000000       0.15624310       0.16463123
Pt       4.05269158       7.02281937       6.94609443        4       0.00000000      -0.01546661      -0.01722936       0.21934673
Pt       6.76076211       7.02281937       6.94609443        4       0.00000000       0.01546661      -0.01722936       0.21934673
Pt       9.47066014       7.01841263       6.92884270        4       0.00000000       0.13531050      -0.07812155       0.16463123
Pt      12.15624726       7.01841263       6.92884270        4       0.00000000      -0.13531050      -0.07812155       0.16463123
