64
Lattice="10.131757030162582 -0.011770314470871575 0.0017904697035961376 5.055685123739042 8.74405478024656 -0.009080003370519773 0.0 0.0 21.48798598568196" Properties=species:S:1:pos:R:3:tags:I:1:initial_magmoms:R:1:forces:R:3 unique_id=90a3fd388f4a4a9ba3b4ac159c1bc716 energy=-368.10785541125153 stress="0.0030408139950497317 -4.852091228647747e-05 -3.414992660027122e-05 -4.852091228647747e-05 0.0027424132854705994 5.247624546763426e-06 -3.414992660027122e-05 5.247624546763426e-06 -0.004414407884979371" pbc="T T T"
Ni       0.03699531       0.00666921       0.18208991        2       1.00000000       0.09943548       0.13634668      -0.72502402
Ni       2.51959090      -0.03508122       0.21748197        2       1.00000000       0.02503325       0.00579557      -0.18439891
Ni       5.07523420      -0.02253300       0.10030147        1       1.00000000      -0.09578969       0.03170105       0.08269945
Ni       7.56500647      -0.01581774       0.18732660        2       1.00000000      -0.05311871       0.07806610      -0.67823038
Ni       1.26713108       2.20630993       0.13578942        1       1.00000000       0.01568746      -0.02199176       0.18162150
Pt       3.78642024       2.18719352       0.20224125        2       0.00000000      -0.02689550      -0.00990202      -0.76110822
Ni       6.32274635       2.19322062       0.12766216        1       1.00000000      -0.00130952       0.01849476       0.09943947
Pt       8.86657360       2.24149106       0.00000000        0       0.00000000       0.00985218       0.02885087      -0.14546257
Ni       2.49942850       4.40048024       0.11502117        1       1.00000000       0.07199070      -0.00806380       0.20812783
Ni       5.05773379       4.38816173       0.07772788        1       1.00000000      -0.10374047      -0.05947193       0.06827123
Ni       7.59664392       4.39714126       0.06952528        1       1.00000000       0.13734604       0.00687536      -0.05107588
Ni      10.15534672       4.40667822       0.11421165        1       1.00000000      -0.08724664       0.04425771       0.14711437
Ni       3.79559215       6.51612683       0.04962603        0       1.00000000      -0.00405904      -0.01859689       0.01907842
Ni       6.34534150       6.55303616       0.04237035        0       1.00000000       0.05126406       0.05923015       0.06357977
Ni       8.82577437       6.52741157       0.16740383        2       1.00000000      -0.09580045      -0.05025007      -0.31219220
Ni      11.37124078       6.51889455       0.04381767        0       1.00000000      -0.04308675      -0.00623051       0.12581425
Ni       1.32557094       0.77959724       2.20648743        4       1.00000000      -0.00763137       0.11122834       0.14122032
Ni       3.75107217       0.71777198       2.21401069        4       1.00000000      -0.03808414      -0.04523392       0.14923236
Ni       6.30296778       0.76130300       2.14963957        3       1.00000000      -0.07522080       0.03071434       0.02908331
Pt       8.87387475       0.81380665       2.21888475        4       0.00000000       0.02288814      -0.02637741       0.13379963
Ni       2.51125892       2.92291766       2.22034881        4       1.00000000      -0.00942715      -0.01881189       0.09390589
Ni       5.05836395       2.90535775       2.20579740        4       1.00000000       0.03536064       0.00826798       0.06807276
Ni       7.59887205       2.91432234       2.19786684        4       1.00000000       0.03118006       0.00875673       0.06663581
Ni      10.15999728       2.95121576       2.18461841        4       1.00000000       0.01294862      -0.00553745       0.02862995
Ni       3.77201027       5.01856277       2.18013893        4       1.00000000       0.01612881      -0.07985146       0.02181467
Pt       6.37502794       5.05794905       2.13954646        3       0.00000000       0.05891394      -0.04180746      -0.01018381
Ni       8.89009585       5.04113169       2.19339128        4       1.00000000       0.03486327      -0.07863257       0.05659581
Ni      11.37741299       5.03115059       2.15684316        4       1.00000000      -0.02570001      -0.05581220       0.05171729
Pt       5.12465105       7.27938632       2.15678651        4       0.00000000      -0.05431288       0.04988571       0.07133099
Ni       7.59880674       7.30447266       2.20119799        4       1.00000000      -0.00862738       0.01208968       0.18686472
Pt      10.05492171       7.26806716       2.19440077        4       0.00000000       0.02758137       0.02474628       0.05085542
Pt      12.62296064       7.18880679       2.14859918        3       0.00000000       0.04695058      -0.02386014       0.04440049
Ni       0.02397412       1.47413084       4.32011189        5       1.00000000       0.05818067      -0.05283049      -0.08655774
Ni       2.49791890       1.43118198       4.25693360        5       1.00000000      -0.01859942      -0.07640604      -0.12063174
Pt       5.06198739       1.38126926       4.25100345        5       0.00000000       0.05592399      -0.16353795       0.00791500
Ni       7.61623859       1.46989162       4.32527005        5       1.00000000       0.02587483      -0.04351525      -0.11117416
Pt       1.26182555       3.64780018       4.30709855        5       0.00000000       0.01580240      -0.05179108       0.04070455
Ni       3.78759044       3.69652158       4.26350823        5       1.00000000       0.02030834      -0.00399424      -0.13798106
Pt       6.35969354       3.65875462       4.36591709        6       0.00000000      -0.00176923      -0.01081342       0.04133317
Ni       8.87603644       3.65583746       4.29989664        5       1.00000000       0.01961185       0.04288338      -0.14280001
Ni       2.52331418       5.79651226       4.33899314        5       1.00000000      -0.01336926      -0.01694215      -0.06536214
Ni       5.05650756       5.80723444       4.35063867        6       1.00000000       0.06720356       0.04353608      -0.07923691
Ni       7.61567811       5.84679791       4.29682706        5       1.00000000       0.04959279       0.01901694      -0.08229017
Ni      10.12293187       5.80512301       4.29740270        5       1.00000000      -0.04996660      -0.03568836      -0.06212593
Pt       3.78298615       7.97375085       4.33886625        5       0.00000000       0.00283833       0.02174630      -0.01522541
Ni       6.37443545       7.99593253       4.28302166        5       1.00000000       0.03505284       0.00631462      -0.03517792
Ni       8.82927358       7.96805872       4.28941350        5       1.00000000      -0.07769429      -0.00175083      -0.07604039
Ni      11.35189995       7.94045044       4.32708214        5       1.00000000      -0.05127104      -0.09543317      -0.02775184
Pt      -0.00030285       0.00867452       6.48549432        9       0.00000000      -0.07090134       0.11036821       0.46221722
Pt       2.55849746      -0.01486073       6.43464242        8       0.00000000       0.00325534       0.04106343       0.12718592
Ni       5.06491974      -0.03053822       6.41434488        8       1.00000000      -0.07221936       0.00038607       0.02924644
Pt       7.50557302      -0.00778744       6.48798599        9       0.00000000       0.12064146       0.08827665       0.33473712
Ni       1.23638868       2.23023615       6.42370195        8       1.00000000       0.07151757      -0.06033629      -0.01920356
Pt       3.80378489       2.28719678       6.36043302        8       0.00000000      -0.14966952       0.10616525       0.79407029
Ni       6.35493226       2.21384082       6.44739469        8       1.00000000      -0.02255762       0.03911251       0.04226533
Ni       8.86203373       2.23666484       6.27019688        7       1.00000000      -0.02710304      -0.04541996       0.43498802
Ni       2.51528792       4.43032023       6.42478201        8       1.00000000       0.04857340      -0.06296098      -0.16938437
Ni       5.07015855       4.43211090       6.42523862        8       1.00000000      -0.07356394      -0.05125287      -0.03472011
Ni       7.60046960       4.33674833       6.43060237        8       1.00000000       0.12338810      -0.00141019      -0.00333184
Ni      10.14462606       4.32084892       6.42530336        8       1.00000000      -0.05809212       0.01778697      -0.18541245
Ni       3.79064742       6.47707615       6.41188126        8       1.00000000      -0.02062706       0.08055989       0.01195261
Ni       6.30667908       6.48567904       6.38134211        8       1.00000000       0.08572794       0.10269523      -0.09534827
Pt       8.90132103       6.45638376       6.42951138        8       0.00000000      -0.06221957      -0.02376212      -0.01111923
Ni      11.41446476       6.48828834       6.38496446        8       1.00000000      -0.00124406      -0.02694196      -0.08797016
