64
Lattice="10.283961573423229 -0.009896558415243825 0.003704218818733455 5.133410115713976 8.89846639815125 -0.028786486538611177 0.003024482000503999 -0.02888634528113343 8.831455099294693" Properties=species:S:1:pos:R:3:tags:I:1:initial_magmoms:R:1:forces:R:3 unique_id=ab141c7937bd40b187df54800ce8c160 stress="-0.00038080583369486803 -8.447991380108996e-07 1.2912295273049854e-05 -8.447991380108996e-07 -0.0003725302515953585 2.1839965460904005e-05 1.2912295273049854e-05 2.1839965460904005e-05 -0.0003153445233162744" energy=-398.0636880003532 pbc="T T T"
Ni       0.04812160       0.04009429       0.15221710        4       1.00000000       0.20960665       0.13004254       0.19897437
Ni       2.58957211       0.03067724       0.20279502        4       1.00000000       0.06252001       0.06246064       0.28924695
Ni       5.09241367      -0.01528246       0.07914883        4       1.00000000      -0.11263138       0.01352412       0.08575858
Pt       7.72778799      -0.04738588      -0.00036853        4       0.00000000      -0.01351672      -0.03202036      -0.16468444
Ni       1.28939467       2.23317656       0.10242958        4       1.00000000       0.03127760       0.05211671       0.14748174
Ni       3.81263348       2.22054052       0.19502793        4       1.00000000      -0.07579458      -0.03513044       0.23587939
Pt       6.40040158       2.29841974       0.15473969        4       0.00000000      -0.02899803       0.07635557       0.40902687
Ni       9.04696875       2.26922305       0.06747690        4       1.00000000       0.10807016       0.11179265       0.03922141
Ni       2.57372337       4.41775695       0.06515767        4       1.00000000      -0.00136160      -0.17377866       0.03801899
Ni       5.08482457       4.44356501       0.16035602        4       1.00000000      -0.19127641      -0.01400501       0.25657351
Ni       7.77633606       4.43556934       0.06322632        4       1.00000000       0.27086670      -0.01910816       0.04844569
Ni      10.26867936       4.41087500       0.05647726        4       1.00000000      -0.01576040      -0.10406809       0.01554059
Ni       3.84232011       6.61634208       0.03733480        4       1.00000000      -0.03677476      -0.19362588       0.05238546
Pt       6.46858932       6.66808335      -0.02288659        4       0.00000000       0.07628213      -0.01914804      -0.28853639
Ni       9.00447456       6.65019067       0.12191307        4       1.00000000       0.04184448      -0.09189815       0.15682347
Ni      11.54147784       6.62349443       0.10064655        4       1.00000000      -0.11254696      -0.12627057       0.08285170
Ni       1.33921582       0.77872383       2.16763287        3       1.00000000       0.01914482       0.09578487      -0.03063214
Ni       3.80824283       0.74889172       2.18893580        3       1.00000000      -0.00913039      -0.01178507       0.02306341
Pt       6.33810403       0.76555062       2.28149126        3       0.00000000      -0.05591157       0.10957186      -0.06291238
Pt       9.07503540       0.83388008       2.18841104        3       0.00000000       0.00062504      -0.03866929      -0.09990103
Ni       2.57249546       2.92799656       2.15400815        3       1.00000000      -0.09124407      -0.00808868      -0.04724341
Ni       5.06802199       2.96960100       2.20663847        3       1.00000000      -0.09296330      -0.01698212       0.06486344
Ni       7.77078648       2.99626106       2.20431838        3       1.00000000       0.14775262       0.04067283       0.00891198
Ni      10.28807537       2.96243802       2.18450966        3       1.00000000       0.03193782      -0.03255078       0.00626064
Ni       3.85071473       5.13470449       2.16960563        3       1.00000000      -0.05400555      -0.01297464      -0.05367408
Pt       6.47363002       5.13972067       2.18547035        3       0.00000000       0.07017338       0.01640298      -0.10328092
Ni       8.99002275       5.13613974       2.20515207        3       1.00000000       0.05181406      -0.11132764       0.04978859
Pt      11.54033331       5.07835272       2.15641372        3       0.00000000       0.00209450      -0.04523315      -0.01683510
Pt       5.16804641       7.39764277       2.16264263        3       0.00000000       0.02552502      -0.07387966      -0.21443681
Ni       7.71767337       7.42735150       2.18888283        3       1.00000000      -0.04175994       0.00328193      -0.02722614
Pt      10.16799977       7.38603592       2.21617880        3       0.00000000      -0.10054828      -0.07063980       0.03124024
Pt      12.83357853       7.34339942       2.20392766        3       0.00000000      -0.07034641      -0.00892112      -0.08672284
Ni       0.00554151       1.49407676       4.40210633        2       1.00000000       0.11097445      -0.06323980      -0.03744328
Pt       2.58203987       1.44597781       4.29034133        2       0.00000000       0.04915469      -0.02673609       0.06616038
Ni       5.12694235       1.42150263       4.39784689        2       1.00000000      -0.03301582       0.02676824       0.10321395
Pt       7.77582440       1.47776353       4.39351309        2       0.00000000       0.03517377       0.11797613       0.12439382
Pt       1.19697738       3.71807034       4.43232815        2       0.00000000      -0.03125199      -0.01150698       0.01208192
Pt       3.84824679       3.74878369       4.30089311        2       0.00000000       0.01724607       0.02881316       0.03335781
Pt       6.48211998       3.73676874       4.35805388        2       0.00000000      -0.06405812       0.00102799       0.04919793
Ni       9.00585337       3.72615119       4.39099449        2       1.00000000       0.02256841       0.12568686      -0.09606307
Ni       2.54450999       5.91188470       4.38411791        2       1.00000000      -0.15435104      -0.06231889      -0.10818172
Ni       5.13479097       5.91971303       4.37880490        2       1.00000000       0.02105088      -0.07967547      -0.14957714
Ni       7.76659100       5.90272022       4.36032012        2       1.00000000       0.21583432      -0.01323205      -0.20905637
Ni      10.25169705       5.92095298       4.36333850        2       1.00000000      -0.03225037      -0.00839966      -0.10144993
Pt       3.81540189       8.06692520       4.41165286        2       0.00000000       0.06482679      -0.03122891       0.01479569
Pt       6.47494516       8.07326406       4.33612286        2       0.00000000       0.09491993       0.05595805       0.00256636
Ni       9.03531162       8.11658822       4.36601209        2       1.00000000      -0.00445251      -0.00903496       0.05822138
Ni      11.50359146       8.12228257       4.39429848        2       1.00000000      -0.09918163      -0.03212375      -0.03432632
Pt      -0.04992939       0.02688003       6.61310594        1       0.00000000      -0.11485712       0.10612696       0.10461250
Pt       2.58501250      -0.03904529       6.62480409        1       0.00000000       0.03426052       0.05064735       0.22384421
Ni       5.16619765      -0.04461028       6.52673413        1       1.00000000      -0.01385123      -0.03450519      -0.16379006
Ni       7.69157903      -0.03816625       6.46153141        1       1.00000000      -0.11443450       0.00891109      -0.31018973
Ni       1.24115347       2.24804516       6.55851425        1       1.00000000      -0.04400595       0.05613780      -0.00647811
Pt       3.82064569       2.23682100       6.60488652        1       0.00000000      -0.13776152       0.10016398       0.18313819
Pt       6.46691064       2.17615174       6.52572941        1       0.00000000       0.07923831      -0.02473967      -0.22084996
Ni       9.03391197       2.24964323       6.54724743        1       1.00000000       0.06359492       0.20373111      -0.12142518
Ni       2.53648488       4.44430206       6.55074294        1       1.00000000      -0.05638560       0.04642171      -0.06619396
Pt       5.13466027       4.53767836       6.59909807        1       0.00000000       0.00493182       0.14016534       0.17807315
Ni       7.75240447       4.41591689       6.53713921        1       1.00000000       0.06640107      -0.07770319      -0.09926997
Ni      10.26453704       4.38249591       6.54774171        1       1.00000000      -0.05088973      -0.03528329      -0.02572006
Ni       3.84077614       6.65230711       6.52686770        1       1.00000000      -0.01180680       0.05943957      -0.09946657
Ni       6.41811656       6.64291720       6.42492756        1       1.00000000       0.03094208       0.02011893      -0.46135899
Pt       8.98978511       6.57225285       6.51205244        1       0.00000000       0.00359529      -0.07557140       0.07081794
Pt      11.61082243       6.63722402       6.51602323        1       0.00000000       0.00287597      -0.03469639       0.04209384
