64
Lattice="10.604384649564892 0.003256693664106405 0.014981534385176014 5.305012704227902 9.213885854668082 -0.018532164514794003 0.012232371602547283 -0.02453465530219226 9.178276439222214" Properties=species:S:1:pos:R:3:tags:I:1:initial_magmoms:R:1:forces:R:3 unique_id=ef8e1dc87caa40e2aa09d2b1f11651b0 stress="-4.0537912638451135e-05 -2.5983081431772863e-07 1.1707661078186504e-06 -2.5983081431772863e-07 -4.090090224203452e-05 -5.0649865390718845e-06 1.1707661078186504e-06 -5.0649865390718845e-06 -3.944774370087667e-06" energy=-418.7408500228175 pbc="T T T"
Pt       0.03828966       0.00373745       0.01268355        4       0.00000000       0.01325124      -0.00181945      -0.13351119
Ni       2.66933891       0.01261444       0.12074888        4       1.00000000       0.06599583       0.02754112       0.40646872
Pt       5.23736682       0.01298715       0.05799916        4       0.00000000      -0.14272307       0.11028984       0.00484700
Pt       7.92477790      -0.02074922       0.10291670        4       0.00000000      -0.07543189      -0.00830517       0.07277225
Pt       1.37645874       2.27837385       0.02179820        4       0.00000000       0.11910356      -0.04594719      -0.18360908
Ni       3.96778414       2.28194666       0.12600062        4       1.00000000      -0.03383968      -0.05618277       0.41865943
Pt       6.60459009       2.29275399       0.09853053        4       0.00000000       0.04844091      -0.00710240       0.10210754
Pt       9.30155267       2.31374523       0.04553490        4       0.00000000       0.05092503       0.00537230      -0.06029866
Pt       2.63360507       4.60845945       0.11604120        4       0.00000000       0.01343081       0.02626127       0.07845645
Pt       5.29483904       4.58593676       0.11825815        4       0.00000000      -0.01248494      -0.04566033       0.12330234
Pt       7.96956965       4.62114570       0.14152083        4       0.00000000       0.05086500      -0.04032529       0.14106797
Pt      10.62703493       4.63581652       0.09700445        4       0.00000000       0.02322734      -0.02766639       0.09611409
Pt       3.95157338       6.90550210       0.08052075        4       0.00000000      -0.02061757       0.01440369       0.06489583
Pt       6.65539713       6.92806396       0.10818077        4       0.00000000       0.04320703       0.02107683       0.13095005
Pt       9.31188877       6.92871114       0.02426383        4       0.00000000       0.07005206       0.01623980      -0.14507103
Ni      11.91918852       6.90885727       0.10873705        4       1.00000000      -0.05720411       0.01129103       0.29365478
Pt       1.35192212       0.78513902       2.31639010        3       0.00000000      -0.01325585       0.00356121       0.02646266
Ni       3.97420146       0.76138519       2.28813455        3       1.00000000      -0.00178123      -0.02888212       0.04977409
Pt       6.60908871       0.75579520       2.38495941        3       0.00000000       0.09271242      -0.05303821       0.09167492
Pt       9.30302957       0.83226227       2.39514621        3       0.00000000       0.06150985       0.26268648       0.09635702
Pt       2.62082575       3.05949371       2.30242769        3       0.00000000      -0.09935447       0.03000774       0.06025404
Pt       5.31297864       3.05774698       2.33268566        3       0.00000000       0.11355543      -0.02952410       0.08102742
Pt       8.00685330       3.14175568       2.43791003        3       0.00000000       0.07633161       0.14793439       0.30336606
Ni      10.60481059       3.10307771       2.33970610        3       1.00000000      -0.01107180       0.15796989       0.10228361
Pt       3.97021017       5.35828525       2.32947370        3       0.00000000      -0.05352137      -0.02096411       0.01602423
Ni       6.65672285       5.35750939       2.31289170        3       1.00000000       0.07454124      -0.04756987       0.05902267
Ni       9.30150981       5.35357206       2.32361976        3       1.00000000       0.14710776      -0.06578138       0.08952821
Ni      11.89583021       5.35429901       2.30353171        3       1.00000000      -0.17339935      -0.12789472       0.09585083
Pt       5.31854498       7.66683655       2.32587796        3       0.00000000      -0.04599263       0.09617752      -0.01041562
Pt       7.99733135       7.65260470       2.30854879        3       0.00000000       0.05151550      -0.01060130       0.07822982
Pt      10.60357618       7.62932906       2.32017745        3       0.00000000      -0.01578762      -0.07591673       0.08168974
Pt      13.20920246       7.64750547       2.32266627        3       0.00000000      -0.02300328       0.02629217       0.03848549
Ni      -0.03133242       1.55557027       4.60830972        2       1.00000000      -0.18860845       0.11225633       0.08227939
Pt       2.62748737       1.53267036       4.57142090        2       0.00000000       0.04504632      -0.02280427       0.01082840
Pt       5.37127363       1.49790119       4.57360208        2       0.00000000       0.00802091      -0.04814264       0.06535345
Ni       7.99058920       1.56066910       4.59364575        2       1.00000000       0.13816543       0.22744356      -0.01028333
Pt       1.21171106       3.77673936       4.56046017        2       0.00000000      -0.21964731      -0.13755668      -0.09281382
Pt       4.00173946       3.80155262       4.55505150        2       0.00000000      -0.07490285      -0.04119265       0.12079439
Ni       6.67673002       3.81123977       4.56117894        2       1.00000000       0.13625141      -0.08700652      -0.04797125
Ni       9.28161903       3.78749947       4.57465209        2       1.00000000      -0.03801179      -0.22254252      -0.03327623
Pt       2.61133989       6.15289905       4.52892004        2       0.00000000      -0.12404391      -0.04438817       0.02859613
Pt       5.34834954       6.10101074       4.51453102        2       0.00000000       0.06069090      -0.07069171      -0.02372500
Pt       7.98656312       6.05478265       4.50500641        2       0.00000000      -0.01549291      -0.19743461      -0.24835283
Pt      10.58925212       6.09507559       4.55824686        2       0.00000000      -0.06789397      -0.14664725      -0.08952008
Pt       3.96313159       8.52547367       4.55620665        2       0.00000000      -0.06726072       0.09720420      -0.03475126
Pt       6.61325129       8.47743099       4.57198906        2       0.00000000       0.03317153       0.04767752       0.03555604
Pt       9.33195762       8.42998533       4.59506890        2       0.00000000      -0.00570659      -0.03442969       0.04738541
Ni      11.93803176       8.44533965       4.58234250        2       1.00000000       0.00819861      -0.01805874       0.01156928
Ni       0.01256449       0.02236593       6.75719174        1       1.00000000       0.00297999       0.21878162      -0.37349742
Pt       2.65847740      -0.00845938       6.86381579        1       0.00000000      -0.03231153       0.03419423       0.17142639
Ni       5.30832345      -0.02449676       6.78117283        1       1.00000000       0.00837429       0.02131753      -0.25439375
Pt       7.96056957       0.02951083       6.74386057        1       0.00000000      -0.02237462       0.06173905      -0.09947422
Ni       1.29246463       2.27745043       6.75885889        1       1.00000000      -0.25160060      -0.06851679      -0.37115194
Pt       3.97063897       2.24803224       6.85710917        1       0.00000000       0.02768892      -0.00302819       0.15861094
Pt       6.68136643       2.27559793       6.73369321        1       0.00000000       0.12541557       0.13119505      -0.10178850
Ni       9.32050010       2.28586995       6.73918938        1       1.00000000       0.22373181      -0.03414931      -0.44660872
Pt       2.58757219       4.56195968       6.76784520        1       0.00000000      -0.19907012      -0.02883578      -0.11568908
Pt       5.33635852       4.57984689       6.75975172        1       0.00000000       0.07035507       0.02617962      -0.12912097
Pt       8.06241447       4.56948838       6.73170115        1       0.00000000       0.27798365      -0.00494924      -0.04914262
Ni      10.60299426       4.57803745       6.77240293        1       1.00000000      -0.03489451      -0.07788043      -0.21034214
Pt       3.98604899       6.93017398       6.75507873        1       0.00000000      -0.03591359       0.04393118      -0.21694438
Pt       6.67429104       6.91935787       6.76849043        1       0.00000000       0.11753250      -0.06792367      -0.14553157
Ni       9.30009306       6.89458605       6.76635981        1       1.00000000      -0.04351864      -0.01420606      -0.34922374
Pt      11.85289880       6.91847191       6.82724996        1       0.00000000      -0.19865854       0.08454126       0.04078136
