64
Lattice="10.283067746881729 -0.028980465493645347 0.0460092985701197 5.116436054109872 8.86445358956975 0.02245100759890845 0.03756643497338576 -0.000521978387500256 8.80824058966698" Properties=species:S:1:pos:R:3:tags:I:1:initial_magmoms:R:1:forces:R:3 unique_id=ee9eb782e07e4f1180517bcf921d7a3c stress="0.00025225811558711453 7.209544369067698e-06 -3.2682895157141035e-05 7.209544369067698e-06 0.00024702149676317925 -1.5799441954205385e-05 -3.2682895157141035e-05 -1.5799441954205385e-05 0.00024273265622885842" energy=-397.0868010746398 pbc="T T T"
Ni       0.02132581      -0.00908571       0.16943370        4       1.00000000       0.07181775       0.02175872       0.25945017
Ni       2.54150141       0.00402869       0.21680038        4       1.00000000      -0.03986276       0.06317431       0.40651280
Pt       5.13732639      -0.05421725       0.16644493        4       0.00000000      -0.01202175      -0.07467003       0.27099057
Ni       7.73843973      -0.07996346       0.22216836        4       1.00000000       0.03531845      -0.08538508       0.34879438
Ni       1.28931243       2.22440003       0.11376667        4       1.00000000       0.04066935       0.06643493       0.25558904
Pt       3.77387773       2.26601956       0.20720494        4       0.00000000      -0.00866324       0.10715786       0.16907163
Pt       6.42275029       2.21534417       0.14424298        4       0.00000000       0.06088719       0.10691193       0.03266442
Pt       9.08824758       2.20091100       0.17446781        4       0.00000000       0.13241901      -0.00319111       0.21871756
Ni       2.55462962       4.46605921       0.08209969        4       1.00000000       0.06111478       0.11607615       0.04073972
Ni       5.09111730       4.45891215       0.12796770        4       1.00000000      -0.06711992       0.11751433       0.25054204
Pt       7.74090488       4.47381231       0.14264400        4       0.00000000       0.06819526       0.10431292      -0.05464698
Ni      10.32775023       4.43448053       0.12530885        4       1.00000000       0.17645303       0.09333147       0.10819479
Ni       3.80315093       6.63581191       0.12310801        4       1.00000000      -0.07156696      -0.04240497       0.21234588
Pt       6.36424293       6.68855687       0.21129403        4       0.00000000      -0.06256732       0.03323985       0.02609302
Ni       8.99589426       6.62167409       0.19847808        4       1.00000000      -0.02724708       0.01260060       0.21582180
Ni      11.59047248       6.59183870       0.12709372        4       1.00000000       0.12336698      -0.04320413       0.07038600
Ni       1.31184120       0.73454924       2.20501183        3       1.00000000       0.01979957      -0.00746028       0.01865314
Ni       3.83961040       0.74988305       2.24926386        3       1.00000000       0.05150390       0.00767580       0.01029913
Ni       6.42327723       0.74906995       2.26560237        3       1.00000000      -0.10564447       0.00439039       0.05208551
Pt       9.05246025       0.67516579       2.25990529        3       0.00000000       0.10114610       0.08494473      -0.07706894
Ni       2.55920141       2.96125307       2.25454574        3       1.00000000       0.02266666       0.08122308       0.00024373
Ni       5.12521727       2.97424351       2.28022761        3       1.00000000      -0.12014613       0.06790654       0.06169992
Ni       7.71329081       2.97965138       2.27683161        3       1.00000000       0.07869623       0.10678160      -0.01809064
Ni      10.30794626       2.93391433       2.30735653        3       1.00000000       0.02768425      -0.06932564       0.18373533
Ni       3.88314571       5.16296627       2.23494462        3       1.00000000       0.09970318      -0.03728479       0.03324097
Ni       6.40237543       5.16805303       2.27985748        3       1.00000000      -0.05233225       0.09881826      -0.03910086
Ni       8.96821158       5.12308191       2.29885800        3       1.00000000      -0.05234350      -0.16911920       0.17522136
Pt      11.60773976       5.08212105       2.27573496        3       0.00000000       0.12710692      -0.09782146       0.07106008
Ni       5.13949479       7.34823690       2.26222599        3       1.00000000       0.06925962      -0.20492438       0.05861174
Ni       7.65927084       7.37353488       2.26500328        3       1.00000000      -0.16050890      -0.08908872       0.04050603
Pt      10.24940599       7.29914728       2.25611057        3       0.00000000      -0.03614988      -0.08105762      -0.14840480
Ni      12.87690503       7.32094788       2.22719674        3       1.00000000       0.09919394      -0.24212632      -0.02253949
Ni       0.03921025       1.52262830       4.35007804        2       1.00000000      -0.06021309       0.09327673      -0.09379954
Pt       2.52612936       1.54793608       4.28876596        2       0.00000000      -0.00029374       0.05624932       0.11220733
Ni       5.14077986       1.49931871       4.35169623        2       1.00000000      -0.13812812       0.05808875      -0.21482547
Pt       7.71690590       1.50767845       4.35866605        2       0.00000000       0.00149702       0.02328303       0.10147392
Ni       1.27435739       3.72634400       4.40946779        2       1.00000000      -0.03922809       0.02543346       0.01106279
Ni       3.84371703       3.75727590       4.35613915        2       1.00000000      -0.13332737       0.12226153      -0.23694338
Pt       6.38974373       3.75551128       4.37715844        2       0.00000000      -0.04564008      -0.04503081      -0.06040918
Ni       9.05008967       3.73733308       4.37519816        2       1.00000000       0.02598971       0.06401784      -0.23425622
Ni       2.58519134       5.83458710       4.41834016        2       1.00000000       0.01263490      -0.17908051      -0.06534577
Ni       5.11690420       5.87256644       4.35465201        2       1.00000000      -0.05727732      -0.07484301      -0.23946781
Ni       7.71799848       5.86850659       4.35692599        2       1.00000000       0.00193146      -0.01780840      -0.23678556
Ni      10.29434555       5.80692510       4.42976859        2       1.00000000       0.03217179      -0.11871475      -0.05579525
Pt       3.92321216       8.02696377       4.35600204        2       0.00000000       0.00628922      -0.11525972       0.22103823
Ni       6.41728831       8.09553533       4.34284581        2       1.00000000      -0.07111463      -0.05294702      -0.18100992
Pt       8.91334991       8.08029291       4.35013335        2       0.00000000      -0.00817740       0.00605863       0.10196867
Pt      11.58625173       8.01824996       4.37061432        2       0.00000000      -0.02233304      -0.12041171       0.05977774
Pt       0.02520385       0.01755503       6.55758656        1       0.00000000       0.02903805       0.04883214       0.06285928
Pt       2.57700402       0.02007153       6.59464503        1       0.00000000      -0.04703725       0.03011815       0.20910175
Pt       5.17620667       0.01259926       6.49735317        1       0.00000000       0.05124960       0.05840990      -0.40650559
Pt       7.73846959      -0.08010358       6.64156617        1       0.00000000      -0.07749772      -0.07676196       0.19500556
Ni       1.30454700       2.29037539       6.52529903        1       1.00000000       0.05282067       0.19005399      -0.16707144
Pt       3.87168876       2.34401962       6.47955372        1       0.00000000      -0.09402080       0.15231143      -0.21281141
Ni       6.44704989       2.25421934       6.49311697        1       1.00000000      -0.00249578       0.09762062      -0.20416272
Pt       9.05232748       2.31378195       6.49107032        1       0.00000000      -0.00043305       0.12324234      -0.34909727
Ni       2.55586528       4.47955091       6.51716774        1       1.00000000      -0.08473119       0.06952313      -0.22059735
Ni       5.12768721       4.43677616       6.54389302        1       1.00000000      -0.13768741       0.09764467      -0.13465339
Ni       7.70675692       4.39629063       6.48224327        1       1.00000000      -0.09439842      -0.03840052      -0.27311562
Ni      10.36488550       4.41278102       6.54494258        1       1.00000000       0.28370344       0.00897841      -0.23671980
Ni       3.82450614       6.56595885       6.54399241        1       1.00000000      -0.08356747      -0.23542946      -0.11373947
Pt       6.38064964       6.54776331       6.45812629        1       0.00000000      -0.04452026      -0.01040052      -0.26517411
Pt       9.05839202       6.50471679       6.57964792        1       0.00000000       0.04440938      -0.14041403       0.06001378
Ni      11.60837710       6.54823034       6.58276888        1       1.00000000       0.04955898      -0.14709138      -0.16364182
