64
Lattice="10.340225316200206 0.0030423447837271884 -0.03290633219385423 5.1727474059698855 8.834216319351755 -0.10023637436407633 -0.026867907727154004 -0.07899156628702124 8.798225797678201" Properties=species:S:1:pos:R:3:tags:I:1:initial_magmoms:R:1:forces:R:3 unique_id=ef88a6f29b7d4461853715a8a055abad stress="0.00022056706986133684 -1.283700756779459e-06 -4.707116931325924e-07 -1.283700756779459e-06 0.0002509745493086829 3.862673245903215e-05 -4.707116931325924e-07 3.862673245903215e-05 0.0002235700544961708" energy=-397.3680513769102 pbc="T T T"
Ni       0.01329822      -0.06509504       0.17981596        4       1.00000000       0.07515257      -0.11398411       0.27114572
Ni       2.54858428      -0.05367040       0.18617969        4       1.00000000      -0.06516047      -0.07101704       0.31654106
Pt       5.16886469      -0.06899521       0.12109309        4       0.00000000      -0.04948566      -0.24020301       0.28738892
Ni       7.76960756      -0.05720623       0.14553257        4       1.00000000      -0.00040711      -0.09199377       0.29224701
Pt       1.28003528       2.20565973       0.08029877        4       0.00000000       0.04155038      -0.03694964      -0.02477420
Pt       3.84550414       2.22204965       0.15627732        4       0.00000000      -0.05512846       0.07741874       0.24505597
Pt       6.48839399       2.21656117       0.06058536        4       0.00000000       0.02746787       0.00599925      -0.01854621
Pt       9.05682553       2.25122626       0.07674480        4       0.00000000      -0.02682354       0.05957577       0.12827088
Ni       2.56178993       4.46159954       0.00205797        4       1.00000000       0.00256554       0.05998223      -0.00519679
Pt       5.20151010       4.52371753      -0.02630744        4       0.00000000      -0.00048633       0.22565741      -0.18027358
Ni       7.76271063       4.47002071       0.00394687        4       1.00000000      -0.03527686       0.13928577       0.09182959
Ni      10.34264939       4.46227290      -0.01848456        4       1.00000000      -0.00214337       0.12365990       0.00898786
Ni       3.85834944       6.66434003       0.00945780        4       1.00000000      -0.05380218       0.13214341       0.18179880
Ni       6.48033789       6.66530449       0.02979919        4       1.00000000       0.06165824       0.13802893       0.23735268
Ni       9.01350981       6.59329996       0.06165316        4       1.00000000      -0.12065684      -0.04188180       0.25412737
Ni      11.66504292       6.59018545      -0.02694291        4       1.00000000       0.07180329      -0.11995189       0.09217148
Ni       1.31052369       0.70377249       2.23575236        3       1.00000000       0.00255124      -0.00182714       0.16267319
Ni       3.80886822       0.72707744       2.21216210        3       1.00000000      -0.17698827      -0.06595622      -0.04258827
Ni       6.48274460       0.73547225       2.21273894        3       1.00000000       0.09885271      -0.04510702      -0.01743151
Pt       9.05792953       0.71638003       2.20002520        3       0.00000000       0.09529573       0.16355327      -0.09221589
Ni       2.56350990       2.88325468       2.26332520        3       1.00000000      -0.02732909      -0.13987493       0.22897739
Ni       5.17959475       2.92509221       2.19820729        3       1.00000000       0.01121815       0.12266964      -0.02314523
Ni       7.73126927       2.92528490       2.20612174        3       1.00000000       0.02788617      -0.10069561       0.02082048
Ni      10.35663826       2.90614419       2.22703875        3       1.00000000       0.04801356      -0.13034323       0.20160856
Pt       3.88493152       5.14139310       2.17401001        3       0.00000000       0.01521912      -0.02022416      -0.07159329
Ni       6.46918903       5.15925344       2.13818335        3       1.00000000      -0.03498967       0.07863210      -0.00320940
Pt       8.97085363       5.09361863       2.15222910        3       0.00000000      -0.03069743      -0.06533437       0.06731543
Pt      11.63519110       5.07560027       2.14784420        3       0.00000000       0.03390612      -0.22172463       0.06187932
Ni       5.21628825       7.34421436       2.09747157        3       1.00000000       0.08813206      -0.04725013       0.02453297
Ni       7.68284591       7.35964407       2.09096677        3       1.00000000      -0.12761196      -0.04474847       0.02772715
Pt      10.36520316       7.34179330       2.15883165        3       0.00000000       0.04901422       0.07959013      -0.11092798
Ni      12.92132765       7.35215666       2.07541676        3       1.00000000      -0.01202146      -0.06217721      -0.01723026
Ni       0.04084742       1.47179213       4.33456548        2       1.00000000       0.11110295       0.03548428      -0.08161494
Ni       2.50990559       1.46970093       4.30249205        2       1.00000000      -0.06436797       0.05984548      -0.09067402
Pt       5.16731088       1.44514070       4.23365628        2       0.00000000      -0.13853377      -0.01765554       0.03107952
Ni       7.74794212       1.44177531       4.30833207        2       1.00000000       0.03621009      -0.04195082      -0.07394623
Ni       1.27834956       3.63239380       4.35965650        2       1.00000000       0.01232106      -0.01272773      -0.03481796
Ni       3.80202407       3.66734438       4.30272142        2       1.00000000      -0.11024271       0.03336764      -0.12706224
Pt       6.53272400       3.65278241       4.30611468        2       0.00000000       0.07678674      -0.03557150      -0.10809731
Ni       9.08497746       3.66718868       4.28441888        2       1.00000000       0.19936988       0.01546680      -0.10484250
Ni       2.53521002       5.81888293       4.36378296        2       1.00000000      -0.04722235      -0.06899152       0.01523106
Pt       5.18581248       5.86520963       4.34966032        2       0.00000000       0.10518969       0.04739406      -0.04080879
Ni       7.74539292       5.83772371       4.29281773        2       1.00000000       0.00676370       0.01312771      -0.04901539
Ni      10.36388147       5.80374668       4.32195700        2       1.00000000       0.07099321      -0.08015361       0.04321853
Pt       3.83902636       8.05248880       4.23332699        2       0.00000000      -0.04413126      -0.02541087       0.09452129
Ni       6.44642606       8.08076668       4.21977070        2       1.00000000      -0.12943855       0.13334341      -0.17317168
Pt       8.95385879       8.02331592       4.19840657        2       0.00000000      -0.19687221      -0.00703114       0.07385235
Ni      11.64107007       8.01561984       4.23829289        2       1.00000000       0.03186859      -0.10674516      -0.00567369
Pt      -0.00807644      -0.09402993       6.55144649        1       0.00000000       0.07540994      -0.04228688       0.12279940
Pt       2.54227298      -0.05280504       6.53544954        1       0.00000000      -0.08915017       0.05615890       0.20453088
Pt       5.17553924      -0.07276625       6.44352372        1       0.00000000       0.04392309       0.03015047      -0.38157687
Pt       7.73177179      -0.09794669       6.52827938        1       0.00000000      -0.06908814      -0.01709602       0.13828601
Ni       1.26958548       2.21279422       6.39382404        1       1.00000000       0.00601202       0.12160380      -0.26286585
Pt       3.82896759       2.27470258       6.41234865        1       0.00000000      -0.01942933       0.22054112      -0.19869355
Ni       6.45342347       2.19529147       6.41378502        1       1.00000000      -0.00580890       0.04891270      -0.23770194
Pt       9.04434938       2.25119612       6.34916834        1       0.00000000       0.03680343       0.11580091      -0.31449969
Ni       2.53375984       4.40891796       6.43535926        1       1.00000000      -0.08455598       0.13227473      -0.26103646
Ni       5.16223345       4.39349272       6.38388769        1       1.00000000       0.00683922       0.04089561      -0.32419950
Ni       7.70606649       4.36618954       6.45536952        1       1.00000000      -0.13153090      -0.01453263      -0.10939002
Ni      10.38438363       4.36547742       6.41398778        1       1.00000000       0.28291345      -0.02057971      -0.25831061
Ni       3.84196545       6.50632516       6.45946602        1       1.00000000      -0.06932965      -0.13578362      -0.04540420
Ni       6.44045303       6.52176482       6.45347751        1       1.00000000       0.07202782      -0.03092464       0.01088789
Pt       9.03464042       6.43919761       6.44846154        1       0.00000000       0.05199089      -0.11620868       0.12970156
Ni      11.64748782       6.50017877       6.40120906        1       1.00000000       0.04189788      -0.07566975      -0.17602422
