64
Lattice="10.128751059883214 0.019425005679483895 -0.014833617785147735 5.081198078328692 8.727311753225393 -0.06590576059515252 -0.012111598204361805 -0.055143912497847725 8.631455895548974" Properties=species:S:1:pos:R:3:tags:I:1:initial_magmoms:R:1:forces:R:3 unique_id=d1e1d948d0d346d4ada15869bdee86a7 stress="-0.006456157839946582 1.2967370266902286e-05 1.1228039466648237e-05 1.2967370266902286e-05 -0.006400831725899961 -5.178070149969289e-06 1.1228039466648237e-05 -5.178070149969289e-06 -0.00552868533836174" energy=-388.7421554616961 pbc="T T T"
Ni       0.02806250      -0.05323348       0.18708541        4       1.00000000       0.03508468      -0.07840721       0.10921050
Ni       2.48322687       0.00408947       0.15606175        4       1.00000000      -0.05318530       0.06749838      -0.05209445
Pt       5.09136451      -0.06290539       0.20543610        4       0.00000000      -0.02783232      -0.06557098      -0.08307872
Ni       7.61969556      -0.04133480       0.17232467        4       1.00000000       0.04583919      -0.10955587       0.08147950
Ni       1.26167447       2.19907170       0.11495849        4       1.00000000      -0.03126756       0.06377166       0.08627020
Pt       3.76742498       2.24760215       0.17926627        4       0.00000000      -0.02974023       0.00817704      -0.13385782
Ni       6.33931240       2.23026003       0.10916432        4       1.00000000      -0.02156790       0.02268750       0.11921708
Pt       8.87180436       2.23442040       0.12196183        4       0.00000000      -0.00874996       0.01461609      -0.15430780
Ni       2.51363835       4.40512985       0.08131700        4       1.00000000      -0.01234481       0.01461425       0.04230541
Ni       5.09063538       4.41065815       0.07731353        4       1.00000000      -0.04625134       0.02633316       0.02037532
Ni       7.57434801       4.40420743       0.08424556        4       1.00000000      -0.02670618       0.01950774       0.11008155
Ni      10.17216277       4.40823900       0.07604252        4       1.00000000       0.05393377      -0.01613699       0.04497705
Ni       3.80900272       6.51742334       0.06738254        4       1.00000000      -0.01798598      -0.05235017       0.02565214
Ni       6.30677637       6.51861222       0.03461797        4       1.00000000      -0.07667208      -0.04059292      -0.06612820
Ni       8.88597671       6.47800677       0.14498417        4       1.00000000       0.08197919      -0.12177510       0.15289832
Ni      11.43949410       6.49874328       0.06511666        4       1.00000000       0.03609877      -0.05552993       0.05512441
Ni       1.27371391       0.77151717       2.18079188        3       1.00000000      -0.00082750       0.09605263       0.03208705
Ni       3.74796398       0.73372959       2.18362592        3       1.00000000      -0.10107221       0.02513209      -0.00088904
Ni       6.35919151       0.72222091       2.17084281        3       1.00000000       0.06578884      -0.00816771       0.04681053
Pt       8.87799685       0.69063939       2.22798560        3       0.00000000       0.05019892      -0.03705382       0.11252573
Ni       2.49251818       2.94087010       2.21834956        3       1.00000000      -0.00885657       0.07911235       0.04027192
Ni       5.07345598       2.95660372       2.13830192        3       1.00000000      -0.02056490       0.08172768       0.02296986
Ni       7.58232324       2.94478243       2.16048238        3       1.00000000       0.01713136       0.01811176       0.06627532
Ni      10.18028486       2.95545504       2.18551508        3       1.00000000       0.04813654       0.01590192       0.02688534
Ni       3.78658526       5.07978637       2.13367559        3       1.00000000      -0.04542339      -0.02841904      -0.01037761
Ni       6.29887230       5.07156624       2.08226848        3       1.00000000      -0.03046503       0.03036444       0.04714069
Ni       8.91424782       5.04370368       2.10915390        3       1.00000000       0.03722351      -0.05368264       0.07116414
Ni      11.41309342       5.08886911       2.13513723        3       1.00000000       0.02667781      -0.03487303       0.06528139
Ni       5.04485327       7.19696647       2.12324317        3       1.00000000      -0.06906544      -0.11222778       0.04282362
Pt       7.58577547       7.28219907       2.07770984        3       0.00000000      -0.07776187      -0.01171185       0.02357803
Ni      10.18701055       7.20789586       2.17446169        3       1.00000000       0.01595214      -0.09588762       0.08903366
Ni      12.66020163       7.20902729       2.11500921        3       1.00000000       0.03397597      -0.08459624       0.02501461
Ni       0.04738505       1.45112583       4.24826315        2       1.00000000       0.04868757       0.05340074      -0.00446158
Ni       2.46672222       1.45938938       4.21145505        2       1.00000000      -0.00752210       0.04100968      -0.06578638
Pt       5.04091296       1.40250946       4.15149875        2       0.00000000      -0.02309361       0.01744704      -0.13710138
Ni       7.60380076       1.41509336       4.24390022        2       1.00000000      -0.04449681      -0.04961082      -0.02996301
Ni       1.27495446       3.62517635       4.25273992        2       1.00000000       0.04169174       0.04409247      -0.05593730
Ni       3.73590434       3.69491204       4.19587453        2       1.00000000      -0.01445841       0.08161444      -0.12964887
Pt       6.31386915       3.62474562       4.24914037        2       0.00000000      -0.02711485       0.01026000      -0.02074093
Ni       8.93771420       3.64327734       4.17342095        2       1.00000000       0.05451218       0.03759079      -0.14366915
Ni       2.53585271       5.77825486       4.22717683        2       1.00000000      -0.01138351      -0.01288169      -0.13316930
Ni       5.00314583       5.82229696       4.22790540        2       1.00000000      -0.00139918      -0.00531610      -0.12943846
Pt       7.61074978       5.81494748       4.21594022        2       0.00000000       0.03880920       0.02629919       0.02100521
Ni      10.20556847       5.77790806       4.19767680        2       1.00000000       0.02859873      -0.03031648      -0.03612737
Ni       3.80107000       7.90534142       4.19618617        2       1.00000000      -0.04057563      -0.08134227       0.00501966
Ni       6.29051151       7.99838284       4.16614027        2       1.00000000      -0.09615468       0.04070797      -0.09974716
Ni       8.88148150       7.96758018       4.16609664        2       1.00000000       0.01177978      -0.04713283      -0.06796130
Ni      11.44096149       7.90367222       4.13765369        2       1.00000000       0.04805951      -0.03297109      -0.06494956
Pt      -0.00681240      -0.09347065       6.38725332        1       0.00000000      -0.06303881       0.01990567       0.10334901
Pt       2.50260357      -0.03056613       6.36241810        1       0.00000000       0.09443174       0.01201344      -0.06483069
Pt       5.08060606      -0.04422142       6.31280493        1       0.00000000      -0.05415606      -0.02665597       0.09239926
Pt       7.59078669      -0.08504455       6.37139652        1       0.00000000       0.07278017       0.00943483       0.09509859
Ni       1.25599072       2.21134982       6.33551793        1       1.00000000       0.02988353       0.02848884      -0.06083635
Pt       3.76704379       2.30004507       6.29066863        1       0.00000000      -0.02012876       0.08414325       0.03709487
Ni       6.32702806       2.20156842       6.37510569        1       1.00000000      -0.01702717       0.01447147       0.03238544
Pt       8.86829767       2.26537836       6.23814927        1       0.00000000      -0.00144924       0.04690081       0.01472663
Ni       2.50203909       4.39576459       6.32134235        1       1.00000000       0.01718151       0.07658102      -0.08584285
Ni       5.06204822       4.40519360       6.35702851        1       1.00000000      -0.04027492       0.10697862      -0.02212428
Ni       7.53983193       4.34183382       6.37785456        1       1.00000000      -0.10180488       0.00625111       0.06628598
Ni      10.21599467       4.33876968       6.31593298        1       1.00000000       0.14814405      -0.01132800      -0.09409431
Ni       3.79712848       6.42316127       6.31377758        1       1.00000000      -0.01193247      -0.02059137      -0.08523782
Ni       6.29190052       6.45356925       6.33470199        1       1.00000000      -0.00784150       0.01295146      -0.10886289
Pt       8.90691808       6.39596548       6.40573602        1       0.00000000       0.07812694      -0.04633208       0.21317728
Ni      11.44819540       6.44874277       6.29898299        1       1.00000000       0.02948578       0.01686610      -0.09873068
