64
Lattice="10.335601504024138 0.006288900987390951 0.023898561294488297 5.173247100029033 8.893695340577754 0.008260984423656153 0.019513093586041485 -0.0034773590276314143 8.828750669497595" Properties=species:S:1:pos:R:3:tags:I:1:initial_magmoms:R:1:forces:R:3 unique_id=10bf87c45c9e482f84cf52caf3c17b79 stress="-0.010831873398040023 3.405828567334154e-05 -3.14966439451031e-05 3.405828567334154e-05 -0.010857796482991705 8.220805311964831e-06 -3.14966439451031e-05 8.220805311964831e-06 -0.009324792546463845" energy=-400.45508381496666 pbc="T T T"
Ni       0.01362791       0.00586752       0.19400886        4       1.00000000       0.08587468       0.04141727       0.19982579
Ni       2.58503164       0.01244659       0.22955131        4       1.00000000       0.01363083       0.03588873       0.30744244
Ni       5.16280295      -0.01255235       0.17381475        4       1.00000000      -0.04541047       0.07942175       0.10879825
Ni       7.75211394      -0.05661161       0.21937471        4       1.00000000      -0.00767254      -0.05962788       0.24557980
Ni       1.30225623       2.23043971       0.19971127        4       1.00000000       0.04073665       0.00550831       0.24783560
Pt       3.79199680       2.18754133       0.19895552        4       0.00000000      -0.01251531       0.04267818      -0.05499463
Pt       6.46695413       2.13770882       0.12265525        4       0.00000000       0.06118252      -0.04239151      -0.13342288
Pt       9.14649771       2.22909634       0.14425688        4       0.00000000       0.10398109       0.05694878      -0.15931095
Ni       2.54412553       4.47337138       0.06868547        4       1.00000000      -0.02371125       0.00978906      -0.06417296
Pt       5.12979260       4.47337936       0.16024277        4       0.00000000       0.06070597      -0.02509160      -0.15375506
Pt       7.81254135       4.49617359       0.03902046        4       0.00000000       0.05400708       0.03993375      -0.32960253
Ni      10.39572393       4.48413349       0.09141312        4       1.00000000       0.09216427       0.05205521       0.02280937
Ni       3.82497126       6.71485417       0.10728832        4       1.00000000      -0.03018942       0.06650923       0.08549508
Pt       6.46963727       6.77886918       0.21218334        4       0.00000000      -0.00394542       0.02194020      -0.02181229
Ni       9.08684478       6.71073406       0.09060180        4       1.00000000       0.03134303       0.08034680      -0.01206357
Ni      11.65631716       6.68043594       0.08836822        4       1.00000000       0.07763975       0.01209646      -0.01141812
Ni       1.33071625       0.75221241       2.24551237        3       1.00000000       0.01852728       0.02765503       0.13864817
Ni       3.84246753       0.77421024       2.26584333        3       1.00000000      -0.03945045       0.06437746       0.11420488
Ni       6.45722547       0.77601202       2.26310206        3       1.00000000      -0.02630159       0.07033402       0.09504261
Pt       9.06635010       0.75614598       2.26516452        3       0.00000000       0.01616620       0.02364663       0.11968606
Ni       2.56623026       2.90841742       2.29211888        3       1.00000000      -0.02298241      -0.05787462       0.11346992
Ni       5.16431374       2.91609157       2.28477207        3       1.00000000      -0.08931794      -0.06939913      -0.01435193
Ni       7.74445662       2.94334510       2.26146457        3       1.00000000       0.00495255      -0.03353118      -0.12649505
Ni      10.38753028       2.93418492       2.29525219        3       1.00000000       0.06594941      -0.04410584       0.11349623
Pt       3.86336940       5.18718188       2.26283765        3       0.00000000      -0.03419145      -0.00310250       0.05649561
Ni       6.47944292       5.19097996       2.24619330        3       1.00000000      -0.00522774      -0.02046147      -0.07154142
Pt       8.99940288       5.15910635       2.28193142        3       0.00000000      -0.04888867      -0.03156621      -0.07505185
Pt      11.63878583       5.13303912       2.21724669        3       0.00000000      -0.04191213      -0.03011676       0.03487227
Ni       5.19952726       7.44137307       2.24075646        3       1.00000000      -0.01469797       0.05370100       0.09505476
Ni       7.72361208       7.46174694       2.26501270        3       1.00000000      -0.05558803       0.03926986       0.11946457
Pt      10.33902154       7.46519850       2.15035032        3       0.00000000      -0.03402404      -0.02690421       0.05723476
Ni      12.93687526       7.41934744       2.21001923        3       1.00000000       0.00424871      -0.03638427       0.06836634
Ni       0.05935519       1.52389780       4.34011994        2       1.00000000       0.11319642       0.03090021      -0.04238098
Ni       2.55876850       1.51917510       4.31720578        2       1.00000000      -0.07793360       0.02241531      -0.05813779
Ni       5.16422790       1.50629582       4.33635986        2       1.00000000      -0.08179353      -0.01658343      -0.14879809
Ni       7.76527296       1.49932829       4.36532545        2       1.00000000       0.00807670      -0.05040806      -0.11910649
Ni       1.32899061       3.67013078       4.35854014        2       1.00000000       0.03415421      -0.04781835      -0.10220845
Ni       3.83102397       3.67782980       4.34318606        2       1.00000000      -0.06037541      -0.06192246      -0.13764969
Pt       6.51781077       3.64388002       4.32849864        2       0.00000000       0.01203485      -0.06681383      -0.16016525
Ni       9.07488671       3.67873055       4.36118780        2       1.00000000       0.08469644      -0.12173266      -0.24181408
Ni       2.59303464       5.87898351       4.44008658        2       1.00000000       0.03377474      -0.04692540      -0.02565921
Pt       5.21267074       5.93642257       4.33305015        2       0.00000000       0.05174225       0.04330121      -0.12222799
Ni       7.77352188       5.91449854       4.38398900        2       1.00000000       0.03674422       0.01107816      -0.13065856
Pt      10.35811449       5.85040897       4.50620018        2       0.00000000      -0.00245699      -0.01502232      -0.05610723
Pt       3.91810992       8.16014598       4.36567044        2       0.00000000       0.01236019       0.02050245       0.06615512
Ni       6.47840003       8.19971895       4.33263196        2       1.00000000      -0.04245438       0.13704349      -0.05145624
Pt       8.97851527       8.18568568       4.34167710        2       0.00000000      -0.03194166       0.03013676       0.09010326
Pt      11.65362045       8.17969429       4.34735266        2       0.00000000      -0.00875941       0.00572993       0.02032525
Pt       0.00506016      -0.01827218       6.58474043        1       0.00000000      -0.01329170       0.03616399       0.18717896
Pt       2.59941959      -0.01575641       6.60267394        1       0.00000000      -0.03308087       0.05774065       0.26292521
Pt       5.19098530      -0.06802279       6.60990908        1       0.00000000      -0.03610624      -0.11795858       0.11671101
Pt       7.74697481      -0.04900997       6.64448519        1       0.00000000      -0.02497520      -0.05224975       0.26842295
Pt       1.29064571       2.33483568       6.52645135        1       0.00000000      -0.04276551       0.10185901       0.14208655
Pt       3.89757760       2.24335820       6.43641918        1       0.00000000      -0.01756644      -0.03905825      -0.07639739
Ni       6.47950662       2.22142775       6.46887400        1       1.00000000      -0.05897942      -0.07386230      -0.18768148
Pt       9.00379078       2.31033581       6.43075694        1       0.00000000      -0.06985840      -0.01733102      -0.10345437
Ni       2.56537696       4.50542352       6.51282826        1       1.00000000      -0.03414237       0.04966285      -0.17085209
Pt       5.15734362       4.44181671       6.48257872        1       0.00000000      -0.03784284      -0.02389849       0.02969864
Ni       7.80437757       4.46113055       6.43227889        1       1.00000000       0.06133557       0.03706054      -0.33739165
Ni      10.35086107       4.48979524       6.57826690        1       1.00000000      -0.05450599       0.03561374       0.01955836
Ni       3.84250469       6.62557893       6.54920249        1       1.00000000      -0.03318998      -0.05380037      -0.04394811
Pt       6.54017654       6.61797941       6.49565686        1       0.00000000       0.06418172       0.01812603       0.04848641
Ni       9.09038068       6.60425129       6.56888016        1       1.00000000       0.01066845      -0.08175561      -0.02680118
Ni      11.66180079       6.59676771       6.58209519        1       1.00000000       0.04397096      -0.09315396      -0.02458464
