64
Lattice="10.32934422740765 -0.007342438126685059 -0.016700322740788434 5.1583133757604 8.879540601498825 -0.03638935468439017 0.0 0.0 21.574603053444054" Properties=species:S:1:pos:R:3:tags:I:1:initial_magmoms:R:1:forces:R:3 unique_id=a54cb437844346a98ee67508d609eb59 energy=-376.0170938265847 stress="0.005438134499586126 -0.00014707190626243172 -0.00010764573370328 -0.00014707190626243172 0.005216967620749304 -6.309609900368402e-05 -0.00010764573370328 -6.309609900368402e-05 -0.0023845470566702873" pbc="T T T"
Ni      -0.00118836       0.01926636       0.16209120        2       1.00000000       0.07549136       0.02059169      -0.20972083
Ni       2.57440515       0.00332793       0.18303763        2       1.00000000      -0.03674102       0.05214726      -0.12055718
Ni       5.16098365      -0.02010516       0.12658704        1       1.00000000      -0.01901420       0.14372305      -0.25619542
Ni       7.75181778      -0.05276190       0.13937504        1       1.00000000      -0.11887744      -0.13851569      -0.16402279
Ni       1.25830554       2.22104883       0.15954786        2       1.00000000      -0.07915443       0.02146295       0.04540238
Pt       3.80598389       2.21915019       0.07967028        1       0.00000000      -0.04439216      -0.03805332      -0.03351329
Pt       6.47040522       2.15402360       0.15762194        2       0.00000000       0.01550227      -0.13427505      -0.60112113
Ni       9.07532304       2.20919398       0.10734244        1       1.00000000       0.05139146       0.13434378      -0.08060061
Ni       2.55920350       4.45503319       0.01856573        0       1.00000000      -0.10224751      -0.02905617       0.17916695
Ni       5.14677779       4.44368975       0.11397150        1       1.00000000       0.13200842      -0.09882156      -0.38228465
Pt       7.78310499       4.43007033       0.00000000        0       0.00000000      -0.02934724      -0.04641668      -0.27415192
Ni      10.36150173       4.42212749       0.01587620        0       1.00000000       0.03880074      -0.08549957       0.25801687
Ni       3.83311858       6.67319839       0.03558910        0       1.00000000      -0.07920404       0.12385969       0.25890921
Pt       6.41612013       6.71195095       0.05790685        1       0.00000000       0.00688883       0.03565829      -0.10485912
Ni       9.05351522       6.67542482       0.09213512        1       1.00000000      -0.08644268      -0.00739184      -0.21081072
Ni      11.63525450       6.65458729       0.00249779        0       1.00000000       0.09323971      -0.00093324       0.25613423
Ni       1.29701940       0.75105516       2.14571832        3       1.00000000       0.02493938       0.07212684       0.04902682
Ni       3.86349281       0.75488597       2.17564451        4       1.00000000       0.05744830       0.05303809       0.19379294
Ni       6.45125098       0.73685932       2.23083433        4       1.00000000       0.02983491       0.08613077       0.40364926
Pt       9.03909102       0.76454233       2.14763786        3       0.00000000       0.00765292       0.10590736       0.12324646
Ni       2.56029895       2.92980757       2.17610546        4       1.00000000      -0.02277411       0.00944905       0.09108845
Ni       5.14772884       2.92143037       2.20529098        4       1.00000000      -0.12766648      -0.15183245       0.21771348
Ni       7.74970560       2.93217989       2.20032896        4       1.00000000       0.09535802      -0.00357962       0.17330961
Ni      10.34392239       2.91911915       2.16920324        4       1.00000000       0.06733439      -0.02244269       0.21224265
Pt       3.88607528       5.15773033       2.12283444        3       0.00000000      -0.03043699      -0.06474695      -0.05415206
Ni       6.44887425       5.17170227       2.15987827        4       1.00000000       0.04973278      -0.00762311       0.09823289
Pt       9.00026916       5.13995569       2.23716216        4       0.00000000      -0.02963063      -0.05095385       0.13607049
Pt      11.62623612       5.11890460       2.16176612        4       0.00000000       0.00020481      -0.07818460       0.08964268
Ni       5.15584823       7.40484318       2.13395957        3       1.00000000      -0.07548757       0.00812582       0.05454935
Ni       7.72149229       7.41376541       2.13350307        3       1.00000000       0.02564049       0.03691640       0.10828992
Pt      10.36825366       7.44417884       2.09746490        3       0.00000000       0.10961369      -0.02811883       0.04738514
Ni      12.90412068       7.39553866       2.11609208        3       1.00000000       0.04379565      -0.03431739      -0.00939549
Ni      -0.01879447       1.52369842       4.31865733        6       1.00000000       0.01307192       0.12746187      -0.16963005
Pt       2.59101478       1.56407346       4.25182501        6       0.00000000      -0.02257950       0.05169043      -0.04160022
Ni       5.17449776       1.46705290       4.28575907        6       1.00000000       0.05967882      -0.02090515      -0.31789295
Ni       7.73384236       1.46135290       4.29161199        6       1.00000000      -0.00613716      -0.02516529      -0.23233402
Ni       1.26174075       3.73409541       4.33869261        6       1.00000000      -0.05175861       0.02944557      -0.09766503
Ni       3.83857886       3.69397772       4.33234324        6       1.00000000       0.00070399       0.07266363      -0.17934215
Pt       6.49405382       3.65741604       4.21482804        5       0.00000000       0.05042184      -0.05625775      -0.11200597
Ni       9.07126245       3.69064755       4.32068784        6       1.00000000       0.15759825      -0.05658545      -0.07222272
Ni       2.51882497       5.87850766       4.37589497        7       1.00000000      -0.07996385      -0.08693738      -0.00039588
Pt       5.12968425       5.88624001       4.30820414        6       0.00000000      -0.03715526       0.00525697      -0.05108572
Ni       7.75817562       5.87087895       4.32376823        6       1.00000000      -0.00859202       0.01123437      -0.15607229
Ni      10.35869145       5.85641158       4.34549943        6       1.00000000       0.09284835      -0.01619242      -0.04604525
Pt       3.77731677       8.12062204       4.25284072        6       0.00000000      -0.09647008      -0.00420283       0.03556905
Pt       6.44960930       8.13592854       4.22175660        5       0.00000000      -0.05524153       0.19043234      -0.15549633
Pt       9.07440992       8.09842419       4.23716261        5       0.00000000       0.04198892       0.01346444      -0.08193888
Ni      11.60783169       8.10901326       4.28785195        6       1.00000000      -0.06714882      -0.00771321      -0.16416831
Pt      -0.01414137      -0.07628860       6.56232640       10       0.00000000       0.08485707       0.16752836       0.22425594
Pt       2.58072793      -0.02262094       6.57460305       10       0.00000000       0.01003149      -0.06314264       0.32445304
Pt       5.15994571      -0.05149860       6.51879446        9       0.00000000       0.04491702      -0.03869266       0.33026391
Pt       7.72167264      -0.11070765       6.53285104        9       0.00000000      -0.08522029       0.13059943       0.27267994
Pt       1.31816170       2.31952520       6.51794288        9       0.00000000      -0.06319117      -0.06076607      -0.02433553
Ni       3.85921922       2.23495526       6.41308001        8       1.00000000       0.06334616       0.05570837       0.06280183
Pt       6.42560445       2.22027383       6.42617840        8       0.00000000      -0.01597739      -0.06756942       0.64227489
Pt       9.03824532       2.28002085       6.45230977        9       0.00000000       0.01085000      -0.02097721       0.03400741
Ni       2.55027263       4.47559221       6.46018612        9       1.00000000       0.02425433       0.09191994      -0.30985133
Pt       5.08380055       4.45550685       6.52637151        9       0.00000000      -0.08281276      -0.11019069       0.24689152
Ni       7.72925611       4.43470494       6.37658272        8       1.00000000      -0.11194238      -0.00559166       0.14812757
Ni      10.35223785       4.44718734       6.44167770        8       1.00000000       0.10762312      -0.03348510      -0.26923697
Ni       3.81913637       6.60365175       6.48245424        9       1.00000000      -0.09780724      -0.04247933      -0.17176050
Ni       6.44458250       6.60571417       6.40574747        8       1.00000000       0.11492759      -0.04528219       0.10998850
Pt       9.04255808       6.51605524       6.47846239        9       0.00000000      -0.04658236       0.00028574       0.06880423
Ni      11.62944582       6.56032653       6.43788780        8       1.00000000       0.00799992      -0.06827343      -0.34152230
