64
Lattice="10.286936117634465 -0.009752182733544782 0.0003366812689759972 5.135022420827631 8.853558578599728 -0.02120101629831198 0.00027489910498130625 -0.020147222929038124 8.761818113383306" Properties=species:S:1:pos:R:3:tags:I:1:initial_magmoms:R:1:forces:R:3 unique_id=52e98b0f04a342c1881f67b203caf4ea stress="0.00018104340138539593 4.024122515047841e-06 -9.152227976771197e-06 4.024122515047841e-06 0.00018740062292753323 1.4970967675582407e-05 -9.152227976771197e-06 1.4970967675582407e-05 0.0001838386686149468" energy=-396.3899671824156 pbc="T T T"
Ni      -0.02236120       0.02616290       0.20893473        4       1.00000000      -0.09332513       0.05233455       0.32372725
Ni       2.56898846      -0.00041686       0.21368943        4       1.00000000       0.00648950      -0.01141657       0.39003712
Ni       5.14341475      -0.01905239       0.16822115        4       1.00000000      -0.01729419       0.13793920       0.28315473
Ni       7.74056160      -0.04942005       0.11955251        4       1.00000000       0.06472588      -0.13221523       0.19881953
Ni       1.26339112       2.20486911       0.08345245        4       1.00000000      -0.08155845      -0.06323689       0.12357650
Pt       3.78975239       2.21642481       0.10406254        4       0.00000000      -0.07333978       0.02932254      -0.13311214
Pt       6.45106403       2.14746256       0.18847693        4       0.00000000       0.03017629      -0.06884556       0.20903367
Ni       9.01843237       2.16101922       0.14232098        4       1.00000000      -0.03631565      -0.19281857       0.13488256
Ni       2.56788509       4.44468057       0.06450631        4       1.00000000       0.09642137       0.05806724       0.06778532
Ni       5.10544233       4.43845549       0.17919370        4       1.00000000      -0.01778947       0.00575029       0.32482669
Pt       7.78198379       4.42956132       0.09390255        4       0.00000000       0.12117717      -0.02546584      -0.06469037
Ni      10.31768747       4.42677095       0.04785500        4       1.00000000       0.13209858       0.01180898       0.05433992
Ni       3.81745969       6.64226609       0.18119863        4       1.00000000      -0.05017558      -0.05254333       0.28233581
Pt       6.39093914       6.68243151       0.17720865        4       0.00000000      -0.08732814       0.03133521       0.10550362
Ni       9.01827267       6.64748530       0.05701790        4       1.00000000      -0.00823893       0.02389062      -0.01084715
Ni      11.58887578       6.63927647       0.04369057        4       1.00000000       0.13107762       0.05111499      -0.06655081
Ni       1.28536983       0.71891620       2.15600633        3       1.00000000      -0.02876246       0.02888708      -0.02874090
Ni       3.85207955       0.75199552       2.19383572        3       1.00000000       0.07844147       0.05930267       0.05600199
Ni       6.45722497       0.73229006       2.23897420        3       1.00000000       0.07525108       0.05699522       0.14728723
Ni       8.97502973       0.70378454       2.17405606        3       1.00000000      -0.11156395       0.01093651      -0.00478523
Ni       2.59409772       2.94756774       2.19676131        3       1.00000000       0.02233144       0.09331960      -0.00362515
Ni       5.11259393       2.95477588       2.22357027        3       1.00000000      -0.13943615      -0.04298417      -0.02044848
Ni       7.71615111       2.92734689       2.23104297        3       1.00000000       0.05378691      -0.05234106      -0.04607308
Pt      10.25104317       2.88509506       2.17621423        3       0.00000000       0.00583239       0.01453469       0.00885881
Ni       3.89209010       5.16100497       2.19716147        3       1.00000000       0.08409140      -0.00326268       0.12000109
Ni       6.40623068       5.15885529       2.21580765        3       1.00000000      -0.01051802       0.12308563      -0.06853583
Ni       8.96909833       5.15866981       2.23325415        3       1.00000000      -0.00403499      -0.03145692       0.14281560
Pt      11.63436824       5.16041251       2.14958088        3       0.00000000       0.09170309       0.00523737      -0.01667090
Ni       5.09491495       7.36461073       2.17494856        3       1.00000000      -0.11747199      -0.10078809      -0.07707997
Ni       7.70768846       7.36463276       2.17741476        3       1.00000000       0.03200368      -0.12524168      -0.07251455
Pt      10.26200627       7.37859149       2.10024476        3       0.00000000       0.02946350      -0.10206633      -0.00581564
Ni      12.88775260       7.38126455       2.13644775        3       1.00000000      -0.03005038      -0.00175813      -0.05954350
Ni      -0.02279436       1.49288318       4.32875152        2       1.00000000      -0.00670255       0.01131561      -0.07862552
Pt       2.60205561       1.52531698       4.29012846        2       0.00000000      -0.01527831       0.00399105      -0.07969087
Ni       5.14529147       1.48487543       4.30236774        2       1.00000000       0.05534734       0.01307394      -0.18687733
Ni       7.73911659       1.47941503       4.29493325        2       1.00000000       0.09102341       0.08921778      -0.18902527
Pt       1.25689527       3.73684495       4.41599122        2       0.00000000      -0.01359363      -0.00667064      -0.03696340
Ni       3.86185345       3.71091115       4.30831229        2       1.00000000      -0.00371321       0.10736233      -0.23689868
Pt       6.44308863       3.69738431       4.23180147        2       0.00000000      -0.08013424      -0.05334352       0.11566670
Ni       8.99253462       3.70120658       4.33294821        2       1.00000000      -0.00935844       0.05498561      -0.19942185
Ni       2.58029728       5.86445838       4.33369936        2       1.00000000       0.09425723       0.01184726      -0.12922446
Ni       5.10768779       5.85689320       4.28002231        2       1.00000000      -0.07433187      -0.01297716      -0.13969413
Ni       7.75450136       5.83521335       4.30010802        2       1.00000000       0.04652283      -0.04555037      -0.20996978
Ni      10.25695054       5.85628749       4.37810158        2       1.00000000      -0.03979451       0.01118968      -0.11524417
Pt       3.84009830       8.11737314       4.23909764        2       0.00000000       0.00840295      -0.00015904       0.05936203
Pt       6.40374650       8.07472028       4.20454321        2       0.00000000      -0.00626264      -0.06635865       0.03291245
Pt       8.99205478       8.04294152       4.29984259        2       0.00000000      -0.01173966       0.03073202       0.11962088
Pt      11.59179935       8.08933046       4.31513355        2       0.00000000      -0.00712184      -0.02515710       0.01959850
Pt      -0.02098292       0.02651853       6.55709508        1       0.00000000      -0.04401423       0.04796166       0.17947582
Pt       2.58932518       0.03577570       6.58436538        1       0.00000000       0.00845666       0.08519354       0.25273403
Pt       5.17901677      -0.08669315       6.56858935        1       0.00000000       0.05299326      -0.19796718       0.13160444
Ni       7.71118091      -0.02582104       6.51126764        1       1.00000000       0.05956103       0.07679825      -0.10995541
Ni       1.30151212       2.26000397       6.50529208        1       1.00000000       0.04553731       0.11147287      -0.06773371
Ni       3.82602159       2.22596019       6.42162934        1       1.00000000      -0.01967778       0.00098239      -0.29674065
Pt       6.44132967       2.17382247       6.41885456        1       0.00000000       0.02104388       0.00220382      -0.26072891
Pt       9.04172414       2.28516419       6.47450839        1       0.00000000       0.16665143       0.14585161       0.00500795
Ni       2.51353483       4.39353084       6.49337395        1       1.00000000      -0.13319966      -0.01385661      -0.05718380
Pt       5.06535985       4.37105580       6.49387004        1       0.00000000      -0.12171200      -0.02269389       0.09739490
Ni       7.76453960       4.42702012       6.39672747        1       1.00000000       0.04795657       0.06110492      -0.30151400
Ni      10.28966559       4.45893995       6.48617643        1       1.00000000      -0.02089709       0.20037737      -0.06627496
Pt       3.73405522       6.60913344       6.51120104        1       0.00000000      -0.15822709       0.02256019       0.17148152
Pt       6.48439152       6.56395556       6.41639802        1       0.00000000       0.01253320      -0.03056278      -0.29866580
Ni       9.03722978       6.55034741       6.47260624        1       1.00000000       0.02681826      -0.16263206      -0.19524600
Ni      11.53108201       6.55949407       6.48174409        1       1.00000000      -0.11921470      -0.23771425      -0.22313427
