64
Lattice="10.346609874993389 -4.8930957330996724e-05 0.06704372631787764 5.1732625620446155 8.938570734213457 0.03469749247174688 0.0 0.0 21.563273404593406" Properties=species:S:1:pos:R:3:tags:I:1:initial_magmoms:R:1:forces:R:3 unique_id=d049e0ca9cf643c689e83d4989cbd9ae stress="0.00565766888543767 0.0001764290149639371 0.0007114437110790419 0.0001764290149639371 0.005979088740762475 0.0001078669056750794 0.0007114437110790419 0.0001078669056750794 -0.0017760458972692628" energy=-377.8135852573288 pbc="T T T"
Ni      -0.00992928       0.02331616       0.10356782        1       1.00000000      -0.03050624       0.06963098       0.08694501
Ni       2.59006671       0.00539805       0.02862327        0       1.00000000      -0.02691850       0.03470071       0.42285178
Ni       5.17940254      -0.00866187       0.08673848        1       1.00000000       0.00989588       0.19096333      -0.35236032
Ni       7.78970609      -0.03620499       0.06778766        1       1.00000000       0.03630030      -0.05386231       0.46597094
Ni       1.28945192       2.21576571       0.07557015        1       1.00000000       0.08730960      -0.12914450      -0.10338296
Pt       3.82798096       2.22346202       0.04519897        0       0.00000000       0.00818805      -0.00509174       0.08284191
Pt       6.49717209       2.16629840       0.14077158        1       0.00000000       0.01681939      -0.10880435      -0.50453504
Ni       9.07913976       2.19822622       0.11291461        1       1.00000000      -0.07303694      -0.13373241      -0.03387768
Ni       2.59110281       4.47662328       0.05763410        1       1.00000000       0.00919129      -0.07512584      -0.30264917
Ni       5.17048771       4.46878367       0.09546557        1       1.00000000       0.15771987      -0.09544853      -0.29929561
Pt       7.80323759       4.46495808       0.00000000        0       0.00000000      -0.08664284      -0.11869045      -0.19928971
Ni      10.37861025       4.47547763       0.02943510        0       1.00000000       0.08585523      -0.03760108       0.15559344
Ni       3.85737980       6.73452332       0.10977841        1       1.00000000      -0.03666639       0.17199639      -0.08093024
Pt       6.45766202       6.76319438       0.14696239        1       0.00000000      -0.05519717       0.04754909      -0.52950061
Ni       9.08247020       6.73077512       0.03166417        0       1.00000000      -0.03714020       0.03956285       0.18051756
Ni      11.66249531       6.71905895       0.04031725        0       1.00000000       0.16046242       0.07963134       0.21353001
Ni       1.32765333       0.72766123       2.10314185        2       1.00000000       0.11410405      -0.04149404      -0.05394365
Ni       3.86653043       0.78114372       2.16495813        3       1.00000000      -0.07437813       0.14027330       0.21254613
Ni       6.51012320       0.76030058       2.19932705        3       1.00000000       0.10350684       0.08661625       0.24446578
Ni       9.04198552       0.72446566       2.15576782        3       1.00000000      -0.12987318      -0.05050792      -0.02423686
Ni       2.62298219       2.93127697       2.15991731        3       1.00000000       0.07818197      -0.15827861       0.25023348
Ni       5.17542573       2.94933997       2.19492887        3       1.00000000      -0.10391831      -0.17175412       0.26165727
Ni       7.76688651       2.93089411       2.19740898        3       1.00000000       0.05004604      -0.13564974       0.13121929
Pt      10.34050140       2.87461102       2.16873630        3       0.00000000      -0.01568857      -0.01835825       0.06309174
Pt       3.93152331       5.19893739       2.11490767        2       0.00000000       0.02093551      -0.07070892       0.13540477
Ni       6.47521693       5.20047957       2.16928382        3       1.00000000       0.03875230      -0.09239833       0.11597422
Pt       9.00295883       5.21856007       2.22313430        3       0.00000000      -0.08918387      -0.04257282       0.10096040
Pt      11.67948599       5.22666772       2.14311934        2       0.00000000      -0.01252698      -0.01133830       0.04209893
Ni       5.17179443       7.49795087       2.14309015        2       1.00000000      -0.04227352       0.13990542       0.06472524
Ni       7.76146645       7.49335954       2.17271621        3       1.00000000       0.04423526       0.18343443       0.05244979
Pt      10.35952616       7.52704278       2.10569956        2       0.00000000       0.00330881       0.08312764      -0.05450608
Ni      12.97215993       7.49214413       2.17384521        3       1.00000000       0.02092779       0.12000785      -0.00641486
Ni       0.01128576       1.51058642       4.27563971        5       1.00000000      -0.05580354       0.04663782      -0.18451336
Ni       2.65145092       1.51766896       4.29006167        5       1.00000000       0.09504692       0.09711545      -0.26047714
Ni       5.16644842       1.52247821       4.29119397        5       1.00000000      -0.06555846       0.12711699      -0.37110788
Ni       7.80923203       1.50951239       4.29712457        5       1.00000000       0.08548681       0.07141760      -0.36366277
Pt       1.34631483       3.66690771       4.26943853        5       0.00000000       0.03915042      -0.10324242      -0.01676730
Ni       3.90722567       3.67029828       4.30771034        5       1.00000000       0.07651287      -0.12680832      -0.22863160
Pt       6.53706246       3.68184941       4.23196824        4       0.00000000      -0.02252014      -0.05138057      -0.10123268
Ni       9.06975022       3.70160855       4.36478993        6       1.00000000       0.02526083      -0.13815391      -0.20880269
Ni       2.60811558       5.95267465       4.31507242        5       1.00000000       0.02317407      -0.02277231      -0.19460861
Pt       5.19346361       5.93963387       4.27226211        5       0.00000000      -0.06308029       0.01132200      -0.05334860
Ni       7.79873475       5.93570218       4.34582214        5       1.00000000      -0.08399121       0.01424487      -0.17911310
Pt      10.34630091       5.92993059       4.46068035        7       0.00000000       0.02829705       0.03179563       0.03957698
Pt       3.89511381       8.26018578       4.23166915        4       0.00000000      -0.03890313       0.10067127      -0.06769194
Pt       6.50460280       8.27332044       4.24029324        4       0.00000000      -0.04050273       0.25604083      -0.08918740
Pt       9.05292842       8.24811432       4.33943512        5       0.00000000      -0.08294947       0.06341977      -0.10207992
Pt      11.68688216       8.24555982       4.35797932        6       0.00000000       0.01970260       0.14923001      -0.03226218
Pt       0.03057994       0.00790363       6.52308338        9       0.00000000       0.08052982       0.08676623       0.17371360
Ni       2.64649146       0.00521837       6.49494219        9       1.00000000      -0.01836602      -0.04660566      -0.09449974
Pt       5.16669811      -0.05134880       6.56327340       10       0.00000000      -0.03741399       0.05453420       0.29075279
Ni       7.77500029      -0.00356414       6.52929412        9       1.00000000      -0.09417236       0.05371209      -0.12003631
Pt       1.38214250       2.20266975       6.50728561        9       0.00000000      -0.04217893      -0.09451737       0.08865589
Ni       3.90714151       2.20954810       6.39948638        8       1.00000000       0.03259407      -0.03667149      -0.00619492
Pt       6.49807185       2.18376290       6.43838844        8       0.00000000      -0.04810046      -0.12825815       0.41829963
Pt       9.08538581       2.29627518       6.50382078        9       0.00000000       0.06048326      -0.03174815      -0.04586492
Pt       2.56610901       4.49004058       6.50504305        9       0.00000000       0.05474511       0.04756771       0.16014287
Pt       5.20765016       4.43369161       6.52934587        9       0.00000000      -0.04272141       0.02464192       0.25829777
Ni       7.83898797       4.48637283       6.41522990        8       1.00000000       0.01232502       0.03208512       0.05841745
Ni      10.34976541       4.50299969       6.54812154        9       1.00000000      -0.07595878      -0.04108493      -0.06456203
Pt       3.83124079       6.74634163       6.54549579        9       0.00000000       0.06622613      -0.13784422       0.16652217
Pt       6.61426634       6.69950755       6.46581172        9       0.00000000      -0.01331932      -0.07734142       0.48518560
Ni       9.10693664       6.67388555       6.54435790        9       1.00000000      -0.05336346      -0.06952528      -0.02892073
Ni      11.63973514       6.70024221       6.55457112       10       1.00000000      -0.05242102       0.00079736      -0.06415386
