64
Lattice="10.244670815174059 -0.008656327552485419 -0.013191196479930695 5.114838808023096 8.84339473753388 -0.034299225269586876 0.0 0.0 21.545201018092662" Properties=species:S:1:pos:R:3:tags:I:1:initial_magmoms:R:1:forces:R:3 unique_id=0199803096284d8698c40cb5f97a8277 energy=-372.9832639747876 stress="0.0050388376189566125 -5.060011730615997e-05 -8.575866344515069e-05 -5.060011730615997e-05 0.004961566026784929 -0.00018429406599021746 -8.575866344515069e-05 -0.00018429406599021746 -0.0021992748887996894" pbc="T T T"
Ni       0.00247072       0.00827253       0.16308693        2       1.00000000       0.09736897      -0.01972524      -0.32892886
Ni       2.55403229      -0.00822653       0.18795353        2       1.00000000      -0.01895006      -0.01860159      -0.19622966
Ni       5.12482145      -0.02200685       0.13047653        1       1.00000000       0.03178674       0.17815511      -0.31362761
Ni       7.69015320      -0.05121899       0.05243371        1       1.00000000      -0.08912402      -0.03555268       0.19218668
Ni       1.24092360       2.21293777       0.16325473        2       1.00000000      -0.08978960       0.05015249      -0.02748263
Pt       3.78335401       2.20849798       0.07500825        1       0.00000000       0.02195585      -0.02149722      -0.09600192
Pt       6.45716762       2.20033853       0.15487308        2       0.00000000       0.05157580      -0.06421439      -0.57885827
Ni       8.99548112       2.22851551       0.11220717        1       1.00000000       0.03964938       0.14355943      -0.08667848
Ni       2.52949530       4.43659317       0.01690461        0       1.00000000      -0.11622854      -0.04374075       0.11404761
Ni       5.12742935       4.42003743       0.12152143        1       1.00000000       0.13955738      -0.11868217      -0.42326031
Ni       7.72131820       4.42091862       0.06792381        1       1.00000000       0.09877903      -0.01287469       0.30728039
Ni      10.22363908       4.40213861       0.03102235        0       1.00000000      -0.09943503      -0.05848119       0.31553891
Ni       3.80438371       6.64924491       0.03059876        0       1.00000000      -0.00720208       0.09202774       0.17416205
Pt       6.40057677       6.62443958       0.05697659        1       0.00000000       0.00513680       0.02980104      -0.10124010
Ni       8.96452815       6.60366154       0.10621156        1       1.00000000      -0.08830451      -0.13450214      -0.21976706
Ni      11.53737381       6.62391116       0.00000000        0       1.00000000       0.03048219      -0.03457264       0.20162728
Ni       1.28659119       0.74850073       2.13131724        3       1.00000000      -0.00077954       0.06318616       0.04619202
Ni       3.83584159       0.74565269       2.16278626        4       1.00000000       0.05864861       0.02202251       0.17773860
Ni       6.39442349       0.73097286       2.21273324        4       1.00000000       0.00478598       0.04928227       0.29217415
Pt       8.95317995       0.76047614       2.13784048        3       0.00000000      -0.08271305       0.05865127       0.05615853
Ni       2.53410062       2.92233425       2.16323834        4       1.00000000      -0.04045499       0.00514459       0.07353084
Ni       5.11321814       2.91175187       2.19449023        4       1.00000000      -0.11516956      -0.13830315       0.21087049
Ni       7.71878763       2.97813668       2.17186560        4       1.00000000       0.19378521       0.12677985       0.06587698
Ni      10.22844915       2.93172339       2.15977942        4       1.00000000      -0.03100980       0.00167334       0.20514273
Pt       3.84671064       5.13720749       2.10965075        3       0.00000000      -0.04424976      -0.04728467      -0.08023445
Ni       6.44920917       5.13951488       2.13774954        3       1.00000000       0.12351765      -0.02553368       0.07214711
Ni       8.91978600       5.11395179       2.15237755        4       1.00000000      -0.03124456      -0.06942809       0.13394258
Pt      11.47751034       5.08719986       2.15180969        4       0.00000000      -0.06868426      -0.08029377       0.04851189
Ni       5.11695755       7.37184860       2.11756581        3       1.00000000      -0.05526681      -0.01101509       0.04177373
Ni       7.66717139       7.35015112       2.12807024        3       1.00000000       0.03479947      -0.06587136       0.13553402
Pt      10.25250050       7.37340389       2.08512855        3       0.00000000       0.02580856      -0.05249176       0.05681118
Ni      12.79313384       7.36705029       2.10428585        3       1.00000000       0.01251421       0.01704010      -0.03591726
Ni      -0.02306875       1.52137490       4.29287011        6       1.00000000       0.00213096       0.15331807      -0.18310138
Pt       2.57015484       1.55681345       4.22826901        5       0.00000000      -0.01762110       0.06265935      -0.01017243
Ni       5.13727164       1.45818227       4.26170167        6       1.00000000       0.04740645       0.00535457      -0.32078193
Ni       7.67045964       1.44911599       4.27525725        6       1.00000000      -0.02935409       0.02554269      -0.18579659
Ni       1.24489014       3.72253045       4.31356803        6       1.00000000      -0.07355733      -0.01061380      -0.07454033
Ni       3.80678292       3.68214559       4.31104318        6       1.00000000       0.00516252       0.05465899      -0.15875207
Pt       6.45573821       3.64530303       4.19781678        5       0.00000000       0.09245738      -0.01356927      -0.01582455
Ni       8.99885593       3.69225838       4.27450960        6       1.00000000       0.13609620       0.05819070      -0.19768728
Ni       2.49082524       5.85434289       4.35115890        7       1.00000000      -0.10216190      -0.10118670      -0.06588361
Pt       5.08458868       5.86618401       4.28781955        6       0.00000000      -0.00963242       0.02305345      -0.05122707
Ni       7.71571933       5.83255169       4.26905253        6       1.00000000       0.13456571      -0.04159846      -0.27655840
Ni      10.26210709       5.82516304       4.31215624        6       1.00000000      -0.00250040      -0.01691836      -0.08851899
Pt       3.71544953       8.09822558       4.28005974        6       0.00000000      -0.05528938       0.00207339       0.03532940
Pt       6.38799723       8.10375533       4.20401884        5       0.00000000      -0.04835855       0.17082252      -0.13126863
Pt       9.00511610       8.05822295       4.22745512        5       0.00000000      -0.00562509      -0.01652197      -0.04166657
Ni      11.51849669       8.07754129       4.28235439        6       1.00000000      -0.14020106      -0.02451720      -0.14999503
Pt      -0.06485357      -0.07794587       6.54072319        9       0.00000000       0.09050786       0.18726278       0.30088442
Pt       2.56678546      -0.02119023       6.54520102        9       0.00000000       0.06973547      -0.07101344       0.42613520
Pt       5.19036088      -0.07184028       6.49025847        9       0.00000000       0.01805677      -0.09808282       0.32744662
Ni       7.66691208      -0.07178439       6.46329833        9       1.00000000      -0.01301256       0.05226415      -0.01243830
Pt       1.30364723       2.30823039       6.48951801        9       0.00000000      -0.07606072      -0.11118477       0.05867726
Ni       3.83728399       2.22294966       6.37725495        8       1.00000000       0.09748120       0.01495863       0.12574868
Pt       6.39033820       2.18643061       6.39423679        8       0.00000000      -0.07733079      -0.05062996       0.67995618
Pt       8.95309515       2.25303245       6.42888542        8       0.00000000       0.08325399       0.01822971       0.02254811
Ni       2.52834574       4.46502525       6.42334129        8       1.00000000       0.02005438       0.08710793      -0.22754472
Pt       5.04952528       4.43670756       6.50354737        9       0.00000000      -0.12705452      -0.08203041       0.34391501
Ni       7.66850660       4.41178641       6.43815532        8       1.00000000      -0.13464434      -0.01957786      -0.15245602
Ni      10.26917266       4.42865510       6.41397188        8       1.00000000       0.12218445       0.00395308      -0.25313859
Ni       3.75784023       6.60252367       6.45187832        9       1.00000000      -0.08045097      -0.04360319      -0.13696291
Ni       6.38942487       6.58368732       6.37697369        8       1.00000000       0.09232294      -0.01443246       0.20292694
Pt       8.97127836       6.48810493       6.45843314        9       0.00000000       0.00935831       0.05207906       0.09729780
Ni      11.56532545       6.56442436       6.40828664        8       1.00000000      -0.01946500      -0.04085803      -0.31957138
