64
Lattice="10.205460630195873 0.02673756093384757 -0.04106480855946145 5.125885722101882 8.759050788972862 -0.11019387571194554 0.0 0.0 21.520825547796264" Properties=species:S:1:pos:R:3:tags:I:1:initial_magmoms:R:1:forces:R:3 unique_id=2142616176f74723842b0b394d2dd805 energy=-369.97934314945826 stress="0.0021459473553275196 2.356212941220777e-05 -0.00019192155559055062 2.356212941220777e-05 0.0013017274615041517 -0.0003064310890435819 -0.00019192155559055062 -0.0003064310890435819 -0.005044480806768052" pbc="T T T"
Ni       0.03860000      -0.06408001       0.22962379        2       1.00000000       0.07771284      -0.02257008      -0.30136606
Ni       2.48250650      -0.03244301       0.23742179        2       1.00000000      -0.00417636      -0.01131661      -0.26908923
Pt       5.08925343      -0.04915572       0.16850313        2       0.00000000      -0.10008923       0.30484369      -1.27027588
Ni       7.67493477      -0.05149553       0.18825500        2       1.00000000      -0.05927722      -0.04785285      -0.39711494
Ni       1.27658151       2.19584190       0.13017347        1       1.00000000      -0.03741766       0.02219044       0.30482085
Pt       3.73451883       2.25522585       0.18987421        2       0.00000000       0.11391155      -0.06969635      -0.67739862
Pt       6.39025660       2.27094705       0.07975389        1       0.00000000      -0.08584043      -0.08010007      -0.28506392
Pt       9.00904135       2.25188072       0.10509782        1       0.00000000      -0.00986620       0.13324540      -0.74664017
Ni       2.53365167       4.42656848       0.08271412        1       1.00000000       0.03316873       0.02785419       0.37918332
Ni       5.09426163       4.46522568       0.07657239        1       1.00000000      -0.09609727       0.03221994       0.26282727
Ni       7.63571761       4.45306734       0.03305758        0       1.00000000      -0.00692084      -0.00020197       0.07727969
Ni      10.27088751       4.42893731       0.02817804        0       1.00000000       0.07239894       0.01680011       0.25578906
Ni       3.84672403       6.54314240       0.06091182        1       1.00000000       0.03624758       0.01046144       0.32092287
Ni       6.37060918       6.56049876       0.05230800        1       1.00000000      -0.01601593       0.04585710       0.28468516
Ni       8.90202154       6.53934922       0.09596725        1       1.00000000      -0.08531976       0.05339142      -0.35981765
Ni      11.54468843       6.52471114       0.00000000        0       1.00000000       0.05444856       0.03508742       0.17949184
Ni       1.29664326       0.72006040       2.22921543        4       1.00000000       0.00632033       0.05971779       0.19052121
Ni       3.74348168       0.73397144       2.20215832        4       1.00000000      -0.15221098      -0.04927625       0.17872299
Ni       6.40423084       0.74000512       2.20319811        4       1.00000000       0.08158143       0.01387299       0.18122550
Pt       8.95580757       0.72520196       2.20366135        4       0.00000000       0.06428281      -0.11769841       0.17235767
Ni       2.51158848       2.93205199       2.25654641        5       1.00000000       0.02831763      -0.00563328       0.15929506
Ni       5.07759767       2.97960272       2.18273229        4       1.00000000      -0.04525603       0.10467097       0.07005706
Ni       7.63204842       2.91602122       2.20735025        4       1.00000000      -0.07816427      -0.05825774       0.16470148
Ni      10.29086981       2.92441548       2.20945349        4       1.00000000       0.12062926      -0.02507113       0.19794974
Ni       3.82571344       5.08884785       2.15285537        4       1.00000000      -0.01761525      -0.03873198       0.07674274
Ni       6.33702153       5.12243095       2.11292491        3       1.00000000      -0.01674172      -0.03103472       0.02827157
Pt       8.90460931       5.04310285       2.14477313        3       0.00000000      -0.00825306      -0.08405239       0.03845313
Ni      11.54976120       5.05709254       2.13186058        3       1.00000000       0.05089433      -0.10511551       0.15775835
Ni       5.14302981       7.21992790       2.09605780        3       1.00000000      -0.05758207      -0.06820945       0.08680069
Ni       7.57988293       7.28392612       2.07705606        3       1.00000000      -0.09354427      -0.06244310       0.11473298
Pt      10.30317045       7.23538260       2.13653390        3       0.00000000       0.11128069      -0.18211396       0.14880975
Ni      12.80251177       7.22495287       2.05906474        3       1.00000000       0.13056752      -0.12114269       0.06071086
Ni       0.05048867       1.45212039       4.30811708        7       1.00000000       0.12599967      -0.03084572      -0.09954640
Ni       2.46921023       1.47252943       4.26513405        7       1.00000000      -0.04961663       0.01372353      -0.14547948
Pt       5.09040733       1.45519928       4.19849176        6       0.00000000      -0.01354695      -0.04030256      -0.27953787
Ni       7.65284589       1.44368545       4.27258176        7       1.00000000      -0.03111803      -0.08257906      -0.22738814
Ni       1.27941348       3.61358425       4.30848433        7       1.00000000       0.05843797      -0.02510591      -0.07432202
Ni       3.76708113       3.69437691       4.24071191        6       1.00000000      -0.01603160       0.09352039      -0.18189903
Pt       6.39403158       3.69468707       4.26992459        7       0.00000000       0.00834572       0.00302507      -0.04105033
Ni       8.97710237       3.65764457       4.24368952        6       1.00000000       0.05800194       0.04597798      -0.11650267
Ni       2.53203726       5.73793074       4.27586148        7       1.00000000      -0.03278493      -0.04548283      -0.15503108
Ni       5.09356418       5.78990666       4.26313475        7       1.00000000       0.00287134      -0.01638203      -0.16020576
Ni       7.61455892       5.81115461       4.24858155        6       1.00000000      -0.07704580       0.05234412      -0.11173149
Ni      10.26585278       5.75010766       4.27172435        7       1.00000000       0.05817773       0.02742089      -0.07150915
Pt       3.83738074       7.89488191       4.20815258        6       0.00000000       0.01143874       0.02639791       0.00245294
Ni       6.35645642       7.96705282       4.17725440        6       1.00000000      -0.09371760      -0.00660775      -0.19333833
Pt       8.84537174       7.95611491       4.15128829        6       0.00000000      -0.10037459       0.03038119      -0.13595116
Ni      11.51970153       7.94445173       4.19848941        6       1.00000000       0.03401025      -0.08635354      -0.15041098
Pt      -0.00701314      -0.10286493       6.52082555       10       0.00000000      -0.14228889       0.17178608       0.21812386
Pt       2.50272346      -0.03792719       6.50996178       10       0.00000000       0.18327392       0.12326813       0.26071796
Pt       5.10520351      -0.05749720       6.37535653        9       0.00000000      -0.07534471      -0.00696217       1.24600788
Pt       7.62991064      -0.08381059       6.47958927       10       0.00000000       0.08122230       0.18566235       0.38414849
Ni       1.25516673       2.20529684       6.40667502        9       1.00000000       0.04213848       0.02406072      -0.16638944
Pt       3.78299795       2.29068911       6.35272703        9       0.00000000      -0.12055269      -0.03029139       0.65094103
Ni       6.36776730       2.20376098       6.33964979        8       1.00000000       0.03523301      -0.00037106       0.33255661
Pt       8.92997497       2.26027522       6.28128137        8       0.00000000      -0.01537651      -0.19180363       0.80946920
Ni       2.51069405       4.38912307       6.38248994        9       1.00000000       0.05900624      -0.02992474      -0.34667331
Ni       5.09884853       4.39887493       6.39990362        9       1.00000000      -0.07327537       0.01073739      -0.22396762
Ni       7.58842221       4.34506094       6.39624185        9       1.00000000      -0.01785900      -0.03819587      -0.00496695
Ni      10.27988059       4.34136814       6.35029382        9       1.00000000       0.05249373      -0.00775806      -0.20592713
Ni       3.82216515       6.42062720       6.38655941        9       1.00000000      -0.01242309      -0.03037118      -0.25939294
Ni       6.34593695       6.45173299       6.35866508        9       1.00000000       0.01375819       0.04429924      -0.28032878
Pt       8.92626179       6.38374724       6.39956593        9       0.00000000       0.05747869       0.04384440       0.14231381
Ni      11.51448501       6.45721533       6.32802029        8       1.00000000      -0.02190518       0.09319378      -0.20052608
