64
Lattice="10.169468383104897 0.014540847122879218 -0.057782818759579614 5.097326934553463 8.779699743062803 -0.056728865825162386 0.0 0.0 21.456106436409584" Properties=species:S:1:pos:R:3:tags:I:1:initial_magmoms:R:1:forces:R:3 unique_id=cde3195d53c643b69739526ec701c6b5 energy=-369.5532472184151 stress="0.005327069494999084 6.351856217638865e-05 -0.0003429981059070147 6.351856217638865e-05 0.004862685152792628 -0.00022303723397026359 -0.0003429981059070147 -0.00022303723397026359 -0.0008525831548839395" pbc="T T T"
Ni       0.01808737      -0.01611601       0.14747900        1       1.00000000       0.05427009       0.11619611      -0.40370870
Ni       2.48502919       0.00103606       0.15463770        2       1.00000000      -0.00018077      -0.03130277      -0.01051866
Pt       5.13160729      -0.00799634       0.15041164        2       0.00000000      -0.10077079      -0.02108214      -0.60758148
Ni       7.64152855      -0.02845144       0.11505788        1       1.00000000       0.02593583      -0.07375720      -0.28912299
Ni       1.26415900       2.20783460       0.08323165        1       1.00000000      -0.05410065       0.01912974       0.36025819
Pt       3.77117210       2.26057067       0.14562240        1       0.00000000      -0.03358677       0.00991959      -0.49391091
Ni       6.35818989       2.23909788       0.05567433        1       1.00000000      -0.08021251       0.00394750       0.21885389
Pt       8.89946004       2.26259420       0.03874798        0       0.00000000       0.06513754       0.07080749      -0.65028989
Ni       2.51449898       4.42912256       0.05970723        1       1.00000000       0.04031296       0.00896827       0.43250610
Ni       5.09688810       4.42648698       0.13302904        1       1.00000000      -0.11013195       0.09446748      -0.07037773
Ni       7.57570167       4.39125783       0.03621725        0       1.00000000      -0.04962671       0.05247800       0.22134183
Ni      10.22482325       4.39769115       0.01754012        0       1.00000000       0.07510606       0.01570165       0.35499460
Ni       3.79397127       6.55801944       0.02052455        0       1.00000000      -0.07352551      -0.09326386       0.22810372
Ni       6.33629200       6.56634356       0.00000000        0       1.00000000       0.06382930      -0.07734439       0.08479812
Pt       8.87443044       6.52412004       0.09069507        1       0.00000000      -0.02444014      -0.00395001      -0.36045056
Ni      11.49139816       6.55225507       0.00439122        0       1.00000000      -0.05555592       0.00627167       0.34085695
Ni       1.30125421       0.76108150       2.17113522        4       1.00000000       0.01539575       0.13964448       0.18082834
Ni       3.74877134       0.70440097       2.17193662        4       1.00000000      -0.23014185      -0.13280289       0.09495680
Ni       6.35750701       0.74364386       2.15765402        4       1.00000000       0.07198113       0.02360514       0.04870221
Pt       8.87829557       0.77364792       2.15576849        4       0.00000000       0.14385658       0.11609008       0.02753248
Ni       2.49524365       2.94985982       2.20385588        4       1.00000000      -0.05182813       0.07936751       0.20692995
Ni       5.08928351       2.96252610       2.12913404        3       1.00000000      -0.04075393       0.08790386       0.00312999
Ni       7.59991420       2.97533475       2.12127132        3       1.00000000       0.04987101       0.04572669       0.07545834
Ni      10.21020741       2.98259008       2.14307942        3       1.00000000       0.09977610       0.08376091       0.17867533
Ni       3.77246629       5.08076965       2.13098845        3       1.00000000      -0.16173480      -0.09206997       0.13962010
Ni       6.38575903       5.09996256       2.08410110        3       1.00000000       0.18687243       0.02083042       0.01751608
Ni       8.90483692       5.09235017       2.15479979        4       1.00000000       0.09327869      -0.06179872       0.11126563
Ni      11.43691153       5.12230024       2.09209191        3       1.00000000      -0.03653926      -0.01286941       0.15126593
Pt       5.13161238       7.23317438       2.08371935        3       0.00000000      -0.02392365      -0.09618267      -0.01962093
Ni       7.64800780       7.32001163       2.15049567        4       1.00000000       0.08136854      -0.02474705       0.18097937
Ni      10.18507144       7.28254348       2.16817474        4       1.00000000       0.01086678      -0.11926417       0.20158516
Ni      12.65627789       7.26807469       2.05180923        3       1.00000000      -0.09183367      -0.17486936       0.07623964
Ni       0.03643739       1.49033554       4.26529204        7       1.00000000       0.18197874       0.03437912      -0.14725704
Ni       2.46378886       1.46744551       4.21119022        6       1.00000000      -0.03250061       0.01190547      -0.22713156
Pt       5.05025924       1.43938057       4.14239401        5       0.00000000      -0.08161641      -0.01549693       0.11253375
Ni       7.60589539       1.46937980       4.22633567        6       1.00000000      -0.03361070      -0.05148383      -0.15788497
Ni       1.25243112       3.65572949       4.27342447        7       1.00000000       0.04458044       0.00195902      -0.14828349
Ni       3.73474204       3.70281831       4.20441262        6       1.00000000      -0.07266866       0.10131918      -0.23084550
Pt       6.39095600       3.69980606       4.19567482        6       0.00000000       0.06518604       0.03433877       0.09287302
Ni       8.93895822       3.70863090       4.17690532        6       1.00000000       0.15243274       0.14606649      -0.23994974
Ni       2.49306298       5.78933652       4.26182294        7       1.00000000      -0.09365223      -0.14327718      -0.19215351
Ni       5.06911110       5.83898628       4.24476395        6       1.00000000       0.03769861      -0.08407073      -0.14153573
Ni       7.61520873       5.86744944       4.17124757        6       1.00000000       0.03520961       0.09977363      -0.24106075
Ni      10.18905869       5.82109591       4.16954474        6       1.00000000       0.10627854      -0.05773605      -0.24472402
Pt       3.77831632       7.96653141       4.22524469        6       0.00000000      -0.05400184      -0.09277592       0.15681042
Ni       6.38387370       8.02043306       4.19226561        6       1.00000000       0.08819978      -0.01178968      -0.20034265
Ni       8.86353901       8.00286835       4.14151683        5       1.00000000      -0.01312069      -0.00518294      -0.31003189
Ni      11.40955717       7.96854142       4.14146974        5       1.00000000      -0.09554900      -0.19342088      -0.20852994
Pt      -0.01400724      -0.04712024       6.45610644       11       0.00000000       0.01639205       0.21405772       0.27808252
Pt       2.50066488      -0.02449222       6.38145397       10       0.00000000       0.09077643       0.01015571       0.10591328
Pt       5.06742724      -0.04730280       6.32575340        9       0.00000000      -0.01940369      -0.14771131       0.69140925
Pt       7.58686167      -0.04345374       6.41513924       10       0.00000000      -0.06965802       0.13918368       0.39103935
Ni       1.23167448       2.24033969       6.37608661       10       1.00000000      -0.00939591       0.06028348      -0.23233559
Pt       3.72878651       2.26517664       6.31569641        9       0.00000000      -0.09430494       0.13824066       0.55331693
Ni       6.33845986       2.21339002       6.37627992       10       1.00000000      -0.04295197       0.01022426      -0.05285200
Pt       8.88696477       2.28766552       6.24007839        8       0.00000000       0.04137880      -0.06656233       0.61234940
Ni       2.46170584       4.41934347       6.36399598       10       1.00000000       0.05447973      -0.01076868      -0.34729028
Pt       5.07079167       4.45511671       6.41293253       10       0.00000000      -0.18388097      -0.03215768       0.06224243
Ni       7.59603362       4.38529640       6.36395753       10       1.00000000      -0.01037656      -0.01081184      -0.11025367
Ni      10.21266062       4.38427581       6.31845162        9       1.00000000       0.10738130      -0.02618178      -0.33974496
Ni       3.76078426       6.52854264       6.37415856       10       1.00000000      -0.12474917      -0.07117116      -0.10838656
Ni       6.33617534       6.55428997       6.33528246        9       1.00000000       0.06055038       0.02488623      -0.21332251
Pt       8.88659115       6.45289725       6.24193976        8       0.00000000       0.11765380      -0.02227377       0.32586336
Ni      11.45465985       6.50181163       6.30550045        9       1.00000000      -0.02770742       0.03658729      -0.31933431
