64
Lattice="10.623354928798072 0.012967974961176675 -0.0011531702609684268 5.322908060151053 9.219973039869444 -0.017996936508495362 -0.0009415595753082508 -0.01642406478672551 9.162334495292324" Properties=species:S:1:pos:R:3:tags:I:1:initial_magmoms:R:1:forces:R:3 unique_id=e6a31c19086a4917bc82e4deaff0999a stress="0.008489559033096075 2.4309677085322312e-05 -2.8882513053817677e-07 2.4309677085322312e-05 0.008537181218988492 -1.4566826670511334e-05 -2.8882513053817677e-07 -1.4566826670511334e-05 0.0067459088528552535" energy=-418.16955686500734 pbc="T T T"
Pt       0.03790934       0.00300764       0.00630787        4       0.00000000      -0.00605898       0.00275320      -0.12431503
Ni       2.67301174       0.01734087       0.13404457        4       1.00000000       0.02525911       0.01618259       0.30336163
Pt       5.24250947       0.02919811       0.03833336        4       0.00000000      -0.09607892       0.08456682      -0.03288340
Pt       7.93170505      -0.01150279       0.08775501        4       0.00000000      -0.06685119       0.01484625       0.03387496
Pt       1.38918499       2.27667215       0.00827419        4       0.00000000       0.07203172      -0.03972857      -0.17617740
Ni       3.97655425       2.28474756       0.13353215        4       1.00000000      -0.02056969      -0.01746308       0.31826086
Pt       6.60653748       2.29655272       0.00494911        4       0.00000000       0.00111003      -0.00820859      -0.06965409
Pt       9.31647617       2.32158500       0.02005968        4       0.00000000       0.02829938      -0.01348961      -0.10787511
Pt       2.64852988       4.60762332       0.11487909        4       0.00000000      -0.00336846      -0.00843010      -0.00342705
Pt       5.29995599       4.58182980       0.10864155        4       0.00000000      -0.00102924      -0.05242366       0.01672596
Pt       7.97444609       4.61643571       0.10204892        4       0.00000000       0.01686514      -0.04968442       0.05263045
Pt      10.66144276       4.64093435       0.04248965        4       0.00000000       0.02830663      -0.03949996      -0.09296065
Pt       3.96112281       6.90888691       0.08398556        4       0.00000000      -0.00684078       0.01071729      -0.00271068
Pt       6.67056230       6.93394207       0.10932948        4       0.00000000       0.02697667      -0.01986141       0.06343828
Pt       9.33472776       6.95003014      -0.00958732        4       0.00000000       0.03197315      -0.00028012      -0.12257984
Ni      11.94618517       6.92316401       0.11008622        4       1.00000000      -0.05432342       0.01580357       0.22203706
Pt       1.34944713       0.80129180       2.32237670        3       0.00000000      -0.02585224       0.04180213       0.05954837
Ni       3.97923310       0.77629487       2.28104769        3       1.00000000       0.01579981       0.02972678       0.08509687
Pt       6.61432222       0.77511819       2.38928358        3       0.00000000       0.03155891       0.00448761       0.10592226
Pt       9.32262841       0.84043685       2.38010804        3       0.00000000       0.03959386       0.13083609       0.03517975
Pt       2.63826033       3.07005634       2.32784686        3       0.00000000      -0.03643632       0.00056872       0.05851501
Pt       5.30902408       3.06755654       2.36738230        3       0.00000000       0.02423236      -0.02272079       0.13475803
Pt       7.97580660       3.10347926       2.43459119        3       0.00000000      -0.03065384       0.02138617       0.13896611
Ni      10.63677977       3.09386997       2.32816293        3       1.00000000       0.01336287      -0.00142570       0.04162615
Pt       3.97951230       5.34297402       2.34851088        3       0.00000000      -0.02527961      -0.01789893       0.04223990
Ni       6.65450675       5.36332306       2.30421936        3       1.00000000       0.04346101      -0.03694392       0.04322877
Pt       9.34768669       5.33469999       2.34421087        3       0.00000000       0.10496381      -0.06082970      -0.00409401
Ni      11.94251274       5.36590743       2.28712849        3       1.00000000      -0.03498311      -0.06367839       0.06204554
Pt       5.32581103       7.67030847       2.33101975        3       0.00000000      -0.01571339       0.05424562       0.05983521
Pt       8.00948412       7.70142391       2.30448106        3       0.00000000       0.05142763      -0.00364131       0.10220167
Pt      10.63822351       7.68201249       2.31204079        3       0.00000000      -0.01100275       0.01121971       0.06804954
Pt      13.24279535       7.66158531       2.31208028        3       0.00000000      -0.00043083       0.02243933       0.07816420
Ni      -0.03934638       1.56798612       4.60601126        2       1.00000000      -0.10376205       0.05268547       0.02676588
Pt       2.66365190       1.56995187       4.56404858        2       0.00000000       0.11669352       0.02945079       0.03906926
Pt       5.39077579       1.56553876       4.61322006        2       0.00000000       0.05156112       0.01676541       0.09040637
Ni       7.98883882       1.58895833       4.59483172        2       1.00000000       0.06596914       0.19034607       0.03555735
Pt       1.23241636       3.77972326       4.54941336        2       0.00000000      -0.14207360      -0.06525699      -0.08713645
Ni       3.99687971       3.81755112       4.56059650        2       1.00000000      -0.03892521      -0.05314287       0.02845836
Ni       6.67098452       3.80563349       4.55875675        2       1.00000000       0.08955118      -0.05880069      -0.00296278
Ni       9.29686365       3.77538413       4.57527141        2       1.00000000      -0.00480074      -0.18189059      -0.01837560
Pt       2.63142919       6.12734559       4.52572740        2       0.00000000      -0.06624499      -0.04973377       0.02375858
Pt       5.33834291       6.06327977       4.50945285        2       0.00000000       0.00910049      -0.04864246      -0.02207716
Pt       7.97905271       6.07263727       4.52371406        2       0.00000000      -0.01256742      -0.07879776      -0.10068906
Pt      10.62278872       6.11865227       4.58008070        2       0.00000000      -0.04864488      -0.01437860       0.02924108
Pt       3.96236456       8.53431498       4.55861620        2       0.00000000      -0.05800396       0.06902634      -0.02313488
Pt       6.62392260       8.49857147       4.56897989        2       0.00000000       0.01483245       0.07602266       0.03761552
Pt       9.35626566       8.46663522       4.58756717        2       0.00000000       0.00257835       0.05145755       0.02020252
Ni      11.96158237       8.46855653       4.56831046        2       1.00000000       0.00896878       0.00299121       0.01767861
Ni      -0.00106051       0.03852408       6.72872710        1       1.00000000      -0.02243558       0.16562830      -0.24726598
Pt       2.65751841       0.00875978       6.85279621        1       0.00000000      -0.03019781       0.02054901       0.16299312
Ni       5.31869230      -0.00252259       6.74354505        1       1.00000000       0.02098838       0.02293310      -0.15808211
Pt       7.93051164       0.10811771       6.70881795        1       0.00000000      -0.08315973       0.14729725      -0.02187215
Ni       1.28319474       2.28373193       6.72432938        1       1.00000000      -0.15390848      -0.05075559      -0.28360733
Pt       4.01328246       2.26250354       6.82534424        1       0.00000000       0.03487545      -0.01826331       0.19087400
Ni       6.66202985       2.29695800       6.71134462        1       1.00000000       0.09882175       0.09746040      -0.21451223
Ni       9.31995888       2.30020598       6.68986574        1       1.00000000       0.14190003      -0.03911622      -0.31617565
Pt       2.60708160       4.55782995       6.72970961        1       0.00000000      -0.06385794      -0.04882154      -0.06653328
Pt       5.34911181       4.54693141       6.70399966        1       0.00000000       0.05059859      -0.04955194      -0.05805219
Pt       8.05236513       4.52311631       6.69821141        1       0.00000000       0.11101251      -0.12275243      -0.02851274
Ni      10.61525878       4.58602997       6.72587539        1       1.00000000      -0.01269764      -0.09069300      -0.20054363
Pt       3.98786493       6.94814807       6.73317596        1       0.00000000      -0.03214706       0.07807582      -0.06187113
Pt       6.68285332       6.91704435       6.74412390        1       0.00000000       0.05932289      -0.08498089      -0.02584463
Ni       9.31029315       6.90462129       6.72627435        1       1.00000000      -0.06215939      -0.05075428      -0.24778874
Pt      11.87668157       6.94479293       6.80407874        1       0.00000000      -0.06093743       0.08026992       0.09338773
