64
Lattice="10.375055418002106 0.007700517058117745 0.030408293571136835 5.19419655239566 8.937766037228835 -0.005791958026443141 0.02482826773267996 -0.019795317454769236 8.832118513237026" Properties=species:S:1:pos:R:3:tags:I:1:initial_magmoms:R:1:forces:R:3 unique_id=1ae8ab37cc1248c0b123bada607c0216 stress="0.00028988629246055886 3.602361071925279e-06 -1.944947989795143e-05 3.602361071925279e-06 0.00029341701695864697 7.908001638240538e-06 -1.944947989795143e-05 7.908001638240538e-06 0.00028068296168348716" energy=-400.1435751427548 pbc="T T T"
Ni      -0.01567802       0.02167657       0.20061579        4       1.00000000      -0.06782001       0.10026918       0.32506950
Ni       2.59654948       0.00311194       0.21496727        4       1.00000000       0.03741245      -0.00619214       0.40076774
Ni       5.19183905      -0.01005094       0.17848187        4       1.00000000       0.00756368       0.14988783       0.26060133
Ni       7.80709421      -0.02777088       0.13599863        4       1.00000000       0.09903232      -0.11492496       0.22827046
Ni       1.28770741       2.22456627       0.17741999        4       1.00000000      -0.01748489      -0.08744255       0.31305198
Pt       3.84386521       2.23528939       0.19964284        4       0.00000000      -0.02133465       0.03486008       0.14483691
Pt       6.52107338       2.17687987       0.21131819        4       0.00000000       0.08477925      -0.10646292       0.17237438
Ni       9.10172886       2.20461587       0.16948872        4       1.00000000       0.01124896      -0.19625984       0.11145814
Ni       2.58510378       4.48254806       0.06238394        4       1.00000000      -0.01251441       0.00384783      -0.01037200
Ni       5.18920428       4.47123643       0.16434006        4       1.00000000       0.19285709      -0.10305813       0.22168211
Pt       7.86015616       4.48123931       0.12061464        4       0.00000000       0.16974932      -0.03355222      -0.09514586
Ni      10.40569190       4.48414129       0.07823808        4       1.00000000       0.10328646      -0.01043438       0.00888882
Ni       3.86866681       6.72857454       0.16930302        4       1.00000000      -0.02887790       0.14733900       0.22103822
Pt       6.47534320       6.75576810       0.20676974        4       0.00000000      -0.03361946       0.03638166       0.11992951
Ni       9.10927689       6.71876990       0.08849230        4       1.00000000       0.00894269       0.02105338       0.01578391
Ni      11.69323368       6.71779223       0.07768227        4       1.00000000       0.12570199       0.07198661      -0.05691957
Ni       1.29852044       0.72452689       2.17065088        3       1.00000000      -0.06613479      -0.00887795      -0.08568124
Ni       3.89502824       0.74654845       2.22611296        3       1.00000000       0.08202983       0.01035616       0.01751063
Ni       6.51594622       0.74824179       2.26858543        3       1.00000000       0.09217239       0.02712315       0.15472695
Ni       9.06183175       0.73258938       2.21660308        3       1.00000000      -0.14753113       0.01234949      -0.07306826
Ni       2.59727959       2.96733181       2.22296741        3       1.00000000      -0.08595934       0.10898906      -0.03252055
Ni       5.20011298       2.95468798       2.26488961        3       1.00000000      -0.04961386      -0.15474266       0.05476091
Ni       7.79722416       2.96092363       2.25902321        3       1.00000000       0.08666086      -0.10975578      -0.06171865
Pt      10.33064041       2.92264831       2.22584699        3       0.00000000      -0.08134598       0.01822605       0.08923075
Pt       3.92052316       5.19283080       2.16956904        3       0.00000000      -0.04521117      -0.05891290       0.00107510
Ni       6.53213399       5.20064896       2.23347901        3       1.00000000       0.14746257       0.01590439      -0.05539149
Ni       9.05751731       5.21834811       2.26893110        3       1.00000000      -0.03300416       0.00163352       0.17037782
Pt      11.67412710       5.22848862       2.19104288        3       0.00000000      -0.07913904       0.02392715      -0.06680678
Ni       5.17862165       7.48817310       2.19149295        3       1.00000000      -0.13534160       0.07800064      -0.09387347
Ni       7.79639941       7.44556640       2.21814505        3       1.00000000       0.04925681      -0.08527117      -0.00990088
Pt      10.36114337       7.47083597       2.14213190        3       0.00000000       0.00250487      -0.05912972      -0.03918055
Ni      12.99732874       7.48735834       2.19482919        3       1.00000000      -0.04098778       0.04939249      -0.10849299
Ni      -0.01975291       1.51187793       4.35813541        2       1.00000000      -0.02563733       0.10677793      -0.07046005
Pt       2.62498877       1.52446558       4.25979382        2       0.00000000      -0.00690691       0.07600103      -0.00857832
Ni       5.22011144       1.49246337       4.34299944        2       1.00000000       0.03249508      -0.02753230      -0.21229533
Ni       7.81691747       1.49748034       4.35063347        2       1.00000000       0.07691322       0.06023976      -0.25719775
Pt       1.28107176       3.79146850       4.40444405        2       0.00000000      -0.01536367      -0.01084568       0.02894901
Ni       3.90420829       3.72420463       4.36140181        2       1.00000000       0.01928948      -0.00007668      -0.14707007
Pt       6.55974309       3.68545592       4.28996861        2       0.00000000      -0.01398095      -0.06773613       0.05606074
Ni       9.09216054       3.74504143       4.39937467        2       1.00000000       0.03728740       0.07332444      -0.18459188
Ni       2.58494736       5.93591154       4.39859965        2       1.00000000      -0.01434649       0.05926516      -0.12919125
Pt       5.18970900       5.92185640       4.31663106        2       0.00000000       0.04343390       0.03278522       0.04792884
Ni       7.86008659       5.90081200       4.36940454        2       1.00000000       0.08349273      -0.10458979      -0.21163467
Ni      10.36371904       5.93113024       4.44612533        2       1.00000000      -0.07757002       0.02354019      -0.10647463
Pt       3.88161654       8.23925068       4.28614807        2       0.00000000       0.01609669       0.04142231      -0.05188583
Pt       6.49788114       8.19737248       4.26348413        2       0.00000000       0.00377333       0.03577477      -0.00492323
Pt       9.10415772       8.12136069       4.35910765        2       0.00000000      -0.05940678       0.01786277       0.08780923
Pt      11.71119223       8.17940802       4.37269094        2       0.00000000      -0.02810756      -0.01728235      -0.05729362
Pt      -0.03209877      -0.00923008       6.60855412        1       0.00000000      -0.05161548       0.00426443       0.18402454
Pt       2.63368586      -0.03974585       6.63964515        1       0.00000000      -0.02761360      -0.01031016       0.21733193
Pt       5.25859711      -0.11182633       6.63291463        1       0.00000000       0.03641935      -0.26814981       0.14135261
Ni       7.78748319      -0.01887017       6.58566486        1       1.00000000       0.01108044       0.03962331      -0.13458392
Pt       1.29460580       2.30698087       6.61377706        1       0.00000000      -0.00142794       0.12257961       0.19229601
Pt       3.90333189       2.24981030       6.49418794        1       0.00000000      -0.02650241      -0.04494156      -0.25383167
Pt       6.53685104       2.19183134       6.50074628        1       0.00000000       0.00490908      -0.02857805      -0.22868678
Pt       9.08510044       2.30070572       6.55007204        1       0.00000000       0.00907603       0.14259473      -0.02914049
Ni       2.56545021       4.49223380       6.54463711        1       1.00000000      -0.12869447       0.07628970      -0.18633660
Pt       5.19327740       4.46026454       6.59318967        1       0.00000000      -0.03986328       0.01946957       0.03066993
Ni       7.85669068       4.47967118       6.47932118        1       1.00000000       0.09271750       0.05062325      -0.29725702
Ni      10.37871824       4.53721171       6.56329745        1       1.00000000      -0.08849018       0.19587716      -0.15756986
Pt       3.77757052       6.68230191       6.59762713        1       0.00000000      -0.16113567       0.05168518       0.14196955
Pt       6.58132590       6.63446069       6.51340173        1       0.00000000       0.06780069       0.01483730      -0.19597640
Ni       9.14378396       6.61757947       6.55425703        1       1.00000000       0.05775965      -0.18334570      -0.20137751
Ni      11.66234557       6.63609850       6.56817447        1       1.00000000      -0.18062318      -0.25795997      -0.24439843
