64
Lattice="10.469799806800163 -0.010584743435372395 0.0594482212762023 5.2257332466925055 9.127398310542118 0.014839056270795235 0.0 0.0 21.734433479487762" Properties=species:S:1:pos:R:3:tags:I:1:initial_magmoms:R:1:forces:R:3 unique_id=755caa8960e34917b0618c0041a59aa6 energy=-386.61695153871045 stress="0.005394520451094738 -9.568047230116174e-05 3.019799987599941e-05 -9.568047230116174e-05 0.005344468860120258 8.716274206999905e-05 3.019799987599941e-05 8.716274206999905e-05 -0.0007548128122326723" pbc="T T T"
Ni       0.01907562      -0.00679554       0.10544765        1       1.00000000      -0.01533573      -0.09070490       0.15099698
Pt       2.53995682       0.01014522       0.00000000        0       0.00000000       0.03656378       0.02363012      -0.02790885
Pt       5.21342328       0.02280938       0.05098450        1       0.00000000      -0.21420770       0.08544683      -0.15464178
Pt       7.86886443      -0.03304877       0.15304120        2       0.00000000      -0.04562261      -0.10261066      -0.49055017
Ni       1.31911914       2.28053988       0.01919596        0       1.00000000       0.00003075       0.01399574       0.31035397
Pt       3.84768390       2.32228558       0.07033157        1       0.00000000      -0.13640842      -0.02765226       0.41674046
Pt       6.52928180       2.28149979       0.10858377        1       0.00000000       0.02053746       0.06025556       0.15887935
Pt       9.21711501       2.24486031       0.14391709        1       0.00000000      -0.12284484       0.01325560      -0.54733711
Ni       2.62277618       4.54313738       0.03282788        0       1.00000000       0.05437313       0.00268586       0.31599821
Pt       5.19534494       4.58094358       0.10433421        1       0.00000000      -0.06152931       0.00812207       0.39116467
Pt       7.80844095       4.56759186       0.14803832        1       0.00000000      -0.02104388      -0.07527631      -0.49095678
Pt      10.54880811       4.51173713       0.11362351        1       0.00000000      -0.04297666      -0.00061123      -0.64830609
Pt       3.97768294       6.84530722       0.17352550        2       0.00000000       0.03763825       0.07394773      -0.08621735
Ni       6.51985217       6.85530261       0.12924488        1       1.00000000      -0.06243330      -0.01295986       0.15559910
Pt       9.12646069       6.84278074       0.11358376        1       0.00000000       0.04046777      -0.05867869      -0.82844934
Pt      11.81673238       6.80452486       0.05953802        1       0.00000000       0.12647372       0.03063216      -0.23077388
Pt       1.35525495       0.76633306       2.25161364        3       0.00000000       0.21307581       0.11071625       0.07754222
Ni       3.96148280       0.80308364       2.28562883        3       1.00000000       0.12784620       0.22862252       0.26831608
Ni       6.52835428       0.79768261       2.30379090        3       1.00000000      -0.17019088       0.27859623       0.29631689
Pt       9.14388731       0.69703343       2.32349804        3       0.00000000      -0.03931817      -0.07387329       0.13258855
Ni       2.67475598       3.04436235       2.26962155        3       1.00000000       0.35195521       0.02001434       0.23285022
Ni       5.23834124       3.04422405       2.31925468        3       1.00000000      -0.02896046       0.04602980       0.49381649
Ni       7.79699306       3.02274669       2.30489879        3       1.00000000      -0.31349952      -0.03300879       0.34709159
Pt      10.53475367       3.01565429       2.33628744        3       0.00000000       0.23507465      -0.00258599       0.19328496
Ni       3.97990671       5.29988923       2.28823784        3       1.00000000       0.32960808      -0.19987418       0.39564538
Ni       6.47942804       5.29837777       2.30233442        3       1.00000000      -0.38354549      -0.15514163       0.38236617
Pt       9.12160051       5.29028066       2.31942649        3       0.00000000       0.02914798       0.01005643       0.12040898
Pt      11.91900825       5.28317396       2.32184692        3       0.00000000       0.40879148      -0.01401410      -0.00234286
Ni       5.23243417       7.56079973       2.26618080        3       1.00000000      -0.02682956      -0.21076483       0.32967517
Pt       7.76296295       7.59441821       2.29925902        3       0.00000000      -0.12181804      -0.01025511       0.11509069
Pt      10.51645168       7.67156356       2.31822022        3       0.00000000       0.06165551       0.11997732       0.06673750
Ni      13.11821118       7.58185078       2.32585204        3       1.00000000       0.05340173      -0.09184803       0.42667999
Pt       0.08568476       1.51553021       4.48678553        5       0.00000000       0.06668163      -0.01147329      -0.00082730
Pt       2.70909634       1.60866239       4.53497834        5       0.00000000       0.17324529       0.34485735      -0.18230549
Ni       5.24532275       1.56344714       4.51219143        5       1.00000000      -0.08292167       0.31526336      -0.28058043
Pt       7.75980204       1.57103611       4.47679924        5       0.00000000      -0.25273207       0.14613680      -0.29403007
Ni       1.38126316       3.78220468       4.49323941        5       1.00000000       0.20690572      -0.03134157      -0.17944504
Ni       3.98720196       3.78682539       4.50770326        5       1.00000000       0.31569268       0.03156121      -0.22310219
Ni       6.48161240       3.78318785       4.49076494        5       1.00000000      -0.46511039       0.01934349      -0.38303175
Pt       9.14991536       3.78370062       4.48658807        5       0.00000000      -0.15942642       0.03605121      -0.22615669
Pt       2.70618119       5.97054979       4.46811827        5       0.00000000       0.21494489      -0.24837731      -0.10510543
Ni       5.25261081       6.02768168       4.47233784        5       1.00000000      -0.04930544      -0.33744365      -0.40384169
Pt       7.74199799       6.06845580       4.46615581        5       0.00000000      -0.27098864      -0.05530002      -0.16538610
Pt      10.51880615       6.06211815       4.52179747        5       0.00000000      -0.01529484       0.02763577      -0.28785778
Pt       4.00883707       8.29799517       4.42490231        4       0.00000000       0.13062357      -0.22113594      -0.21622034
Ni       6.55905731       8.35227478       4.50951050        5       1.00000000       0.01435571       0.02381782      -0.22764385
Pt       9.14505621       8.44580438       4.53228385        5       0.00000000      -0.12423359       0.23563449      -0.30021371
Pt      11.78471102       8.38019879       4.52073156        5       0.00000000       0.08281906      -0.04945918      -0.24878755
Pt       0.10873240       0.01959470       6.73359441        7       0.00000000       0.00059603      -0.05888584       0.21338018
Ni       2.66836622       0.02853534       6.65378447        7       1.00000000       0.05537269       0.13485552      -0.09616388
Ni       5.24825902       0.02299705       6.67210946        7       1.00000000      -0.11447885       0.29237012      -0.18550200
Pt       7.81221188      -0.02049184       6.71346741        7       0.00000000       0.02130207      -0.00045865       0.55330329
Ni       1.39480119       2.28552488       6.71379209        7       1.00000000       0.17532767       0.10193492      -0.37947875
Ni       3.95883529       2.28736345       6.64978865        6       1.00000000       0.18957179       0.13337838      -0.41280465
Ni       6.51324528       2.27016260       6.67203966        7       1.00000000      -0.33895704       0.01956827      -0.27759610
Pt       9.18927461       2.26291620       6.72025655        7       0.00000000      -0.08775977       0.00795139       0.80162745
Ni       2.66454923       4.51435199       6.70173433        7       1.00000000       0.17306159      -0.26962429      -0.50950155
Ni       5.23312016       4.50892779       6.64788292        6       1.00000000      -0.17191530      -0.21394115      -0.43622118
Pt       7.79606375       4.51295852       6.68399448        7       0.00000000      -0.13988994      -0.09497300       0.42196930
Pt      10.61315644       4.52785400       6.69628749        7       0.00000000       0.14334735      -0.08586165       0.62108898
Pt       3.92322173       6.74752115       6.68179917        7       0.00000000       0.00982769      -0.10261179       0.32964449
Pt       6.55387013       6.84359623       6.73443348        7       0.00000000      -0.05987659       0.00476570       0.13540763
Pt       9.22416217       6.89489417       6.70181395        7       0.00000000      -0.00679536      -0.05655123       0.68828099
Ni      11.80719758       6.82483411       6.70389902        7       1.00000000       0.04593355      -0.00381193      -0.01355820
