64
Lattice="10.421660356675176 0.00040627066341452413 0.09145339524257073 5.211182019052916 9.067718105052911 0.01989788130479766 0.07467138452979162 -0.024351641556547145 9.007664756797471" Properties=species:S:1:pos:R:3:tags:I:1:initial_magmoms:R:1:forces:R:3 unique_id=3ceb4b0507724f43ac7bddd3b510661b stress="-0.00029868290367753014 -3.105733702296643e-06 -2.5478492056546837e-06 -3.105733702296643e-06 -0.0003036585137959763 5.09470149235951e-06 -2.5478492056546837e-06 5.09470149235951e-06 -0.0002485338611073473" energy=-406.6082366370673 pbc="T T T"
Pt      -0.07875898       0.01754624       0.15576143        4       0.00000000      -0.08669986      -0.01445616      -0.09492219
Ni       2.63777064      -0.02806962       0.09923437        4       1.00000000       0.10502037      -0.09460940       0.06636046
Ni       5.24121770      -0.04469905       0.19666876        4       1.00000000       0.11363655      -0.00858585       0.14912359
Ni       7.80497849      -0.04511879       0.18299559        4       1.00000000      -0.07705372      -0.13403599       0.14406452
Ni       1.29614130       2.26029191       0.15989503        4       1.00000000       0.08420450      -0.04062458       0.12334816
Pt       3.91334050       2.22670730       0.13489478        4       0.00000000       0.07315639      -0.01203207      -0.11455045
Pt       6.56615707       2.18682102       0.19823708        4       0.00000000       0.07353918      -0.09012763      -0.03500284
Ni       9.13628582       2.26319606       0.15046158        4       1.00000000       0.00484049      -0.02232299       0.03061322
Pt       2.59357092       4.58758927       0.10904437        4       0.00000000       0.08936324       0.02896262      -0.17482742
Ni       5.24304324       4.52945880       0.18318566        4       1.00000000       0.19810347      -0.10276164       0.11842009
Pt       7.89854315       4.54188697       0.21021090        4       0.00000000       0.10076990      -0.02011112      -0.01725117
Ni      10.42936973       4.55452137       0.13833745        4       1.00000000       0.07125144       0.09585716       0.00050432
Ni       3.89317237       6.83117091       0.19703149        4       1.00000000       0.00295743       0.06817500       0.15396588
Pt       6.53831560       6.81370258       0.24910190        4       0.00000000       0.04725048      -0.01328385       0.04617861
Ni       9.16082587       6.81244491       0.14116179        4       1.00000000       0.06434660      -0.01145577       0.03800329
Ni      11.72512071       6.83646771       0.14578995        4       1.00000000       0.06598214       0.06498078      -0.02330335
Pt       1.31631982       0.68553486       2.23603711        3       0.00000000       0.05423472      -0.00329977       0.02367126
Pt       4.00729058       0.73544211       2.30671860        3       0.00000000       0.03823065       0.03868386       0.10420811
Ni       6.57471967       0.73010832       2.33478016        3       1.00000000       0.05089431      -0.03327089       0.02573166
Ni       9.06582871       0.73068503       2.33360820        3       1.00000000      -0.13106586       0.04514884      -0.00898628
Pt       2.65895405       3.04271368       2.31152671        3       0.00000000      -0.01120237       0.03656836       0.07483172
Ni       5.25475342       3.02671641       2.35740245        3       1.00000000       0.01909748       0.02159162       0.08920087
Pt       7.77198119       3.00696154       2.44100093        3       0.00000000      -0.05931666       0.01128973      -0.01475787
Pt      10.36341312       3.02552002       2.26496245        3       0.00000000      -0.05108291       0.02322421      -0.03121770
Pt       4.02095050       5.32587418       2.24631272        3       0.00000000       0.08903791       0.03343800       0.04394019
Ni       6.58287288       5.28579171       2.33133574        3       1.00000000       0.11895453      -0.00686226       0.05916541
Ni       9.09594156       5.31473941       2.36730117        3       1.00000000      -0.04058937       0.02591051       0.08309920
Pt      11.68630626       5.34094390       2.33276914        3       0.00000000      -0.02414765      -0.00217330      -0.00704274
Ni       5.21373664       7.55115066       2.28052473        3       1.00000000       0.00041796       0.02508949       0.02547285
Ni       7.84903219       7.49124915       2.31882100        3       1.00000000       0.06755823      -0.07297209       0.07515930
Pt      10.43272717       7.53930584       2.24785657        3       0.00000000      -0.02032208      -0.00247366       0.05836581
Ni      13.06213979       7.60605487       2.30470698        3       1.00000000      -0.02650623       0.04284963      -0.05219022
Pt      -0.08390665       1.56641286       4.45097387        2       0.00000000      -0.08112168       0.06522851      -0.08760804
Pt       2.66979766       1.50524636       4.49889470        2       0.00000000      -0.15266401      -0.01258294      -0.02574282
Ni       5.29693072       1.54522172       4.47134998        2       1.00000000       0.04117027       0.08180742      -0.14769306
Ni       7.82299080       1.52872593       4.50809194        2       1.00000000      -0.05914041       0.00142259      -0.11255506
Pt       1.24238614       3.81633892       4.48720700        2       0.00000000      -0.12578817      -0.00623531      -0.06879443
Ni       4.00167942       3.74473006       4.48023610        2       1.00000000       0.05193207      -0.01449824      -0.07809478
Ni       6.55975752       3.73606866       4.50657380        2       1.00000000      -0.03237994      -0.03129154       0.03905483
Ni       9.11057156       3.80769288       4.51893723        2       1.00000000      -0.09421631       0.06901362      -0.17479706
Pt       2.60517249       6.05507283       4.45536736        2       0.00000000      -0.00939637       0.06778712      -0.08160726
Pt       5.32478428       5.94959282       4.44299313        2       0.00000000       0.01361017      -0.05259107       0.04062067
Ni       7.90812899       5.97185322       4.47509121        2       1.00000000       0.02708285      -0.11143706      -0.13972878
Ni      10.39838914       6.01325124       4.59827056        2       1.00000000      -0.06450197      -0.01090335      -0.01537800
Pt       3.91786046       8.32663236       4.38925127        2       0.00000000      -0.02287039      -0.04650863      -0.08922947
Pt       6.57060652       8.25507774       4.45511769        2       0.00000000      -0.01277695      -0.01523005      -0.06362730
Pt       9.16257907       8.20906578       4.56393710        2       0.00000000      -0.03862407      -0.01484643       0.01987322
Pt      11.74963595       8.37063024       4.52644239        2       0.00000000      -0.03518830       0.05360184      -0.02741443
Pt      -0.00027568       0.01977685       6.65638178        1       0.00000000      -0.08077340       0.02341385      -0.00697876
Ni       2.66589863      -0.02586235       6.71914281        1       1.00000000      -0.04697755       0.04702719      -0.06713331
Pt       5.25883423      -0.11347975       6.80993305        1       0.00000000      -0.05118004      -0.05854497       0.15222979
Ni       7.85000385      -0.01316890       6.75715028        1       1.00000000      -0.06124427      -0.02756020      -0.09028977
Pt       1.27850007       2.27213405       6.77083921        1       0.00000000      -0.09595979       0.07476142       0.15369232
Pt       3.97142967       2.21211910       6.62375108        1       0.00000000       0.05156121       0.00817392       0.00819890
Pt       6.64267802       2.19501804       6.62053050        1       0.00000000      -0.02207013      -0.04107204      -0.01734018
Ni       9.16319023       2.26220519       6.76172937        1       1.00000000      -0.03829696       0.04371943      -0.07687783
Pt       2.58618020       4.54892055       6.63389803        1       0.00000000       0.02700925      -0.01286456      -0.01657922
Pt       5.28387259       4.51029184       6.72002574        1       0.00000000       0.00719790       0.01602876       0.10802869
Pt       7.98152481       4.51920090       6.62865493        1       0.00000000      -0.00776855       0.00350448      -0.01690820
Ni      10.45244916       4.56274245       6.75528524        1       1.00000000      -0.01643183       0.11571271      -0.07937945
Pt       3.88052324       6.83806608       6.77486023        1       0.00000000      -0.08150817       0.02941517       0.14524347
Pt       6.65988482       6.81438665       6.69518233        1       0.00000000       0.05643050       0.03925754       0.06461815
Ni       9.21501164       6.75925967       6.73995023        1       1.00000000       0.05764005      -0.09858514      -0.06999370
Ni      11.72192707       6.77548480       6.77224941        1       1.00000000      -0.10761628      -0.06143484      -0.13718540
