64
Lattice="10.316770125146673 0.00608251791258436 -0.006849522744534594 5.163652677604608 8.870731288971431 -0.029665170010819333 0.0 0.0 21.566315193537008" Properties=species:S:1:pos:R:3:tags:I:1:initial_magmoms:R:1:forces:R:3 unique_id=85617d5e272d4198a7d1e2d27141103f energy=-375.0050231345789 stress="0.005658904017677499 0.000144680365604336 5.5340532536478845e-05 0.000144680365604336 0.005728215073204227 -0.00016223064689147322 5.5340532536478845e-05 -0.00016223064689147322 -0.0016287971828087746" pbc="T T T"
Ni       0.00959502      -0.00568590       0.14681952        1       1.00000000       0.06836782      -0.01649976      -0.16461282
Ni       2.57680634       0.00421565       0.17343760        2       1.00000000      -0.00709727       0.02250149      -0.14336402
Ni       5.15115895      -0.01445453       0.12318962        1       1.00000000      -0.04301722       0.19618066      -0.38238088
Ni       7.73160501      -0.05829513       0.14322225        1       1.00000000      -0.07656874      -0.09380241      -0.17191661
Ni       1.30016993       2.22366938       0.06130731        1       1.00000000       0.01897607       0.01745513       0.38033892
Pt       3.80406575       2.23059165       0.14573724        1       0.00000000       0.05389918       0.00891378      -0.48373621
Pt       6.43334201       2.17771246       0.06670508        1       0.00000000       0.04775087      -0.02259621      -0.02873939
Pt       9.11493736       2.22174346       0.06952728        1       0.00000000      -0.03488143       0.07468120      -0.49652001
Ni       2.57578062       4.46337149       0.02018317        0       1.00000000       0.10616865       0.00919355       0.28757751
Ni       5.12278765       4.45964726       0.13172524        1       1.00000000      -0.09213281       0.05809291       0.09296576
Pt       7.77832078       4.48754022       0.04844851        0       0.00000000       0.00220229       0.01487688      -0.02207201
Ni      10.36466283       4.46798473       0.01465374        0       1.00000000       0.05856763       0.01419441       0.22601034
Ni       3.83435307       6.64698030       0.05229540        1       1.00000000      -0.03244770      -0.03826714       0.45396105
Pt       6.41338227       6.70446085       0.12812753        1       0.00000000      -0.06010105       0.04021844      -0.48477089
Ni       9.05470765       6.67352225       0.01037996        0       1.00000000      -0.11946325       0.01119509       0.08133107
Ni      11.63358246       6.65099968       0.00000000        0       1.00000000       0.12458073       0.02157612       0.21025374
Ni       1.30212987       0.75330422       2.12150852        4       1.00000000      -0.01300824       0.11286141      -0.05287652
Ni       3.85942319       0.75081853       2.16939446        5       1.00000000       0.06061394       0.03000950       0.18124253
Ni       6.43470294       0.76707644       2.18317890        5       1.00000000      -0.04913743       0.19574398       0.22334280
Pt       9.03046531       0.73289000       2.20010102        5       0.00000000      -0.01489496       0.10616040       0.04914223
Ni       2.57468716       2.95936063       2.17749349        5       1.00000000       0.03514060       0.09427803       0.06425207
Ni       5.14524923       2.97163975       2.19911795        5       1.00000000      -0.08569970       0.03518407       0.19086024
Ni       7.73758294       2.97452382       2.19798911        5       1.00000000       0.05655926       0.02773084       0.16053098
Ni      10.33948256       2.95876459       2.19919659        5       1.00000000       0.03965271      -0.03242480       0.19456390
Ni       3.90162421       5.16462897       2.16167114        5       1.00000000       0.09303780      -0.07215588       0.11663850
Ni       6.43073380       5.16951342       2.18501979        5       1.00000000      -0.04269314       0.01446455       0.14824895
Ni       9.00655374       5.15176711       2.17496937        5       1.00000000      -0.05347951      -0.15579080       0.17548688
Pt      11.65984707       5.11982901       2.11814057        4       0.00000000       0.08351034      -0.05096043       0.04153649
Ni       5.13176171       7.34482799       2.14374575        4       1.00000000      -0.19311140      -0.20527297       0.06557640
Ni       7.73797189       7.38076073       2.13464916        4       1.00000000       0.05117733      -0.11079096       0.04494529
Pt      10.30332097       7.39472386       2.04537262        3       0.00000000       0.03919651      -0.15338988      -0.10969267
Ni      12.92496909       7.35775342       2.09496245        4       1.00000000       0.08680171      -0.13515264      -0.00329814
Ni      -0.00471894       1.52599447       4.29758510        7       1.00000000      -0.00974095       0.06179219      -0.18942899
Pt       2.53860914       1.56501027       4.21750292        6       0.00000000       0.00449587      -0.00733417      -0.02723108
Ni       5.17280689       1.50304674       4.28550055        7       1.00000000      -0.05444343       0.05006297      -0.29401841
Ni       7.73376013       1.50039626       4.29348913        7       1.00000000      -0.01538734      -0.05273700      -0.27116067
Ni       1.28826344       3.68170077       4.34361074        7       1.00000000       0.00358724      -0.00947853      -0.06339232
Ni       3.85332210       3.74133376       4.26572466        7       1.00000000      -0.02247316       0.07294928      -0.30979711
Pt       6.46337536       3.68367759       4.24678149        6       0.00000000      -0.06299025       0.02289481      -0.01921839
Ni       9.03055460       3.67827301       4.25839310        7       1.00000000       0.00056744      -0.10896672      -0.42505409
Ni       2.60639568       5.83757952       4.33660624        7       1.00000000       0.02958375      -0.18231606      -0.05169126
Ni       5.12740611       5.85795772       4.25872218        7       1.00000000      -0.02759935      -0.14622565      -0.34287529
Ni       7.74771105       5.85355693       4.27293581        7       1.00000000      -0.00673969      -0.06614434      -0.33512484
Pt      10.31744124       5.80159043       4.36514751        8       0.00000000       0.06803159       0.00109147      -0.03108832
Pt       3.87052326       8.05166854       4.27426360        7       0.00000000       0.02229624      -0.13263607       0.07350511
Pt       6.43218879       8.09020612       4.16617082        6       0.00000000      -0.07447149       0.01019835      -0.22001934
Pt       9.01323322       8.11374770       4.25489926        7       0.00000000      -0.06965558       0.06548472      -0.03823479
Pt      11.62778019       8.13427155       4.22783060        6       0.00000000       0.03410185      -0.02009841      -0.07124220
Pt      -0.00256798       0.00462864       6.53655998       11       0.00000000      -0.01405809       0.21287536       0.29548286
Pt       2.57251913      -0.01092852       6.56631519       12       0.00000000       0.06445266       0.04124640       0.40417526
Pt       5.16797428      -0.05699445       6.54090290       11       0.00000000      -0.03420972       0.14208859       0.45686371
Pt       7.72691580      -0.04384824       6.54815987       11       0.00000000       0.03837065       0.19696288       0.35100276
Ni       1.27353739       2.27272773       6.46121545       11       1.00000000      -0.06062107       0.14963153      -0.26363790
Pt       3.83730250       2.25754678       6.41279577       10       0.00000000       0.08775156       0.00776355       0.52339558
Ni       6.46023192       2.22014984       6.38801133       10       1.00000000      -0.02814922      -0.03507121       0.06828346
Pt       9.03149605       2.30920362       6.34963812        9       0.00000000       0.01853578      -0.05332952       0.55456304
Ni       2.52286368       4.45334468       6.44478296       10       1.00000000      -0.06922062      -0.00650908      -0.37453150
Pt       5.12021490       4.43831070       6.47428211       11       0.00000000      -0.03881480       0.01877574       0.02400405
Ni       7.77179550       4.43064995       6.37747624       10       1.00000000       0.03070995       0.10647605      -0.02987197
Ni      10.34637748       4.43629059       6.46710872       11       1.00000000       0.05315897      -0.07083063      -0.18941483
Ni       3.81923842       6.59262992       6.45819219       11       1.00000000      -0.07431108      -0.05946396      -0.22432722
Pt       6.48686218       6.58173445       6.39333814       10       0.00000000       0.03932817      -0.11440773       0.45607837
Ni       9.05788894       6.56931718       6.46730460       11       1.00000000      -0.00559968      -0.11565722      -0.09216112
Ni      11.61946947       6.57174327       6.47218682       11       1.00000000       0.06504421       0.00250392      -0.18865804
