64
Lattice="10.15022269072486 -0.01334644501353909 -0.001868307947738494 5.06355298493055 8.787467097249852 0.012241459335869917 0.0 0.0 21.45709951390662" Properties=species:S:1:pos:R:3:tags:I:1:initial_magmoms:R:1:forces:R:3 unique_id=e62a1c2d65174158bff7016fcd1ca623 energy=-368.02779550123904 stress="0.001658125917929583 2.5644293459532764e-05 -2.7123139514365502e-05 2.5644293459532764e-05 0.0017712739963234997 1.6441516622906005e-06 -2.7123139514365502e-05 1.6441516622906005e-06 -0.005096025820967137" pbc="T T T"
Ni       0.03067356       0.02704591       0.10138720        1       1.00000000       0.11140982       0.06879736      -0.85563548
Ni       2.53301699      -0.03679314       0.16273031        2       1.00000000       0.02930125      -0.03602848      -0.33058362
Ni       5.09046019      -0.03891090       0.06715117        1       1.00000000      -0.07896415      -0.03338016       0.20903552
Ni       7.57587221       0.00339630       0.00303284        0       1.00000000      -0.01969139      -0.02712594      -0.04732215
Ni       1.22537710       2.22409981       0.06784313        1       1.00000000       0.05454912      -0.00049695       0.16902729
Pt       3.79691266       2.19030561       0.16165896        2       0.00000000      -0.03744678      -0.03261491      -0.92727783
Ni       6.37956152       2.19178519       0.06779439        1       1.00000000      -0.07330591       0.06052807       0.11919301
Ni       8.87839178       2.24631105       0.01499409        0       1.00000000       0.03927367       0.04697642       0.03371287
Ni       2.49311194       4.42360167       0.07091398        1       1.00000000       0.04335241      -0.02813231       0.21972649
Ni       5.05995119       4.39769832       0.14553184        1       1.00000000      -0.14481750      -0.05689460      -0.54953689
Ni       7.65011364       4.37282164       0.02916269        0       1.00000000       0.09957087       0.05741816       0.02390598
Ni      10.14184580       4.38824549       0.06558502        1       1.00000000      -0.03396205       0.09595389       0.12542640
Ni       3.78554739       6.56658913       0.01943106        0       1.00000000      -0.01067189      -0.05859060       0.01919487
Ni       6.36767795       6.59134774       0.00000000        0       1.00000000       0.08099730       0.02821808       0.04608654
Ni       8.87786673       6.58031656       0.15240493        2       1.00000000      -0.02346628      -0.05554434      -0.14394603
Ni      11.36782550       6.55928462       0.01047297        0       1.00000000      -0.10345135      -0.03956053       0.18066115
Ni       1.30320982       0.76632784       2.07567266        3       1.00000000       0.06453836       0.12263371       0.04076029
Ni       3.81211049       0.65728099       2.11313144        3       1.00000000       0.03289352      -0.14452246       0.10096780
Ni       6.29675547       0.73296338       2.06475186        3       1.00000000      -0.06419948       0.02255451      -0.02150219
Pt       8.88703136       0.81412187       2.05709436        3       0.00000000      -0.07610327      -0.02405244       0.00127881
Ni       2.50600406       2.97294687       2.12505208        3       1.00000000      -0.03304909       0.06577791       0.07740245
Ni       5.07151523       2.91993098       2.14372484        3       1.00000000       0.02839476       0.01496362       0.12648566
Ni       7.61497555       2.93666845       2.07238130        3       1.00000000      -0.00082987       0.05961759       0.01968893
Ni      10.17334501       2.96812189       2.08164864        3       1.00000000       0.01800732       0.06338878       0.00377605
Ni       3.76266260       5.07335738       2.13656226        3       1.00000000      -0.03333236      -0.03318371       0.09286976
Pt       6.40738692       5.11079061       2.08015787        3       0.00000000       0.11556129      -0.00167846       0.07730848
Ni       8.93092246       5.14290466       2.10573662        3       1.00000000       0.07777494       0.01636018       0.02515373
Ni      11.37140663       5.09554763       2.08911567        3       1.00000000      -0.03949238       0.01875154      -0.00131604
Pt       5.12215681       7.32017006       2.09874401        3       0.00000000      -0.03533750      -0.02794881       0.01937153
Ni       7.66727582       7.33660746       2.15002708        4       1.00000000       0.01756945       0.00160284       0.18880553
Ni      10.08731217       7.30811803       2.13958262        3       1.00000000      -0.00130340       0.00653589       0.09357486
Pt      12.57729019       7.26017616       2.09158241        3       0.00000000       0.02231330       0.02558637      -0.03489604
Ni       0.00585110       1.47133828       4.25966691        6       1.00000000      -0.03475657       0.01187479      -0.11970447
Pt       2.47604652       1.41499216       4.15540432        5       0.00000000      -0.07584543      -0.11555993      -0.13592642
Pt       5.05738945       1.37300166       4.19656842        5       0.00000000      -0.01783623      -0.16912644      -0.07510553
Pt       7.62664225       1.43311298       4.31301835        6       0.00000000       0.04324317      -0.00204929       0.01400680
Pt       1.30428331       3.73918681       4.25166908        6       0.00000000       0.04082968      -0.00699667       0.00113879
Ni       3.79270573       3.72819359       4.21444648        5       1.00000000      -0.00797277       0.03654784      -0.19464867
Pt       6.30306648       3.70792025       4.27574073        6       0.00000000       0.01771689       0.01522789      -0.00312026
Pt       8.90367640       3.73783648       4.25465634        6       0.00000000      -0.00616460       0.10332381       0.01825243
Ni       2.52372296       5.85733037       4.29355479        6       1.00000000       0.01261123      -0.02551118      -0.07540859
Ni       5.06109348       5.86641051       4.26780509        6       1.00000000       0.05598973      -0.01353440      -0.11197376
Ni       7.60899199       5.92561621       4.25374896        6       1.00000000       0.01149761       0.06294450      -0.06770810
Ni      10.16925252       5.91714423       4.22110430        5       1.00000000       0.00804319       0.03445661      -0.16370746
Pt       3.78780671       7.98113501       4.30416110        6       0.00000000      -0.02037896      -0.05847623      -0.09107603
Ni       6.35533168       7.99982462       4.25629728        6       1.00000000       0.05095575      -0.09546145      -0.09351900
Ni       8.87681728       7.98191010       4.22071295        5       1.00000000      -0.05889845      -0.06858668      -0.10720627
Ni      11.36726594       7.97445385       4.29375436        6       1.00000000      -0.03863814      -0.06442594      -0.05603644
Pt      -0.06056504       0.03115524       6.43730074        8       0.00000000       0.10526248       0.10375231       0.44580037
Pt       2.55057713      -0.03544486       6.42481915        8       0.00000000       0.03509711      -0.09862228       0.24681792
Ni       5.14185865      -0.03062245       6.37676856        8       1.00000000      -0.06687078      -0.06952509      -0.09040416
Ni       7.55064510      -0.03367812       6.39844823        8       1.00000000       0.01295438      -0.02924597       0.10864110
Ni       1.21952573       2.25051558       6.39096600        8       1.00000000      -0.00324473      -0.06699671      -0.03658670
Pt       3.79258987       2.24495520       6.33544666        7       0.00000000       0.06929022       0.27667711       1.03451308
Ni       6.38455048       2.17843681       6.42125771        8       1.00000000      -0.15637934       0.06865511       0.09678242
Ni       8.87665457       2.23382821       6.40406417        8       1.00000000       0.04902513       0.03605399       0.07022520
Ni       2.49058174       4.46408779       6.39334801        8       1.00000000       0.11028877       0.00584932      -0.07120451
Pt       5.06401719       4.49859172       6.45709951        9       0.00000000      -0.23019232      -0.14161393       0.45136823
Ni       7.62421216       4.37160975       6.40792366        8       1.00000000       0.05818688       0.00431770       0.11085406
Ni      10.18517678       4.36918067       6.42062146        8       1.00000000      -0.00837459       0.02424958      -0.08431158
Ni       3.73617450       6.59129753       6.39088382        8       1.00000000      -0.04630337       0.00780981       0.11934373
Ni       6.33675871       6.58972467       6.34325154        7       1.00000000       0.06587908       0.07068262       0.01111427
Pt       8.93740830       6.50850871       6.39624677        8       0.00000000       0.04993360       0.04572074      -0.08402419
Ni      11.45254050       6.58216133       6.35382258        8       1.00000000      -0.05103138      -0.05832175      -0.16858402
