64
Lattice="10.764904081999086 -0.00098623346069197 0.0001743974535283875 5.381597937768521 9.319859386699372 -0.0011450488873072288 0.00014239492452841856 -0.0011617741920144679 9.416870331996293" Properties=species:S:1:pos:R:3:tags:I:1:initial_magmoms:R:1:forces:R:3 unique_id=f97e75a8cf4b4243867355a6418945fa stress="-3.7837676649533913e-05 1.8272181638435042e-07 -3.5556538389865276e-07 1.8272181638435042e-07 -3.862937705816777e-05 2.2766595373238442e-06 -3.5556538389865276e-07 2.2766595373238442e-06 -7.905843421293635e-06" energy=-430.238886297831 pbc="T T T"
Pt       0.00463113       0.00497048       0.09585584        4       0.00000000       0.01651358       0.02569162       0.12853557
Pt       2.70770352       0.03032318       0.09128609        4       0.00000000       0.03818557       0.08663294       0.09294226
Pt       5.36643305       0.02418746       0.08962920        4       0.00000000      -0.01837903       0.04702670       0.06404762
Pt       8.06832261      -0.00041223       0.09280985        4       0.00000000      -0.03947258       0.00034434       0.11841627
Pt       1.36681823       2.36225484       0.09293724        4       0.00000000       0.05871509       0.05798664       0.06970360
Ni       4.03370808       2.33512752       0.08020531        4       1.00000000      -0.01338514       0.03004907       0.28938006
Pt       6.69770925       2.33561137       0.08902118        4       0.00000000      -0.06201427       0.02883846       0.07349394
Pt       9.43320947       2.36148850       0.08872719        4       0.00000000       0.02494875       0.06662424       0.07430406
Pt       2.68463882       4.63903089       0.04061739        4       0.00000000      -0.00397838      -0.03828002      -0.04442065
Pt       5.35472810       4.63865541       0.10260566        4       0.00000000      -0.06937480      -0.05841853       0.09338963
Pt       8.09938939       4.65782085       0.02270319        4       0.00000000       0.00623670      -0.02082185      -0.04858969
Ni      10.76562491       4.65794634       0.07750861        4       1.00000000       0.02495784      -0.01660064       0.31698630
Pt       4.03053382       6.96674337       0.10755703        4       0.00000000      -0.03444389      -0.08330798       0.11647649
Pt       6.73230738       6.98249209       0.09042471        4       0.00000000       0.04114241      -0.02949982       0.09616398
Pt       9.43494319       6.96176150       0.08715835        4       0.00000000       0.03341947      -0.03020993       0.06484159
Pt      12.09577101       6.95375159       0.09105377        4       0.00000000      -0.04167202      -0.08413619       0.05767140
Pt       1.34856288       0.78262270       2.37871600        3       0.00000000       0.01415804       0.05044270       0.13630668
Pt       4.04608480       0.80283909       2.37839784        3       0.00000000       0.02313389       0.07936744       0.11842559
Pt       6.71452888       0.78470609       2.40335354        3       0.00000000      -0.04637857       0.05108291       0.17598229
Pt       9.41787004       0.77456560       2.37976373        3       0.00000000      -0.01675419       0.02341179       0.11310980
Pt       2.72105554       3.13681030       2.35406940        3       0.00000000       0.05843743       0.10490964       0.04437701
Pt       5.35469613       3.11800145       2.37204297        3       0.00000000      -0.01209043       0.02924801       0.13049974
Pt       8.06464890       3.11531369       2.37907387        3       0.00000000      -0.03567595       0.05588220       0.09274017
Pt      10.77481071       3.12454863       2.34315650        3       0.00000000       0.05690940       0.05147996       0.06678205
Ni       4.03329452       5.43334413       2.35976505        3       1.00000000      -0.02589055      -0.02894122       0.04842715
Pt       6.69620149       5.42626598       2.37903782        3       0.00000000      -0.03000795      -0.05971533       0.08988199
Pt       9.42730625       5.42514843       2.34978806        3       0.00000000      -0.00164000      -0.02563708       0.02945971
Pt      12.13917001       5.42229764       2.35167179        3       0.00000000       0.08465664      -0.04305087       0.04289729
Pt       5.36486661       7.73487805       2.37732497        3       0.00000000      -0.01542301      -0.06478297       0.08394473
Pt       8.07346507       7.76484839       2.37462518        3       0.00000000       0.01297559      -0.02464337       0.11218068
Pt      10.76799871       7.76565836       2.37371977        3       0.00000000       0.01473457      -0.01341546       0.07079026
Pt      13.46832556       7.73297712       2.37728305        3       0.00000000      -0.00518347      -0.08057979       0.11930236
Pt       0.00149102       1.56095457       4.69115568        2       0.00000000       0.02617001       0.06574526      -0.09159125
Pt       2.73393001       1.56221695       4.68200333        2       0.00000000       0.11304168       0.05327131      -0.10324053
Ni       5.37900338       1.55698254       4.70028380        2       1.00000000      -0.03415115       0.05556834      -0.04427523
Pt       8.03802637       1.55576449       4.68750526        2       0.00000000      -0.05983320       0.02000183      -0.08268670
Pt       1.35753067       3.89044011       4.71371386        2       0.00000000       0.01424779       0.00394144      -0.02585077
Pt       4.04645247       3.86469334       4.68480914        2       0.00000000       0.03804638      -0.04689764      -0.10120387
Pt       6.71573432       3.86126565       4.71076504        2       0.00000000      -0.04719943      -0.04152523      -0.05023522
Pt       9.41016495       3.88879915       4.71186805        2       0.00000000       0.01595714       0.01808263      -0.04822047
Pt       2.70054818       6.19131786       4.68775366        2       0.00000000       0.03584989      -0.08229735      -0.12768251
Pt       5.37065351       6.19583048       4.66085901        2       0.00000000      -0.06216786      -0.08123412      -0.18507295
Pt       8.06992178       6.19617517       4.70900280        2       0.00000000      -0.01136145      -0.04309915      -0.09789050
Pt      10.76838377       6.20964949       4.68027735        2       0.00000000       0.02143125      -0.01349451      -0.15889445
Pt       4.02854856       8.53987150       4.68073524        2       0.00000000      -0.02511007      -0.00556900      -0.08823644
Pt       6.73374760       8.53993087       4.68002034        2       0.00000000       0.02697428      -0.00465289      -0.11890003
Pt       9.43388625       8.56822148       4.68511476        2       0.00000000       0.02166745       0.02351465      -0.11790356
Pt      12.09562302       8.56491085       4.68314582        2       0.00000000      -0.01854442      -0.01099968      -0.09281991
Pt      -0.00014791      -0.00189990       6.97213104        1       0.00000000      -0.00036930      -0.00625424      -0.08054311
Pt       2.69341602       0.00474617       6.97223416        1       0.00000000      -0.00710677       0.00997169      -0.09499524
Pt       5.38110608       0.01608566       6.95364279        1       0.00000000      -0.01103627       0.05594921      -0.11440272
Pt       8.07274480      -0.00014502       6.96864826        1       0.00000000       0.00856892      -0.01526175      -0.08076615
Pt       1.36423963       2.36247096       6.97474148        1       0.00000000       0.04852738       0.08597835      -0.07403804
Pt       4.03320866       2.35437501       7.02459700        1       0.00000000      -0.00935097       0.08289318       0.02544912
Pt       6.72633815       2.35192811       6.95506840        1       0.00000000      -0.03438483       0.05765989      -0.06969704
Pt       9.40386862       2.36286596       6.97071974        1       0.00000000      -0.04086288       0.08566588      -0.08713689
Ni       2.68916299       4.65629530       6.98599998        1       1.00000000       0.00158422      -0.01397790      -0.28889110
Pt       5.37479420       4.65516134       6.97088158        1       0.00000000      -0.04540473       0.00903552      -0.04306488
Ni       8.07930326       4.65879541       6.97907540        1       1.00000000       0.01464665      -0.00712123      -0.32224412
Pt      10.76378723       4.65854458       7.04124204        1       0.00000000       0.00247617       0.00574255       0.06917204
Pt       4.02473984       6.95298608       6.97311935        1       0.00000000      -0.02184366      -0.10909373      -0.05577889
Pt       6.73767310       6.95591230       6.97156803        1       0.00000000      -0.00654424      -0.09977902      -0.08749759
Pt       9.41106667       6.95589126       6.97028450        1       0.00000000       0.01033710      -0.06326982      -0.09799138
Pt      12.11755242       6.95689413       6.97215510        1       0.00000000      -0.00161583      -0.07547209      -0.10131951
