64
Lattice="10.40096320331222 0.01683057116159129 0.01973956066501345 5.215057303842306 8.987188306838167 0.03271442831654666 0.01611728379199899 0.021538140671112493 8.896708177112016" Properties=species:S:1:pos:R:3:tags:I:1:initial_magmoms:R:1:forces:R:3 unique_id=70872e79c53944af9957cf0a110c42bd stress="0.0004938958212335962 -2.45212521962236e-06 3.948763275783151e-06 -2.45212521962236e-06 0.0005104106982989631 1.0589591463751934e-05 3.948763275783151e-06 1.0589591463751934e-05 0.0004509310817042214" energy=-403.62591686074893 pbc="T T T"
Ni      -0.03094445       0.00474814       0.19138761        4       1.00000000      -0.14789132       0.03948292       0.36932161
Ni       2.61981263      -0.00805219       0.10862289        4       1.00000000       0.11270710      -0.01659857       0.26776540
Ni       5.20437577      -0.00744443       0.15847484        4       1.00000000       0.07668665       0.07117541       0.19488317
Ni       7.82159208      -0.01810877       0.21060163        4       1.00000000       0.10440650      -0.14039649       0.35844291
Pt       1.27210827       2.22036591       0.15688282        4       0.00000000      -0.07963581      -0.02466515       0.20068096
Pt       3.89083568       2.19502296       0.12865542        4       0.00000000       0.05683713      -0.02809059      -0.04773402
Pt       6.56099386       2.16551568       0.13296568        4       0.00000000       0.11798210      -0.13527804      -0.07806115
Ni       9.10917365       2.22946834       0.17304995        4       1.00000000       0.00403492      -0.17014183       0.20905942
Ni       2.59302574       4.52305007       0.15190643        4       1.00000000       0.08472852      -0.01061285       0.18587205
Pt       5.19072592       4.51514450       0.16677118        4       0.00000000       0.04028717       0.03584259       0.19940172
Pt       7.88452136       4.50084015       0.06687640        4       0.00000000       0.19160939       0.02545712      -0.18053578
Ni      10.42566571       4.53940002       0.08922006        4       1.00000000       0.07798424       0.08201384       0.11703600
Ni       3.87325842       6.78687306       0.20319543        4       1.00000000      -0.04379820       0.12940514       0.30752144
Pt       6.52553591       6.84044662       0.23168946        4       0.00000000       0.02015321       0.06914933       0.13901837
Ni       9.14003804       6.77870186       0.09917398        4       1.00000000       0.05436733       0.08846505       0.10986047
Ni      11.72337993       6.76950834       0.10643195        4       1.00000000       0.11912910       0.10420345       0.04169918
Ni       1.32190876       0.72653608       2.23680883        3       1.00000000       0.03817031       0.05605480      -0.09242389
Ni       3.86864003       0.77728501       2.24413974        3       1.00000000      -0.15669052       0.04808354       0.06713733
Ni       6.54187120       0.77862839       2.25173250        3       1.00000000       0.12047099       0.03063230       0.12868909
Ni       9.08296586       0.75066603       2.22310627        3       1.00000000      -0.12398844      -0.02196140      -0.07218204
Ni       2.64197882       2.96119004       2.27296027        3       1.00000000       0.05250700      -0.12883195       0.04512954
Ni       5.21409575       2.98071721       2.27660220        3       1.00000000      -0.01125163      -0.01259627      -0.04372124
Ni       7.78946964       2.96360962       2.27488996        3       1.00000000      -0.03811497      -0.16394566      -0.08435572
Pt      10.34074999       2.92808080       2.30706191        3       0.00000000      -0.12220356      -0.12030769      -0.06733072
Pt       3.91107887       5.26115431       2.28897789        3       0.00000000      -0.03956133      -0.06898834      -0.03678861
Ni       6.51960860       5.25443161       2.27776889        3       1.00000000      -0.00550558       0.04099321      -0.09010781
Pt       9.04469750       5.27400727       2.30776045        3       0.00000000      -0.16089344      -0.00705038      -0.01522568
Pt      11.72594321       5.27518436       2.20863994        3       0.00000000      -0.13284511       0.00784210      -0.02859818
Ni       5.20470014       7.54164815       2.24144855        3       1.00000000      -0.07964103       0.11525239      -0.04739369
Ni       7.80401132       7.54415167       2.27179883        3       1.00000000       0.03457126       0.12557423       0.00507283
Pt      10.41131090       7.57840993       2.18172781        3       0.00000000      -0.01624753       0.03601978       0.00252328
Ni      13.03919791       7.54922715       2.23807621        3       1.00000000      -0.03331611       0.05824170      -0.02577602
Ni      -0.01246159       1.52352386       4.41116672        2       1.00000000      -0.08436012       0.03320891       0.02196544
Ni       2.61964965       1.52574329       4.39962743        2       1.00000000       0.02968626       0.03402974      -0.26230293
Pt       5.18004545       1.56899176       4.38483427        2       0.00000000       0.03457536       0.00618428      -0.12323405
Ni       7.83303127       1.54722583       4.40497086        2       1.00000000       0.06770391      -0.01407540      -0.21130155
Pt       1.34372272       3.71308970       4.38045135        2       0.00000000       0.11499979      -0.09086624       0.02448103
Ni       3.89307300       3.74077770       4.42179519        2       1.00000000       0.00446172       0.01605626      -0.12637815
Pt       6.61415348       3.74396814       4.36997028        2       0.00000000       0.01016129       0.03476679      -0.14967121
Ni       9.10896496       3.74842304       4.45606957        2       1.00000000       0.11410061      -0.07711643      -0.09224292
Ni       2.61659358       5.98968192       4.44238567        2       1.00000000      -0.00821558       0.03588787      -0.03549327
Pt       5.22832491       5.99417957       4.38554112        2       0.00000000       0.12356042       0.04911455       0.15116660
Ni       7.82906458       5.98497853       4.44954016        2       1.00000000      -0.03104859       0.06500350      -0.10669543
Pt      10.38784796       5.97012466       4.55293784        2       0.00000000       0.04675352      -0.03222305       0.03976431
Pt       3.92100953       8.30865637       4.33171791        2       0.00000000      -0.11291825       0.05446175      -0.01221050
Pt       6.53045075       8.32545294       4.35141726        2       0.00000000      -0.02440905       0.09959425      -0.00674423
Pt       9.07717312       8.26308717       4.44639875        2       0.00000000      -0.06058635      -0.00348244      -0.05166268
Pt      11.74453954       8.26000538       4.41703446        2       0.00000000       0.05245208       0.04955483      -0.00411428
Pt       0.03774936       0.01777522       6.64674120        1       0.00000000      -0.07737067      -0.07179227       0.18746148
Ni       2.63294397       0.01419557       6.61825927        1       1.00000000      -0.04403334      -0.05791165      -0.11746422
Pt       5.13884305       0.00720166       6.68179635        1       0.00000000      -0.12903541      -0.03232234       0.11676344
Pt       7.76136248       0.05692641       6.67954317        1       0.00000000      -0.11425591       0.02924490       0.21637207
Pt       1.36476880       2.22588960       6.54541179        1       0.00000000       0.04977337      -0.04267068      -0.26038376
Ni       3.91189979       2.24800636       6.54246443        1       1.00000000      -0.06056379      -0.03276620      -0.23204195
Ni       6.51094321       2.26674425       6.55758526        1       1.00000000      -0.03662009      -0.08298231      -0.26209894
Pt       9.07613674       2.36825066       6.60142991        1       0.00000000       0.00095795       0.04696554       0.07116244
Pt       2.56775780       4.51760622       6.63269085        1       0.00000000      -0.12299778       0.01188138       0.03698896
Pt       5.25018434       4.41490322       6.56653360        1       0.00000000       0.03903556      -0.11542250      -0.30941141
Ni       7.85843136       4.52374266       6.53411161        1       1.00000000       0.09766243       0.08053618      -0.41688813
Ni      10.38910296       4.55140079       6.64659254        1       1.00000000      -0.06289699      -0.00987181      -0.04642921
Pt       3.88240766       6.74651323       6.66914968        1       0.00000000      -0.00677251       0.00733272       0.14288500
Pt       6.64028902       6.73859751       6.58931815        1       0.00000000       0.09364067      -0.00468442      -0.07841581
Ni       9.14411623       6.72924412       6.65413117        1       1.00000000       0.07240036      -0.12123735      -0.04214015
Ni      11.68308953       6.74680643       6.65972588        1       1.00000000      -0.09088922       0.02117797      -0.10056618
