64
Lattice="10.285553044435781 0.028579654063767036 -0.014075194149503083 5.167527228668485 8.900678457232306 -0.011491997993069453 -0.01149234789896321 -0.004199649460621601 8.803879725653612" Properties=species:S:1:pos:R:3:tags:I:1:initial_magmoms:R:1:forces:R:3 unique_id=c5a43d0e4b5b435c86e5cca73f1f4a49 stress="0.00027135956416268064 -1.718211021584036e-06 -1.1746523847647276e-06 -1.718211021584036e-06 0.0002733770040022898 1.2114468457613612e-05 -1.1746523847647276e-06 1.2114468457613612e-05 0.00025724447093471853" energy=-397.1222055168245 pbc="T T T"
Ni       0.00886167       0.00121726       0.17836014        4       1.00000000       0.02822547       0.04590145       0.36370725
Ni       2.54057738       0.02267568       0.19463637        4       1.00000000      -0.06494315       0.09173629       0.44270047
Pt       5.13558395      -0.03376221       0.12569659        4       0.00000000      -0.02433684      -0.06781209       0.32881624
Ni       7.73907463      -0.03593890       0.17217119        4       1.00000000       0.01051199      -0.04927924       0.37814318
Ni       1.29131308       2.23232251       0.10511712        4       1.00000000       0.01550608       0.03426778       0.26605436
Pt       3.75290335       2.23625970       0.17641701        4       0.00000000      -0.07909345       0.08601581       0.13432592
Pt       6.45387723       2.21187598       0.10256868        4       0.00000000       0.03847554       0.03041235      -0.00499429
Pt       9.10909146       2.24249670       0.10874643        4       0.00000000       0.08590164       0.01443596       0.14114520
Ni       2.53560717       4.48049046       0.06305497        4       1.00000000      -0.05649683       0.04478432       0.03376075
Pt       5.07141864       4.51776556       0.18470840        4       0.00000000      -0.13931632       0.10568156       0.25354102
Pt       7.77501566       4.50968247       0.02167702        4       0.00000000       0.05287925       0.09804747      -0.14832320
Ni      10.35794059       4.49702957       0.04566259        4       1.00000000       0.12089711       0.06925517       0.07839745
Ni       3.81718460       6.71113945       0.10256245        4       1.00000000      -0.10709403       0.08658447       0.22371165
Pt       6.43920174       6.78152004       0.16911242        4       0.00000000      -0.03594746       0.07016330       0.07289710
Ni       9.04512151       6.68686797       0.05564656        4       1.00000000       0.04081741      -0.03271921       0.10210044
Ni      11.62224011       6.66407201       0.05198901        4       1.00000000       0.07966452      -0.05135046       0.08289204
Ni       1.31477162       0.75395210       2.23037894        3       1.00000000       0.03512044       0.05172619       0.15833014
Ni       3.81542440       0.78157414       2.25649787        3       1.00000000      -0.02820409       0.07071025       0.09796109
Ni       6.42842721       0.79067089       2.25124466        3       1.00000000      -0.06185267       0.04307473       0.11921484
Pt       9.02051774       0.75400446       2.24439182        3       0.00000000       0.06934827       0.16977936      -0.00629917
Ni       2.56789410       2.93924240       2.28148499        3       1.00000000       0.02234662      -0.12255532       0.20830239
Ni       5.12255367       2.96453343       2.26804542        3       1.00000000      -0.19259836      -0.04457994       0.00097007
Ni       7.70393438       2.96871864       2.24444002        3       1.00000000       0.08192545      -0.07481918      -0.07465554
Ni      10.34185737       2.96563544       2.25064200        3       1.00000000       0.14344144      -0.09857633       0.18138092
Ni       3.87982118       5.20780100       2.27487628        3       1.00000000       0.07605480       0.00660007       0.23013450
Ni       6.40962404       5.21999056       2.25570627        3       1.00000000      -0.02899608       0.12489830      -0.03366835
Pt       8.97839692       5.16811879       2.28534219        3       0.00000000      -0.09418377      -0.19486370      -0.12627030
Pt      11.66578158       5.15431806       2.21223508        3       0.00000000       0.09140017      -0.14345979       0.13462844
Ni       5.16550171       7.39283118       2.23491694        3       1.00000000       0.05800061      -0.10294157       0.04841857
Ni       7.68722040       7.46246185       2.22842083        3       1.00000000      -0.15017436      -0.00067904       0.03705687
Pt      10.30269547       7.40880545       2.20285165        3       0.00000000       0.01910262      -0.00728193      -0.22794135
Ni      12.91277052       7.41207889       2.15606715        3       1.00000000       0.07908721      -0.14045359       0.01895216
Ni       0.05386154       1.52303270       4.34492948        2       1.00000000       0.15006170       0.07003533      -0.07177941
Ni       2.52508885       1.52896690       4.30929644        2       1.00000000      -0.09496284       0.07357754      -0.14997060
Ni       5.12892304       1.52364889       4.31492642        2       1.00000000      -0.11951955       0.00222129      -0.17097598
Ni       7.71303416       1.52120355       4.33725332        2       1.00000000       0.04744122      -0.04790533      -0.07423592
Ni       1.29269305       3.69249359       4.39752855        2       1.00000000       0.00888429      -0.03849962      -0.01042928
Ni       3.81334966       3.72865682       4.29690084        2       1.00000000      -0.08201320      -0.00639248      -0.19163164
Pt       6.45475187       3.70896373       4.28696502        2       0.00000000      -0.07816072       0.00627801       0.04863864
Ni       9.04646246       3.74649523       4.34212756        2       1.00000000       0.16298640      -0.07937466      -0.10869119
Ni       2.59256223       5.86407058       4.40035830        2       1.00000000       0.02844536      -0.16508945       0.01720371
Ni       5.14505384       5.91954650       4.29820636        2       1.00000000       0.08118701      -0.18007477      -0.15680524
Ni       7.73062752       5.92389157       4.34782411        2       1.00000000      -0.05958724       0.00240548      -0.10946905
Ni      10.30452460       5.89027597       4.42014674        2       1.00000000       0.10499096      -0.07671605       0.06486958
Pt       3.93785711       8.08766618       4.33119699        2       0.00000000       0.05128268      -0.13197806       0.23194357
Ni       6.44132251       8.17173103       4.29400483        2       1.00000000      -0.04927343       0.04819816      -0.16467621
Pt       8.92872783       8.15888722       4.30083048        2       0.00000000      -0.02448411       0.06933825       0.13087402
Pt      11.62136362       8.14404326       4.29844626        2       0.00000000       0.04057949      -0.05098198       0.08702735
Pt      -0.00079576       0.02107819       6.55243217        1       0.00000000       0.02768624       0.08322773       0.13278369
Pt       2.55071824       0.01753524       6.55431687        1       0.00000000      -0.00950403       0.03467720       0.19312443
Pt       5.13759893      -0.02691695       6.46421171        1       0.00000000       0.03854922      -0.04776097      -0.37873218
Pt       7.70309937      -0.01615027       6.57150370        1       0.00000000      -0.04904511      -0.02616155       0.19096474
Ni       1.27262993       2.29278735       6.48946835        1       1.00000000      -0.05783297       0.22010132      -0.23768788
Pt       3.79819314       2.28266444       6.40652937        1       0.00000000      -0.10730380       0.09225349      -0.27867790
Ni       6.43634978       2.25248352       6.42960480        1       1.00000000      -0.03077493       0.02863346      -0.29283867
Pt       9.01249422       2.34790251       6.38957723        1       0.00000000      -0.00821762       0.11796319      -0.30558131
Ni       2.50957178       4.48016651       6.48682904        1       1.00000000      -0.17398356       0.04377576      -0.26139973
Pt       5.10264802       4.47303588       6.44384670        1       0.00000000      -0.06168367       0.02935473      -0.23005226
Ni       7.75695441       4.47675677       6.40380188        1       1.00000000       0.07751442       0.08648166      -0.44930205
Ni      10.31952822       4.50736624       6.47433482        1       1.00000000       0.08502895       0.06841617      -0.21871587
Ni       3.81962291       6.63244051       6.50956804        1       1.00000000      -0.11215957      -0.08154639      -0.12179326
Pt       6.47718444       6.63688999       6.40766397        1       0.00000000       0.02197462       0.02690870      -0.24951336
Ni       9.04873779       6.60976765       6.49204084        1       1.00000000       0.10611861      -0.16874797      -0.21346438
Ni      11.58127474       6.61228408       6.50119262        1       1.00000000       0.00030600      -0.11532161      -0.16639724
