64
Lattice="10.450798572471813 0.026048193551921294 0.010004644796517515 5.247957683574571 9.016235571369945 -0.03872977594715083 0.008168758269752899 -0.041231017727408004 8.94846984226264" Properties=species:S:1:pos:R:3:tags:I:1:initial_magmoms:R:1:forces:R:3 unique_id=8de61b21d25546b3b583d538a450020c stress="0.00022043925949648963 2.101943294403972e-07 -4.485424155250075e-06 2.101943294403972e-07 0.00022087470552108884 2.327988713347678e-06 -4.485424155250075e-06 2.327988713347678e-06 0.00019049420633174274" energy=-404.66087015363803 pbc="T T T"
Ni      -0.06461339      -0.02136371       0.18544981        4       1.00000000      -0.17615186      -0.05150780       0.12355563
Ni       2.64851537      -0.02979226       0.17904511        4       1.00000000       0.13232260      -0.06442060       0.13953163
Ni       5.25339257      -0.02475989       0.16422000        4       1.00000000       0.09477974       0.00693379       0.10694135
Ni       7.86472664      -0.03380389       0.12967371        4       1.00000000       0.01479093      -0.11435408       0.07863462
Pt       1.28612748       2.27788830       0.12474243        4       0.00000000       0.01504325       0.02395121      -0.12641203
Pt       3.92985248       2.31377445       0.14164329        4       0.00000000       0.03033577       0.11675685      -0.08494152
Pt       6.57112247       2.18794258       0.13920503        4       0.00000000       0.03765654      -0.09968059      -0.06628613
Ni       9.14348714       2.23243752       0.16230067        4       1.00000000      -0.05367508      -0.12994747       0.13617250
Ni       2.63010450       4.55024112       0.03850320        4       1.00000000       0.06086114       0.06956300      -0.08014732
Ni       5.24949851       4.52264943       0.13614649        4       1.00000000       0.19889393      -0.03177734       0.08518735
Pt       7.92534563       4.53714911       0.05605864        4       0.00000000       0.07849574      -0.03322004      -0.13465730
Ni      10.47652298       4.57681595       0.03822826        4       1.00000000       0.03640116       0.11366803      -0.06205603
Ni       3.90572244       6.79003435       0.16843132        4       1.00000000      -0.01585327       0.05379166       0.17731638
Pt       6.52877870       6.81141391       0.18159347        4       0.00000000      -0.00265324       0.00955673       0.00877165
Ni       9.18840962       6.78123158       0.05166306        4       1.00000000       0.00855178      -0.00409108      -0.01349429
Ni      11.79886791       6.79357533       0.03416307        4       1.00000000       0.10168539       0.05392058      -0.07170655
Pt       1.27599584       0.66519041       2.19422062        3       0.00000000      -0.01924102      -0.04424129       0.07948767
Pt       3.99384054       0.77244856       2.24488674        3       0.00000000       0.04482385       0.00487411       0.07151513
Ni       6.57848196       0.73744475       2.26741391        3       1.00000000       0.06420163      -0.02992498       0.01717572
Ni       9.08893991       0.72377653       2.20338461        3       1.00000000      -0.10936389       0.00054878       0.00262656
Ni       2.63871027       3.02309417       2.25302600        3       1.00000000      -0.02672790       0.00840070       0.04122511
Ni       5.24293291       3.01646191       2.29685208        3       1.00000000       0.01777256       0.01474432       0.07382856
Pt       7.78207669       3.01429452       2.35331238        3       0.00000000      -0.04566161       0.03972652      -0.00922084
Pt      10.38284260       3.05753851       2.22542948        3       0.00000000      -0.11156933       0.05186514       0.02675862
Pt       3.97729297       5.23246208       2.15893361        3       0.00000000       0.02766237      -0.04933579       0.03466820
Ni       6.58668392       5.26134576       2.24205350        3       1.00000000       0.08404029       0.01102115      -0.01164470
Ni       9.12050542       5.29656175       2.27366469        3       1.00000000      -0.04093684       0.01406742       0.06569511
Pt      11.78246306       5.28334981       2.14185272        3       0.00000000       0.02828963      -0.02771730      -0.05840712
Ni       5.20170364       7.49920731       2.19357627        3       1.00000000      -0.07486531      -0.02328811       0.04379077
Ni       7.87756493       7.44814504       2.22103767        3       1.00000000       0.04408898      -0.08080005       0.06364555
Pt      10.47273760       7.48840289       2.13211928        3       0.00000000      -0.00798326      -0.03259372       0.02718904
Ni      13.10123984       7.57029507       2.16331245        3       1.00000000      -0.04873319       0.00360691      -0.01694869
Pt      -0.09073292       1.52336163       4.39677258        2       0.00000000      -0.10125812       0.01818381      -0.01607027
Pt       2.66765529       1.53713061       4.37390428        2       0.00000000      -0.06506407      -0.04341888      -0.07218971
Ni       5.27579329       1.54357240       4.39328230        2       1.00000000       0.03706236       0.06190069      -0.13169477
Ni       7.81076096       1.53000989       4.40828821        2       1.00000000      -0.01707574       0.00091514      -0.07082283
Pt       1.26588752       3.80587743       4.43620593        2       0.00000000      -0.05868751       0.03808747      -0.10314876
Ni       3.97166260       3.72698608       4.38684896        2       1.00000000       0.02458040      -0.01429051      -0.12477705
Ni       6.56768949       3.72819139       4.42623316        2       1.00000000      -0.01460719      -0.01680202       0.02642042
Ni       9.10345913       3.82328592       4.45730523        2       1.00000000      -0.03205843       0.02332863      -0.04687791
Pt       2.60686477       5.97659393       4.44018612        2       0.00000000       0.03956048       0.02979322      -0.03381913
Pt       5.31137713       5.89785430       4.33927212        2       0.00000000       0.02225765      -0.04008121       0.01058226
Ni       7.91290064       5.91592366       4.39720651        2       1.00000000       0.00617795      -0.06676610      -0.11820102
Ni      10.41561029       5.97818687       4.46897122        2       1.00000000      -0.02084534       0.00044151      -0.09287495
Pt       3.91534870       8.25632794       4.31867623        2       0.00000000       0.01324043      -0.04458430      -0.01745125
Pt       6.57594136       8.19227264       4.34728058        2       0.00000000      -0.00187625       0.01547028       0.01061672
Pt       9.18378460       8.15703716       4.40700636        2       0.00000000      -0.01378734       0.01454851       0.02473237
Pt      11.78042215       8.31871136       4.38155069        2       0.00000000      -0.00933578       0.02909778      -0.02649924
Pt      -0.04923249      -0.02867065       6.72597678        1       0.00000000      -0.02691648       0.04220549       0.11104957
Pt       2.64715609      -0.05474753       6.72420786        1       0.00000000       0.01352039       0.02129416       0.14684101
Pt       5.28939501      -0.11752778       6.72170741        1       0.00000000       0.03572102      -0.10246005       0.12476344
Ni       7.83384303      -0.00831971       6.65045278        1       1.00000000       0.02255873       0.06496534      -0.08946103
Pt       1.30168541       2.31782169       6.59292632        1       0.00000000      -0.01193072       0.04605606       0.06380926
Pt       3.93680792       2.26600917       6.55214138        1       0.00000000       0.04810033      -0.00665300      -0.00257097
Pt       6.57080642       2.22385431       6.50907757        1       0.00000000      -0.02143873      -0.02636124      -0.03305848
Pt       9.12794642       2.34152934       6.67154935        1       0.00000000       0.01876299       0.13919504       0.15431402
Ni       2.58413924       4.51207934       6.62302274        1       1.00000000      -0.06196353       0.04223392      -0.11867870
Pt       5.23860083       4.49157436       6.63212771        1       0.00000000      -0.04980027       0.01972275       0.06808279
Ni       7.90726682       4.51826305       6.50881649        1       1.00000000       0.01411885       0.06019874      -0.16804635
Ni      10.44146661       4.58533253       6.60835188        1       1.00000000      -0.05004920       0.09970051      -0.11912653
Pt       3.82568569       6.73544713       6.71878538        1       0.00000000      -0.10382508       0.04202789       0.19050437
Pt       6.63973639       6.67626312       6.57956198        1       0.00000000       0.03616795       0.00107954       0.03477616
Ni       9.21352077       6.66823717       6.59890470        1       1.00000000       0.02750799      -0.08900373      -0.10918621
Ni      11.73490879       6.69628652       6.62620956        1       1.00000000      -0.08609923      -0.14012212      -0.13973189
