64
Lattice="10.293872115390316 0.00412741887111889 -0.01634062420071741 5.150510507289607 8.923285442754732 0.0023455194249102293 -0.013342063790110636 0.00991442104177729 8.802607202670941" Properties=species:S:1:pos:R:3:tags:I:1:initial_magmoms:R:1:forces:R:3 unique_id=82d02d332b8b4abd836ca3b8d72a7403 stress="0.0002936969077773077 2.93561876471927e-06 -1.3714493100824249e-05 2.93561876471927e-06 0.0002943620076614542 -1.0447681360633198e-05 -1.3714493100824249e-05 -1.0447681360633198e-05 0.0002820732334672879" energy=-398.2750621678303 pbc="T T T"
Ni       0.00265481       0.02336966       0.17401189        4       1.00000000       0.03558888       0.05016940       0.23979885
Ni       2.53557798       0.01418338       0.20073006        4       1.00000000      -0.08788881       0.08278254       0.41090570
Pt       5.14163762      -0.02493978       0.13026298        4       0.00000000      -0.05136189      -0.07719631       0.27529791
Ni       7.75050996      -0.03290496       0.16745892        4       1.00000000       0.02020500      -0.11413144       0.30407767
Ni       1.24657843       2.23865874       0.10937689        4       1.00000000      -0.14966499       0.03716858       0.23251671
Pt       3.77906055       2.28818952       0.19073022        4       0.00000000      -0.08246748       0.12032917       0.11415532
Pt       6.47766698       2.23155362       0.11284458        4       0.00000000       0.09056046       0.08057001      -0.02597697
Ni       9.05392142       2.23239127       0.13456401        4       1.00000000       0.11893084       0.07915178       0.12196776
Ni       2.56312478       4.48913962       0.07935266        4       1.00000000       0.06328311       0.09488027      -0.01236801
Ni       5.11660333       4.49004169       0.18772389        4       1.00000000      -0.02616472       0.08163489       0.36524814
Pt       7.79392594       4.47901476       0.10724176        4       0.00000000       0.08751245       0.02649464      -0.08829968
Ni      10.32945167       4.45063506       0.06931186        4       1.00000000       0.11127714      -0.06743549       0.12147959
Ni       3.82641342       6.68725328       0.19662733        4       1.00000000      -0.05221514      -0.03546508       0.33549976
Pt       6.39784529       6.73789646       0.18755557        4       0.00000000      -0.09639021       0.03415849       0.02902369
Ni       9.01765062       6.67838486       0.16401420        4       1.00000000      -0.06170330      -0.00464982       0.32129718
Ni      11.61311945       6.66522764       0.07009502        4       1.00000000       0.08706723      -0.03243425       0.07686689
Ni       1.29026239       0.74697752       2.18879970        3       1.00000000      -0.06553730       0.00212224      -0.03292511
Ni       3.83370127       0.77043089       2.22159412        3       1.00000000       0.05038611       0.02546719      -0.01376107
Ni       6.43544740       0.79012405       2.23890423        3       1.00000000      -0.04509926       0.12982757       0.07844957
Pt       9.02301437       0.78741011       2.17433347        3       0.00000000       0.00104141       0.08957095       0.12273122
Ni       2.56058665       2.98205780       2.23443418        3       1.00000000       0.00699765       0.04736119      -0.03874902
Ni       5.13486384       2.99881276       2.24357665        3       1.00000000      -0.11192656       0.01389859       0.01933477
Ni       7.73670799       2.99627888       2.23988424        3       1.00000000       0.12389549       0.04750021      -0.00147292
Ni      10.29449640       2.97523768       2.20044112        3       1.00000000       0.05255446       0.02666826       0.08117614
Ni       3.89529616       5.20231931       2.22300422        3       1.00000000       0.12574293      -0.03445703       0.11796265
Ni       6.41765119       5.21185968       2.24351007        3       1.00000000      -0.01617843       0.08772028      -0.04025188
Ni       8.97760480       5.17579055       2.22985572        3       1.00000000      -0.05955690      -0.18124140       0.16023200
Pt      11.63981583       5.13786259       2.16200301        3       0.00000000       0.12817410      -0.10716723       0.01302646
Ni       5.14958783       7.41547618       2.23596450        3       1.00000000       0.04534113      -0.09561834       0.01474969
Ni       7.67644631       7.44181432       2.22521263        3       1.00000000      -0.19125296      -0.06522654       0.02644331
Pt      10.27573917       7.39046511       2.19158892        3       0.00000000       0.01299079      -0.02870275      -0.24333140
Ni      12.90020988       7.41649731       2.15977857        3       1.00000000       0.06986799      -0.11899617       0.00936023
Ni      -0.01270333       1.54443339       4.35126337        2       1.00000000      -0.08689420       0.13185033      -0.13419630
Pt       2.49646031       1.56356575       4.25609458        2       0.00000000      -0.00433188      -0.05720895       0.05082762
Ni       5.15418934       1.53462935       4.31885249        2       1.00000000      -0.08670669       0.05556925      -0.22678176
Ni       7.72581710       1.52945542       4.33801323        2       1.00000000       0.08326042       0.00339272      -0.13539604
Ni       1.28232706       3.70770469       4.40073988        2       1.00000000      -0.00749110      -0.05900249      -0.07226641
Ni       3.83796120       3.77164954       4.31409692        2       1.00000000      -0.00985738       0.09248855      -0.23343855
Pt       6.45001184       3.71906352       4.28729301        2       0.00000000      -0.05427417       0.00981980      -0.02575726
Ni       9.00914156       3.70230887       4.32497809        2       1.00000000       0.02202937      -0.10129706      -0.32860189
Ni       2.59568046       5.88940519       4.36424665        2       1.00000000       0.10350044      -0.12371483      -0.17124605
Ni       5.13957311       5.92896199       4.29912747        2       1.00000000       0.02031158      -0.12446049      -0.22354352
Ni       7.69348830       5.92607559       4.30856335        2       1.00000000      -0.03084830      -0.04698490      -0.26265195
Pt      10.30617852       5.83532946       4.37099436        2       0.00000000      -0.02099107      -0.04892125       0.07534675
Pt       3.92980086       8.15211142       4.29942925        2       0.00000000       0.04978000      -0.11022491       0.15673746
Ni       6.41885166       8.17031290       4.30294762        2       1.00000000      -0.03690669      -0.00968692      -0.23989455
Pt       8.91867386       8.17937343       4.29238573        2       0.00000000      -0.05087258      -0.03714506       0.10666060
Pt      11.62378700       8.19937936       4.28841850        2       0.00000000       0.08602612       0.00112409       0.05212520
Pt      -0.00006447       0.06710576       6.55377538        1       0.00000000       0.03897144       0.09683723       0.07366321
Pt       2.55104080       0.04058485       6.57751908        1       0.00000000      -0.06369226      -0.00494504       0.20780258
Pt       5.15067684       0.02452770       6.45572756        1       0.00000000       0.08787868       0.00888817      -0.42493964
Pt       7.70387968       0.04451015       6.57035845        1       0.00000000      -0.07788800       0.06734649       0.11032685
Ni       1.26464461       2.31000757       6.51682811        1       1.00000000      -0.03653495       0.12575771      -0.16220766
Pt       3.80820950       2.30274528       6.45190073        1       0.00000000      -0.13819049       0.09911417      -0.27688785
Ni       6.44526986       2.26053187       6.43562942        1       1.00000000       0.01050697       0.02193992      -0.28845956
Pt       9.01385610       2.35605481       6.49124038        1       0.00000000       0.02052588       0.13109316       0.01153772
Ni       2.49377579       4.46602147       6.50615066        1       1.00000000      -0.14901711      -0.01247050      -0.27520046
Pt       5.15649250       4.43719783       6.53294328        1       0.00000000       0.04467618      -0.04553954       0.10552187
Ni       7.72674502       4.45208593       6.43677072        1       1.00000000      -0.02209352       0.03878712      -0.32441565
Ni      10.34467460       4.44752687       6.51876981        1       1.00000000       0.22304682      -0.05389609      -0.09898133
Pt       3.76749601       6.63439071       6.55180621        1       0.00000000      -0.08022894      -0.05585497       0.16682089
Pt       6.43673591       6.66786969       6.41993132        1       0.00000000      -0.02085605       0.05763317      -0.29556898
Pt       9.05099069       6.59041931       6.57529796        1       0.00000000       0.05951693      -0.16847048       0.14930043
Ni      11.57617939       6.64614732       6.52919163        1       1.00000000      -0.00636463      -0.07657284      -0.16070094
