64
Lattice="10.269742695960005 0.01593360085261968 -0.015929631291512016 5.148670251092131 8.859394955721573 -0.01628957102773032 -0.013006489484958892 -0.007848654643084292 8.75414634147275" Properties=species:S:1:pos:R:3:tags:I:1:initial_magmoms:R:1:forces:R:3 unique_id=130e0ac90220404ca43aebb14795c611 stress="0.0001544390782307961 4.304710875092218e-06 -1.0396316685873419e-05 4.304710875092218e-06 0.00016592763578508057 1.4253016512839499e-05 -1.0396316685873419e-05 1.4253016512839499e-05 0.00016732739072386482" energy=-394.6676652250972 pbc="T T T"
Ni      -0.02784833       0.03609714       0.21115462        4       1.00000000      -0.11888415       0.07899057       0.32179731
Ni       2.56020104       0.01109755       0.21538633        4       1.00000000      -0.02853965       0.02959503       0.39457747
Ni       5.13512318      -0.00013359       0.16275613        4       1.00000000      -0.02026511       0.13809497       0.36088784
Ni       7.73089454      -0.02900166       0.10498856        4       1.00000000       0.09147135      -0.08726437       0.22514109
Ni       1.24598664       2.21863101       0.11062357        4       1.00000000      -0.13763700       0.02150600       0.18468338
Pt       3.78966688       2.23215660       0.18598740        4       0.00000000      -0.07497073       0.04627880       0.19149674
Pt       6.45407110       2.16880052       0.18806898        4       0.00000000       0.07641944      -0.05261294       0.25778717
Ni       9.03391326       2.19948616       0.16780865        4       1.00000000       0.07099669      -0.07992886       0.25158976
Ni       2.56755320       4.45745443       0.06515446        4       1.00000000       0.05245488       0.07434298      -0.00469169
Ni       5.10804796       4.45361369       0.18030860        4       1.00000000      -0.00789976       0.00790188       0.32136154
Pt       7.78478998       4.44431614       0.09235633        4       0.00000000       0.10900744      -0.02194378      -0.07936238
Ni      10.30925389       4.43325539       0.05723939        4       1.00000000       0.10068724      -0.06620712       0.13272035
Ni       3.81988740       6.65148893       0.10108135        4       1.00000000      -0.08555900      -0.02485339       0.16002566
Pt       6.38935336       6.69759439       0.17381103        4       0.00000000      -0.11291324       0.04604385       0.09516606
Ni       9.01759010       6.66593427       0.05678956        4       1.00000000      -0.02212679       0.02625659       0.03481486
Ni      11.59061077       6.66009108       0.03668289        4       1.00000000       0.11218092       0.00551608      -0.02091388
Ni       1.25119537       0.76252495       2.14491172        3       1.00000000      -0.15463287       0.11653686      -0.08207958
Ni       3.84195074       0.75486789       2.20011412        3       1.00000000       0.07282739       0.05533325       0.03666073
Ni       6.44997160       0.75623949       2.23029210        3       1.00000000       0.11719685       0.08415703       0.12661787
Ni       8.98516230       0.76788299       2.16601358        3       1.00000000      -0.04829236       0.05402155       0.08443988
Ni       2.55555345       2.96062521       2.20476826        3       1.00000000      -0.02302138       0.08238823      -0.08758885
Ni       5.11779332       2.97603763       2.23027787        3       1.00000000      -0.12565966      -0.01990778      -0.02337879
Ni       7.75412652       2.94579401       2.22386534        3       1.00000000       0.19455395      -0.04376725      -0.03044865
Ni      10.25486609       2.92625555       2.18254985        3       1.00000000       0.01162472      -0.03305269       0.08622345
Ni       3.88776413       5.17076370       2.19616789        3       1.00000000       0.03707557       0.02722594       0.05450131
Ni       6.40729691       5.17410364       2.20709906        3       1.00000000       0.00549914       0.12283238      -0.08249286
Ni       8.97212602       5.14914919       2.21040557        3       1.00000000       0.00067010      -0.11457456       0.10895475
Pt      11.60623447       5.12047349       2.14566228        3       0.00000000       0.07539510      -0.05235958       0.02515158
Ni       5.09207432       7.37817302       2.17381653        3       1.00000000      -0.18888646      -0.07934943      -0.14407231
Ni       7.70656145       7.38191920       2.17344288        3       1.00000000       0.03092944      -0.12147059      -0.07852985
Pt      10.27076188       7.39601834       2.08590988        3       0.00000000       0.04476430      -0.12787674      -0.04129404
Ni      12.88726829       7.40031565       2.12111770        3       1.00000000       0.01694610      -0.06044682      -0.11040473
Ni      -0.02872020       1.52856948       4.29980949        2       1.00000000      -0.09278694       0.05481750      -0.19856982
Pt       2.51215059       1.57020052       4.22799858        2       0.00000000      -0.00239238       0.02682747       0.04522604
Ni       5.13391260       1.50942287       4.28016298        2       1.00000000      -0.04796301       0.08453282      -0.13989992
Ni       7.73729283       1.50483778       4.27398922        2       1.00000000       0.10139841       0.05150419      -0.16506371
Ni       1.27974916       3.68281921       4.37094469        2       1.00000000      -0.03447305      -0.02628789      -0.05062683
Ni       3.83056953       3.74890563       4.28291091        2       1.00000000      -0.05452571       0.05533379      -0.19839752
Pt       6.43508818       3.71845470       4.22610183        2       0.00000000      -0.04292860      -0.05716998       0.12337673
Ni       8.99573564       3.66918357       4.29383940        2       1.00000000       0.04150318      -0.10338079      -0.26574786
Ni       2.60114576       5.84556881       4.36308174        2       1.00000000       0.03770590      -0.07169871      -0.10919014
Ni       5.09715848       5.87836079       4.27493104        2       1.00000000      -0.04293488      -0.02472880      -0.19716661
Ni       7.71593560       5.86484071       4.29177472        2       1.00000000       0.02704357      -0.02395848      -0.25034542
Pt      10.27577079       5.81114790       4.38682095        2       0.00000000       0.01196177      -0.02402062      -0.04787966
Pt       3.84910581       8.09972445       4.27357675        2       0.00000000      -0.02702461       0.03097451      -0.01384532
Pt       6.39521204       8.09744257       4.19428680        2       0.00000000      -0.03749808      -0.03433607      -0.00489513
Pt       8.97957923       8.11521623       4.28553051        2       0.00000000      -0.03866608       0.05916477       0.14338914
Pt      11.59739759       8.14478152       4.29344267        2       0.00000000       0.01477596       0.01151768       0.04448726
Pt      -0.06314210      -0.00723684       6.55865271        1       0.00000000      -0.06722144      -0.01508420       0.20217543
Pt       2.54666630      -0.00034491       6.57417875        1       0.00000000      -0.01664517       0.05517113       0.23930989
Pt       5.17757881      -0.09378649       6.56154325        1       0.00000000       0.07217984      -0.21324283       0.13421692
Ni       7.70310216      -0.04043350       6.49723430        1       1.00000000       0.02390585      -0.05182423      -0.08576957
Ni       1.26408036       2.27633565       6.48104821        1       1.00000000       0.01847729       0.12962944      -0.14503018
Pt       3.78800878       2.26814439       6.42625242        1       0.00000000      -0.09278243       0.00084440      -0.33912791
Pt       6.45574352       2.20105667       6.41066255        1       0.00000000       0.05356434       0.01647147      -0.25129483
Pt       9.03845922       2.30424469       6.46137711        1       0.00000000       0.07630483       0.08342735       0.09147238
Ni       2.49774667       4.46643010       6.45978385        1       1.00000000      -0.15337571       0.04625087      -0.23119217
Pt       5.05592372       4.48113259       6.48501779        1       0.00000000      -0.13880110       0.13773851       0.07701083
Ni       7.75199570       4.45312635       6.38739748        1       1.00000000       0.08805662       0.04520910      -0.31944179
Ni      10.30311966       4.44827580       6.48223956        1       1.00000000       0.15277512       0.06263225      -0.01713354
Ni       3.77625670       6.62976834       6.47526787        1       1.00000000      -0.15992137       0.01571945      -0.14699566
Pt       6.45807919       6.59178888       6.40888463        1       0.00000000       0.05717297      -0.04128544      -0.34673771
Ni       9.01844534       6.57378570       6.48177495        1       1.00000000       0.08015127      -0.18399421      -0.12183379
Ni      11.59548646       6.59330727       6.48396290        1       1.00000000       0.12155117      -0.12816058      -0.12382072
