64
Lattice="10.307684971445827 -0.011032113801294914 0.014803281821202822 5.144288394913547 8.830304617581715 -0.012931643835369865 0.012086828993521644 -0.019170404703564358 8.75774645411216" Properties=species:S:1:pos:R:3:tags:I:1:initial_magmoms:R:1:forces:R:3 unique_id=36646298f15447fbb015e3e8365f5869 stress="0.0002028494067130293 3.6002680367200667e-06 -9.748407867405745e-06 3.6002680367200667e-06 0.00021092439720063472 1.4057006547831041e-05 -9.748407867405745e-06 1.4057006547831041e-05 0.00019657144583375835" energy=-396.80643591469175 pbc="T T T"
Ni       0.00312338       0.02502925       0.18502145        4       1.00000000       0.05850807       0.12356741       0.26744156
Ni       2.57220889       0.00699017       0.21417902        4       1.00000000      -0.00847518       0.05853111       0.38708606
Ni       5.15447445      -0.01865691       0.16031532        4       1.00000000      -0.05998694       0.05978083       0.21868257
Ni       7.73695842      -0.05042605       0.18477480        4       1.00000000      -0.02173481      -0.13942438       0.31455397
Ni       1.25848173       2.21349590       0.18306448        4       1.00000000      -0.08397013       0.02215162       0.26942626
Pt       3.80279125       2.21678772       0.18080994        4       0.00000000      -0.12123202       0.05560225       0.14943888
Pt       6.45814422       2.14404719       0.11118793        4       0.00000000       0.05054850      -0.11619051      -0.03428947
Ni       9.06229818       2.19799744       0.15732316        4       1.00000000       0.12531114       0.04538681       0.14714409
Ni       2.55651335       4.43958194       0.04788769        4       1.00000000      -0.06184754       0.02719555      -0.06377129
Ni       5.13218827       4.42698232       0.06744210        4       1.00000000       0.06155290      -0.05044911       0.05483685
Pt       7.76346047       4.40738232       0.03876449        4       0.00000000       0.12340567       0.00554527      -0.16693538
Ni      10.34277355       4.39722146       0.07367553        4       1.00000000       0.08727492      -0.04639259       0.04786984
Ni       3.82630582       6.63714450       0.06910743        4       1.00000000      -0.08841973       0.07841122       0.08762590
Pt       6.39769591       6.67363119       0.09717620        4       0.00000000      -0.06264010       0.03115738      -0.12076080
Ni       9.03486321       6.64476180       0.14875016        4       1.00000000      -0.01870361       0.03249230       0.18549899
Ni      11.61186751       6.61696782       0.06327196        4       1.00000000       0.09011921      -0.03869369      -0.03997608
Ni       1.31516709       0.76308290       2.18396097        3       1.00000000       0.03434950       0.13915782       0.07714989
Ni       3.84506511       0.75733777       2.23214799        3       1.00000000      -0.01354307       0.13224200       0.10805937
Ni       6.44284431       0.74704769       2.25356544        3       1.00000000       0.01987141       0.08919148       0.21606052
Pt       9.02618396       0.76089344       2.19162452        3       0.00000000      -0.00251051       0.11153509       0.12313494
Ni       2.54985956       2.89241440       2.25527672        3       1.00000000      -0.02937020      -0.07646542       0.16784194
Ni       5.16226391       2.90707166       2.24398980        3       1.00000000      -0.05366951      -0.12385469       0.01052974
Ni       7.72089371       2.91303407       2.23587894        3       1.00000000       0.01456058       0.01053112      -0.02498024
Ni      10.33104363       2.90062844       2.21911590        3       1.00000000       0.04804157       0.00616104       0.13935860
Pt       3.89670285       5.12560329       2.15199979        3       0.00000000      -0.01026169      -0.08129272      -0.10153174
Ni       6.43640169       5.13613629       2.20705358        3       1.00000000       0.04957082      -0.00055162      -0.04522941
Pt       8.98228725       5.10858670       2.27788380        3       0.00000000      -0.06795179      -0.04195707      -0.03423864
Pt      11.61011630       5.08636921       2.21582170        3       0.00000000       0.06256819      -0.07851686      -0.00553312
Ni       5.15032353       7.36493862       2.17301940        3       1.00000000      -0.07250526      -0.00912072      -0.04466339
Ni       7.70794308       7.37391919       2.17574731        3       1.00000000       0.04197679      -0.01812071      -0.02252258
Pt      10.34993680       7.40368274       2.15505607        3       0.00000000       0.11434215       0.00558342       0.00661080
Ni      12.88274023       7.35288490       2.17605464        3       1.00000000       0.03489011      -0.07828523      -0.04722121
Ni       0.01131068       1.52448192       4.31617069        2       1.00000000       0.03390544       0.14395818      -0.04972380
Ni       2.57890460       1.51938676       4.29087162        2       1.00000000      -0.01105246       0.12146415      -0.09600276
Ni       5.17868694       1.46378407       4.29865968        2       1.00000000      -0.01554482      -0.04389393      -0.17055062
Ni       7.71612777       1.45805430       4.33328897        2       1.00000000      -0.00448013      -0.09219956      -0.06605271
Ni       1.29208312       3.68508994       4.33750316        2       1.00000000       0.01007236      -0.02984685      -0.08239737
Ni       3.81973279       3.66287907       4.30908771        2       1.00000000      -0.13069326      -0.06791545      -0.23089083
Pt       6.47351376       3.60925805       4.32763959        2       0.00000000      -0.01697114      -0.03950090      -0.16770227
Ni       9.05954208       3.66924091       4.35183191        2       1.00000000       0.13958542      -0.06250261      -0.06227617
Ni       2.52543535       5.84338903       4.39034720        2       1.00000000      -0.08357944      -0.07630548      -0.05698822
Pt       5.13128851       5.82676192       4.38614681        2       0.00000000      -0.02965886      -0.03013090      -0.07721436
Ni       7.74587931       5.84262783       4.35513884        2       1.00000000      -0.03962056       0.03029181      -0.07256295
Ni      10.34783364       5.82566827       4.38373608        2       1.00000000       0.09426612      -0.03356789      -0.00625821
Pt       3.78504781       8.07360701       4.28005176        2       0.00000000      -0.07483688      -0.06106157       0.10474945
Pt       6.44772659       8.11986674       4.23990009        2       0.00000000      -0.04042847       0.14752500       0.02703827
Pt       9.05362564       8.09708528       4.27821530        2       0.00000000      -0.05705945      -0.01887116       0.09577676
Ni      11.59370580       8.06363893       4.32508739        2       1.00000000      -0.01091314      -0.04946654      -0.07003569
Pt      -0.01083194      -0.07897500       6.55527174        1       0.00000000       0.02794504      -0.08368543       0.12093527
Pt       2.58390198      -0.03785883       6.55929650        1       0.00000000      -0.07940601       0.00525320       0.19791454
Pt       5.19343417      -0.02796302       6.51902173        1       0.00000000       0.05155676      -0.02945955       0.04243066
Pt       7.71540161      -0.07458808       6.54583142        1       0.00000000      -0.05088624      -0.11946222       0.14968531
Pt       1.29171119       2.29616026       6.47263977        1       0.00000000       0.02791731       0.05753054       0.10520646
Pt       3.92155821       2.29631901       6.39177054        1       0.00000000       0.04409826       0.19530589      -0.25220563
Ni       6.44837340       2.21971179       6.42431982        1       1.00000000      -0.01840959       0.01646993      -0.22335305
Pt       8.97230921       2.27212406       6.47526681        1       0.00000000      -0.03658443       0.07578585       0.01713445
Ni       2.58033682       4.47155297       6.45684974        1       1.00000000       0.03073393       0.11396467      -0.26899618
Ni       5.16576662       4.42884285       6.50041092        1       1.00000000       0.04855961       0.10143254      -0.08939767
Ni       7.69363568       4.39938469       6.39232251        1       1.00000000      -0.18516568       0.01141268      -0.36770813
Ni      10.34480625       4.41955055       6.46703099        1       1.00000000       0.16044633       0.01945920      -0.24290695
Ni       3.83853895       6.53351673       6.49421796        1       1.00000000      -0.08889456      -0.13179622      -0.07991328
Ni       6.43297358       6.54304273       6.42138118        1       1.00000000       0.05881059      -0.04484508      -0.22210078
Pt       9.03472253       6.47599829       6.50060497        1       0.00000000      -0.00545123      -0.06596935       0.09193090
Ni      11.62359401       6.52946047       6.46824601        1       1.00000000       0.01166972      -0.09428136      -0.22426185
