64
Lattice="10.244853277418068 -0.008380647073660307 -0.01666256716265379 5.115168785443091 8.781795956809018 -0.021670735054330568 -0.013604929117785484 -0.012576555458492941 8.710171309141913" Properties=species:S:1:pos:R:3:tags:I:1:initial_magmoms:R:1:forces:R:3 unique_id=12ae2f518a6746e2b4d8ff2edb6ed606 stress="0.0001360663397915879 7.678486349951262e-07 6.253036264301284e-08 7.678486349951262e-07 0.00014184536631715178 3.871160577819012e-06 6.253036264301284e-08 3.871160577819012e-06 0.00014450492122657782" energy=-393.3314716144653 pbc="T T T"
Ni       0.00377805       0.01498346       0.18697869        4       1.00000000       0.02408302       0.02049764       0.24763901
Ni       2.55270593      -0.00459798       0.21628782        4       1.00000000      -0.00313301      -0.01783843       0.34324669
Ni       5.12309365      -0.01415987       0.15364900        4       1.00000000      -0.00712794       0.10844842       0.22436134
Ni       7.68235862      -0.04620438       0.16134535        4       1.00000000      -0.06007111      -0.08658646       0.28520549
Ni       1.24204422       2.20589897       0.19412783        4       1.00000000      -0.10468208       0.06842142       0.30727279
Pt       3.79112231       2.21168177       0.17648105        4       0.00000000      -0.08071106       0.02025812       0.18434142
Pt       6.45370866       2.20539694       0.09571072        4       0.00000000       0.09380413       0.03217182      -0.04395072
Ni       8.99646906       2.22215220       0.13786854        4       1.00000000       0.09813562       0.12209298       0.15961275
Ni       2.54968305       4.42419088       0.06519898        4       1.00000000      -0.01242276       0.06423199       0.00500939
Ni       5.09909632       4.41151360       0.08855742        4       1.00000000      -0.06224239       0.00913096       0.19336115
Ni       7.71994395       4.39213953       0.09107872        4       1.00000000       0.12785202       0.01470812       0.20132225
Ni      10.22882742       4.37849685       0.06362536        4       1.00000000      -0.04810483      -0.01092814       0.07337248
Ni       3.80515988       6.57898560       0.08757554        4       1.00000000      -0.06963699      -0.03175492       0.11777634
Pt       6.38774621       6.57295099       0.08059588        4       0.00000000      -0.04485059      -0.03881189      -0.23265837
Ni       8.96089425       6.56229109       0.13914359        4       1.00000000      -0.05859764      -0.09827994       0.18016804
Ni      11.54020748       6.57401578       0.03552593        4       1.00000000       0.06031851      -0.05854435      -0.09579029
Ni       1.28295493       0.74136503       2.14385290        3       1.00000000      -0.04457516       0.03351646       0.05161806
Ni       3.83935761       0.73404397       2.18537172        3       1.00000000       0.11077604       0.03688197       0.01526620
Ni       6.39237836       0.74765857       2.21553792        3       1.00000000      -0.00199880       0.11426295       0.14619597
Pt       8.95885871       0.76126692       2.15921035        3       0.00000000      -0.05033148       0.10252853       0.09293380
Ni       2.54907007       2.94336540       2.18959459        3       1.00000000       0.06166007       0.11116740      -0.02503562
Ni       5.11781595       2.94638019       2.21858262        3       1.00000000      -0.06469625       0.03338866      -0.00524679
Ni       7.69259170       2.96343333       2.19188946        3       1.00000000       0.05354552       0.11657934       0.05054789
Ni      10.23083139       2.92522279       2.17561728        3       1.00000000      -0.02193541       0.07889269       0.16760527
Ni       3.86719784       5.11467425       2.17371535        3       1.00000000       0.07393948      -0.01781735       0.00191145
Ni       6.39568681       5.10733306       2.17792133        3       1.00000000      -0.00157750       0.03738950      -0.03551145
Ni       8.92204575       5.07900599       2.17044287        3       1.00000000      -0.00342043      -0.04233453       0.07956774
Pt      11.54672837       5.06428569       2.16836868        3       0.00000000       0.04712063      -0.03545548      -0.03352379
Ni       5.09567954       7.27023918       2.14455379        3       1.00000000      -0.11100767      -0.16738873      -0.10797993
Ni       7.66199992       7.29044904       2.14753936        3       1.00000000       0.03332213      -0.17432519      -0.02340104
Pt      10.26206863       7.31454510       2.11100708        3       0.00000000       0.07352022      -0.03472427       0.03721847
Ni      12.81290028       7.28541133       2.12395749        3       1.00000000       0.04708310      -0.12740813      -0.08443410
Ni      -0.03614626       1.50915414       4.29860981        2       1.00000000      -0.04093587       0.07844378       0.01044654
Pt       2.54245803       1.54059058       4.20147014        2       0.00000000      -0.00513155       0.09898463       0.12736784
Ni       5.16623445       1.46210610       4.26271711        2       1.00000000       0.01461890      -0.03145832      -0.15863240
Ni       7.65402176       1.46328507       4.28562579        2       1.00000000      -0.01469497      -0.02120636      -0.07311657
Ni       1.24813204       3.70955054       4.31891261        2       1.00000000      -0.03228461      -0.02126655      -0.02138911
Ni       3.82598731       3.73421508       4.27095554        2       1.00000000      -0.06962736       0.09461164      -0.20930863
Pt       6.39484504       3.66545865       4.28636051        2       0.00000000       0.00079435      -0.01035924      -0.06883798
Ni       8.98031951       3.67834731       4.26778040        2       1.00000000       0.05721574       0.04230970      -0.19270861
Ni       2.53578103       5.80228588       4.34384457        2       1.00000000      -0.05915924      -0.08325374      -0.10676451
Ni       5.07677901       5.80061778       4.30835877        2       1.00000000      -0.09143826      -0.04892513      -0.21599725
Ni       7.68690319       5.79055317       4.27580197        2       1.00000000       0.11983799      -0.06773503      -0.23580733
Ni      10.26715956       5.78623851       4.31343207        2       1.00000000       0.01671652      -0.02579633      -0.09959858
Pt       3.76275506       7.97149342       4.24913394        2       0.00000000      -0.02735522      -0.11733713       0.09385593
Pt       6.37022676       7.96981424       4.20817508        2       0.00000000      -0.07813336      -0.01540750      -0.02551919
Pt       8.99280554       8.00507466       4.23805555        2       0.00000000       0.00109978      -0.07056000       0.08206829
Ni      11.51954944       8.01609376       4.26516855        2       1.00000000      -0.01052176      -0.07698343      -0.09605000
Pt      -0.02510419      -0.07900442       6.51936592        1       0.00000000       0.04926187      -0.09410684       0.07819865
Pt       2.55022045      -0.04390113       6.53130287        1       0.00000000      -0.05682384       0.00074276       0.21412674
Pt       5.14608221      -0.02224289       6.47412919        1       0.00000000       0.09522940      -0.02975764       0.03606508
Pt       7.65805337      -0.06925185       6.47918082        1       0.00000000      -0.05021413      -0.12342539       0.10838829
Pt       1.26099948       2.29803871       6.47814919        1       0.00000000       0.05292035       0.05802690       0.18201958
Pt       3.90136006       2.31062780       6.37971918        1       0.00000000       0.07960979       0.24414287      -0.32637978
Ni       6.39798482       2.22510611       6.36352836        1       1.00000000      -0.01276411       0.01563400      -0.24458146
Pt       8.89181210       2.27801122       6.42153228        1       0.00000000      -0.00802161       0.11304173      -0.00411820
Ni       2.55513865       4.46428885       6.41655393        1       1.00000000       0.05150720       0.08852711      -0.21838553
Ni       5.12337422       4.44376585       6.42674053        1       1.00000000       0.02252293       0.16109609      -0.12965976
Ni       7.61736181       4.38313932       6.43108712        1       1.00000000      -0.22062024       0.00590076      -0.09289046
Ni      10.26682459       4.40575542       6.40606886        1       1.00000000       0.15198879       0.01459403      -0.21678065
Ni       3.81610044       6.48773351       6.43154943        1       1.00000000       0.01540259      -0.11686008      -0.13891572
Ni       6.35856001       6.48988274       6.35450535        1       1.00000000      -0.00894167      -0.07930784      -0.35742921
Pt       8.96038577       6.43284212       6.45645857        1       0.00000000      -0.03341725      -0.09542774       0.08301257
Ni      11.54271615       6.49922841       6.40224198        1       1.00000000       0.03732149      -0.06925288      -0.26070049
