64
Lattice="10.239068413863686 0.00915128797924179 -0.0037816897975927427 5.127459454799212 8.92496655502749 0.01060263653141829 -0.003087736789863704 0.011778967253243991 8.81432901146076" Properties=species:S:1:pos:R:3:tags:I:1:initial_magmoms:R:1:forces:R:3 unique_id=5947980b4d0f4f4fb9c2f8e9b65dee70 stress="-0.00031969979945560556 -4.559914144653209e-06 1.6694394732299865e-05 -4.559914144653209e-06 -0.0003125147629531727 1.2711955059277883e-05 1.6694394732299865e-05 1.2711955059277883e-05 -0.00026289637912622205" energy=-396.66205227554514 pbc="T T T"
Ni       0.04988895       0.04166995       0.15244218        4       1.00000000       0.19378049       0.14194626       0.21869768
Ni       2.58028136       0.03701570       0.20070299        4       1.00000000       0.07606236       0.05792366       0.27152181
Ni       5.06898598      -0.00404554       0.07059646        4       1.00000000      -0.12722944       0.04089101       0.06388752
Pt       7.68134812      -0.03910728      -0.02664156        4       0.00000000      -0.05402115      -0.01765328      -0.20684522
Ni       1.30422125       2.23214429       0.08632486        4       1.00000000       0.10707561       0.03137016       0.07009902
Ni       3.79927399       2.23692864       0.19602137        4       1.00000000      -0.06280481       0.00119543       0.22262878
Pt       6.37135852       2.32108700       0.16094855        4       0.00000000      -0.07590244       0.11552903       0.45824601
Ni       8.99455491       2.27791935       0.04883729        4       1.00000000       0.04554919       0.06681679      -0.01370682
Ni       2.57593209       4.44160653       0.07821849        4       1.00000000       0.03157204      -0.13250378       0.05531394
Ni       5.06957158       4.46710521       0.17010053        4       1.00000000      -0.20425703       0.01973420       0.25460301
Ni       7.74374770       4.46320589       0.07653756        4       1.00000000       0.24140400      -0.00264523       0.03929249
Ni      10.23916133       4.46926448       0.04662902        4       1.00000000       0.01966253       0.00984452      -0.01858340
Ni       3.83240412       6.63568492       0.06191943        4       1.00000000      -0.03687574      -0.18823215       0.07326589
Pt       6.45410410       6.69781374      -0.00025757        4       0.00000000       0.06200717       0.02698191      -0.28567772
Ni       8.98265450       6.68413730       0.14504023        4       1.00000000       0.04085324      -0.05358402       0.16172193
Ni      11.50660789       6.66312263       0.04163039        4       1.00000000      -0.08155362      -0.08804126      -0.07935057
Ni       1.34553285       0.76647767       2.17350418        3       1.00000000       0.00736757       0.05265943      -0.01160704
Ni       3.78797211       0.77180071       2.18769827        3       1.00000000      -0.02515675      -0.00554538       0.01064671
Pt       6.29371771       0.78914703       2.28055179        3       0.00000000      -0.09978547       0.11484064      -0.03698747
Pt       8.99157113       0.79083587       2.18382554        3       0.00000000      -0.02890852      -0.01987022      -0.12826574
Ni       2.60888167       2.96745523       2.18358248        3       1.00000000      -0.02849123       0.07330106      -0.00859664
Ni       5.03592490       3.00222353       2.23933488        3       1.00000000      -0.12843767      -0.01100379       0.16531929
Ni       7.70251828       3.01747117       2.21769716        3       1.00000000       0.05660841      -0.00400000       0.04995498
Pt      10.25125350       2.99999156       2.17902359        3       0.00000000       0.00891483      -0.12018101       0.03314008
Ni       3.85160780       5.14233831       2.22380140        3       1.00000000      -0.01372465      -0.04866731       0.10894477
Pt       6.44444468       5.16957051       2.20318768        3       0.00000000       0.08247537      -0.02257020      -0.09945447
Ni       8.94867263       5.20527633       2.22058133        3       1.00000000       0.04858930      -0.04458103       0.07080706
Pt      11.54399079       5.17826679       2.17354804        3       0.00000000       0.03903779      -0.00370300      -0.04836524
Pt       5.16267695       7.41544325       2.19657949        3       0.00000000       0.02008951      -0.10515923      -0.19965275
Ni       7.69480369       7.46221516       2.21748833        3       1.00000000      -0.03376034      -0.02236999      -0.00571144
Pt      10.13623493       7.43696589       2.24047790        3       0.00000000      -0.10135918      -0.05233288       0.02826016
Pt      12.79021191       7.39661002       2.22706930        3       0.00000000      -0.05690079       0.00696639      -0.09753212
Ni       0.01486274       1.51857879       4.41063976        2       1.00000000       0.12767081      -0.02725464      -0.03642838
Pt       2.59901886       1.50924102       4.28259050        2       0.00000000       0.08892606       0.03018680       0.08833517
Ni       5.10140376       1.47314877       4.39086121        2       1.00000000      -0.00562694       0.02767489       0.13481368
Pt       7.73267655       1.51668246       4.38852356        2       0.00000000       0.04442204       0.09230886       0.15433191
Pt       1.26496842       3.77456737       4.47492057        2       0.00000000       0.01203156      -0.02037132      -0.00086306
Ni       3.83907336       3.76803462       4.35117726        2       1.00000000      -0.02883540       0.07944960      -0.07552061
Pt       6.39344820       3.76680716       4.36285531        2       0.00000000      -0.07685531      -0.00542620       0.08989032
Ni       8.96740931       3.77619038       4.41501855        2       1.00000000       0.02529615       0.13426923      -0.04911806
Ni       2.55381135       5.93094118       4.44281952        2       1.00000000      -0.05582892      -0.07502586      -0.01949936
Ni       5.09147448       5.93630092       4.39036042        2       1.00000000      -0.04520209      -0.12029167      -0.14210032
Ni       7.73720097       5.94041798       4.38616675        2       1.00000000       0.19023952      -0.03994214      -0.13741568
Ni      10.23831522       5.97587225       4.39756594        2       1.00000000       0.01546899      -0.01077019      -0.09142183
Pt       3.80253732       8.09475798       4.44940154        2       0.00000000       0.07614019      -0.02245520       0.02854546
Pt       6.46527683       8.13063258       4.36386063        2       0.00000000       0.08256883       0.04867506       0.01633096
Ni       9.01350829       8.17237461       4.39223429        2       1.00000000       0.01350292      -0.00353485       0.05990572
Ni      11.46355286       8.15632429       4.44653383        2       1.00000000      -0.08888206      -0.09398680      -0.01911161
Pt      -0.05873673       0.04979640       6.59816154        1       0.00000000      -0.13307029       0.03810713       0.09792937
Pt       2.58140871      -0.00858582       6.60800769        1       0.00000000       0.05503344       0.00640639       0.21609882
Ni       5.15641267      -0.02820086       6.50709757        1       1.00000000       0.03233796      -0.08511649      -0.14922585
Ni       7.63007862      -0.03417908       6.43690143        1       1.00000000      -0.17112703      -0.12815314      -0.33807365
Ni       1.23506378       2.27846638       6.55263082        1       1.00000000      -0.04111685       0.01453865      -0.03354753
Pt       3.79739994       2.29062635       6.57367500        1       0.00000000      -0.17439144       0.09297461       0.12878781
Pt       6.43946640       2.21436722       6.52334619        1       0.00000000       0.10175910      -0.07670258      -0.20785682
Ni       8.99723877       2.30261978       6.53269860        1       1.00000000       0.07895241       0.20587035      -0.16569762
Ni       2.51673984       4.52494999       6.54859822        1       1.00000000      -0.09834737       0.17422567      -0.00454599
Pt       5.08782017       4.58074050       6.57259591        1       0.00000000      -0.02656331       0.14727503       0.15553114
Ni       7.72338826       4.47418282       6.53015816        1       1.00000000       0.05949409      -0.03678052      -0.12892562
Ni      10.24273885       4.45849272       6.54469652        1       1.00000000       0.00921589      -0.04124867      -0.04806372
Ni       3.78796167       6.69382062       6.54546639        1       1.00000000      -0.17685457       0.03316340      -0.03776864
Ni       6.39963115       6.68785622       6.43566581        1       1.00000000       0.04129925      -0.02607531      -0.47589509
Pt       9.02077191       6.63462759       6.52577836        1       0.00000000       0.10440522      -0.08027039       0.08430193
Ni      11.55236657       6.70329463       6.51200011        1       1.00000000       0.04205657      -0.04907647      -0.20973733
