64
Lattice="10.274411306893377 -0.01664179614809524 0.029278090064980746 5.122793435217837 8.807845528205522 -0.04854405675660006 0.02390546043415082 -0.05956959964195441 8.776216410221323" Properties=species:S:1:pos:R:3:tags:I:1:initial_magmoms:R:1:forces:R:3 unique_id=ad4366bfb8c140f8bf472c4e393f1295 stress="-7.554258887947085e-05 2.8898986435604295e-06 -1.2892078307980627e-05 2.8898986435604295e-06 -5.215767357713563e-05 3.259445512356489e-05 -1.2892078307980627e-05 3.259445512356489e-05 -3.143387431107231e-05" energy=-394.99814052630614 pbc="T T T"
Ni       0.03929423      -0.04406335       0.18148426        4       1.00000000       0.15276676      -0.08170566       0.31021824
Ni       2.51526127      -0.03630591       0.20563865        4       1.00000000      -0.08310006      -0.02664745       0.37443825
Pt       5.12981393      -0.05584757       0.14867244        4       0.00000000      -0.04456271      -0.15070888       0.35203719
Ni       7.72991821      -0.06733647       0.20708860        4       1.00000000       0.01892405      -0.03143024       0.38361131
Ni       1.27763538       2.20352542       0.09672414        4       1.00000000       0.03430521      -0.01566880       0.25895141
Pt       3.75214592       2.21062080       0.17422720        4       0.00000000      -0.09268623       0.05708953       0.17119708
Pt       6.45168083       2.21287078       0.10784072        4       0.00000000       0.06269393       0.08247106      -0.00672204
Pt       9.06936980       2.22973364       0.13331651        4       0.00000000       0.10378440       0.03369938       0.13072941
Ni       2.53355027       4.43112823       0.03753482        4       1.00000000       0.01590046       0.04894122      -0.00246768
Pt       5.12409780       4.51032751       0.07680530        4       0.00000000      -0.03015149       0.16203929      -0.09541529
Ni       7.70958421       4.44347411       0.06237093        4       1.00000000      -0.02332908       0.10742747       0.06959192
Ni      10.30181102       4.41447503       0.05700299        4       1.00000000       0.14594357       0.11567601       0.03566827
Ni       3.82366164       6.63772993       0.06575401        4       1.00000000      -0.02213745       0.13072178       0.17803410
Ni       6.42693492       6.64052030       0.08366369        4       1.00000000       0.06016573       0.10240656       0.17998162
Ni       8.94594446       6.56252094       0.12727412        4       1.00000000      -0.13203010      -0.06293717       0.17672108
Ni      11.58726666       6.55516640       0.05611514        4       1.00000000       0.11611684      -0.08121933       0.04629526
Ni       1.31891437       0.72412004       2.21890724        3       1.00000000       0.03795133       0.03708903       0.16432723
Ni       3.81104444       0.74697702       2.25558512        3       1.00000000      -0.05269173       0.06674612       0.03514177
Ni       6.42839105       0.75186889       2.25961598        3       1.00000000      -0.08233196       0.06117767       0.08453064
Pt       9.01919206       0.70499651       2.24753372        3       0.00000000       0.08803325       0.18470516      -0.06751765
Ni       2.55792503       2.89058493       2.26754049        3       1.00000000       0.02178164      -0.12775905       0.20374756
Ni       5.11912804       2.91920375       2.25305895        3       1.00000000      -0.14722525       0.02940368       0.01676671
Ni       7.68586866       2.90462906       2.24816737        3       1.00000000       0.02053643      -0.13609136      -0.01957287
Ni      10.32556854       2.88564393       2.26925409        3       1.00000000       0.12589931      -0.10054911       0.17501544
Ni       3.86326290       5.12091456       2.19679129        3       1.00000000       0.02997134      -0.04848628       0.07054268
Ni       6.40599115       5.13730713       2.18378667        3       1.00000000      -0.01530711       0.01178656      -0.02784423
Pt       8.92046110       5.05674474       2.20927766        3       0.00000000      -0.04922655      -0.18314257       0.03618825
Pt      11.62956323       5.04631048       2.21727623        3       0.00000000       0.09389398      -0.15110299       0.08718317
Ni       5.16600642       7.29701907       2.12894701        3       1.00000000       0.05945233      -0.09070287      -0.04196784
Ni       7.62614962       7.33621872       2.14765677        3       1.00000000      -0.15080948      -0.04495067       0.03532092
Pt      10.26690290       7.28655790       2.18142193        3       0.00000000      -0.00926288       0.02022210      -0.23773286
Ni      12.87672707       7.28294594       2.14394996        3       1.00000000       0.11923265      -0.14806286      -0.01967913
Ni       0.07181729       1.48752321       4.32394734        2       1.00000000       0.16231932       0.07990518      -0.07265453
Ni       2.53278190       1.48426506       4.30309614        2       1.00000000      -0.07164087       0.10085043      -0.09452801
Ni       5.13231394       1.46230626       4.30487306        2       1.00000000      -0.14891518       0.01312126      -0.20687661
Ni       7.71693345       1.44885694       4.34982203        2       1.00000000       0.07123136      -0.04948530      -0.06797415
Ni       1.29448712       3.62753880       4.36597384        2       1.00000000       0.02455772      -0.03972839      -0.00645420
Ni       3.80996817       3.64447766       4.29397544        2       1.00000000      -0.10882869      -0.00617428      -0.25741981
Pt       6.45914348       3.59136704       4.33395604        2       0.00000000       0.02733826      -0.06072786      -0.10997751
Ni       9.03420663       3.65240943       4.33603459        2       1.00000000       0.12313808      -0.02004503      -0.12040964
Ni       2.55967838       5.77852777       4.36305070        2       1.00000000       0.02204562      -0.12129024      -0.01909758
Pt       5.14706372       5.81655974       4.32500623        2       0.00000000       0.02572733      -0.01795777      -0.10720989
Ni       7.70246509       5.81528641       4.34476353        2       1.00000000      -0.03088234      -0.02043497      -0.05674263
Ni      10.29466996       5.76097812       4.37903482        2       1.00000000       0.05744724      -0.10757996      -0.00961068
Pt       3.89329797       8.04335817       4.26994942        2       0.00000000       0.04663730      -0.02421002       0.14391993
Ni       6.42030627       8.05671625       4.26890809        2       1.00000000      -0.07713718       0.07407858      -0.16517944
Pt       8.89282235       8.05126183       4.25084700        2       0.00000000      -0.10299623       0.00823977       0.06425283
Pt      11.58120061       8.00663609       4.27680143        2       0.00000000       0.00961645      -0.02938725       0.08227456
Pt       0.02908071      -0.07422692       6.54986348        1       0.00000000       0.05806425      -0.03045336       0.17681624
Pt       2.55367087      -0.03849595       6.55019241        1       0.00000000      -0.12831731       0.05355135       0.21185261
Pt       5.15473913      -0.02940175       6.46565868        1       0.00000000       0.02722136       0.07688543      -0.44080119
Pt       7.72497953      -0.08946445       6.59652802        1       0.00000000      -0.13480539      -0.04690242       0.18644452
Ni       1.29561457       2.22391833       6.46123355        1       1.00000000       0.00392799       0.14234230      -0.20485301
Pt       3.84322991       2.27805598       6.39403807        1       0.00000000      -0.05781817       0.26641421      -0.24358047
Ni       6.43689940       2.19278366       6.43028800        1       1.00000000      -0.02830131       0.03692111      -0.23143901
Pt       9.01910855       2.24904721       6.39618472        1       0.00000000      -0.00852312       0.12665377      -0.34336700
Ni       2.54290347       4.40350194       6.45035309        1       1.00000000      -0.08347690       0.12015818      -0.24723890
Ni       5.15416253       4.39301376       6.42422107        1       1.00000000      -0.01591904       0.09158208      -0.20974977
Ni       7.67429690       4.35410782       6.48750047        1       1.00000000      -0.20022682      -0.01396937      -0.17447601
Ni      10.34518136       4.35200009       6.47462032        1       1.00000000       0.23168008       0.00077889      -0.24959741
Ni       3.84332682       6.49456197       6.48317602        1       1.00000000      -0.06541282      -0.15698099      -0.07747316
Ni       6.41215527       6.50630202       6.48269811        1       1.00000000      -0.01837074      -0.04910475      -0.09546372
Pt       8.99612094       6.42919740       6.49962241        1       0.00000000       0.00502866      -0.09791064       0.07076862
Ni      11.59012516       6.47704895       6.48613232        1       1.00000000       0.01308998      -0.06957730      -0.18147491
