64
Lattice="10.294322143301574 0.005633415174292016 0.032369558885600405 5.152039752301789 8.907224042728991 0.003964955458339118 0.026429634156231438 -0.011520960539091222 8.830891079469536" Properties=species:S:1:pos:R:3:tags:I:1:initial_magmoms:R:1:forces:R:3 unique_id=32c9f321c91b4a75a659dee63c8d924c stress="0.0002943850365669243 4.575209145899986e-06 -2.9035720233953365e-05 4.575209145899986e-06 0.00029878917730712107 9.594890079823983e-06 -2.9035720233953365e-05 9.594890079823983e-06 0.0002813048855037775" energy=-398.1275433608055 pbc="T T T"
Ni       0.01518329      -0.00702483       0.17518646        4       1.00000000       0.04670356       0.04159118       0.33701587
Ni       2.54579716       0.01423140       0.20535608        4       1.00000000      -0.05687634       0.09183347       0.44152183
Pt       5.14131099      -0.03105734       0.14683512        4       0.00000000      -0.04026025      -0.06785247       0.31547863
Ni       7.74809058      -0.05085835       0.20678707        4       1.00000000       0.04691390      -0.09315698       0.38639415
Ni       1.29737301       2.23347028       0.10761142        4       1.00000000       0.04605307       0.03145397       0.26479029
Pt       3.77950811       2.28212912       0.19412059        4       0.00000000      -0.04820017       0.12206252       0.10918694
Pt       6.43611284       2.23350786       0.13367270        4       0.00000000       0.03931842       0.04832570      -0.00364803
Pt       9.10563249       2.23259314       0.14790988        4       0.00000000       0.13222431       0.02802245       0.10608722
Ni       2.57651742       4.48732762       0.06923171        4       1.00000000       0.08568349       0.10316827      -0.00644079
Ni       5.10821698       4.48806538       0.20304394        4       1.00000000      -0.07525024       0.07091778       0.34172611
Pt       7.73637431       4.49975735       0.05413076        4       0.00000000       0.05376518       0.10276629      -0.20424114
Ni      10.35739386       4.47979522       0.08925504        4       1.00000000       0.17744611       0.05876109       0.13485335
Ni       3.82853591       6.67422840       0.11372940        4       1.00000000      -0.07917900      -0.02751741       0.21697822
Pt       6.40088934       6.74020912       0.20442865        4       0.00000000      -0.05369468       0.04638480       0.11756002
Ni       9.03289094       6.67892457       0.09326234        4       1.00000000       0.02805945      -0.01492637       0.16304438
Ni      11.62283708       6.65462426       0.09706139        4       1.00000000       0.12327121      -0.03736135       0.10268056
Ni       1.32502888       0.75183196       2.23939205        3       1.00000000       0.04752461       0.06448614       0.14618073
Ni       3.82685270       0.78357719       2.26564287        3       1.00000000      -0.03056201       0.13290135       0.05190253
Ni       6.44017122       0.78687604       2.27252535        3       1.00000000      -0.08226235       0.10595815       0.07614204
Pt       9.03486621       0.74154289       2.27470594        3       0.00000000       0.05960766       0.21419244      -0.04387029
Ni       2.57546387       2.93772770       2.29514435        3       1.00000000       0.01722353      -0.13347792       0.21993912
Ni       5.13155565       2.97874977       2.27478999        3       1.00000000      -0.16753099      -0.02168039       0.06745528
Ni       7.70945616       2.95078118       2.27966869        3       1.00000000       0.05680560      -0.08924896      -0.07018796
Ni      10.35315373       2.94509062       2.29341703        3       1.00000000       0.16659127      -0.08558879       0.15318576
Ni       3.89391406       5.18048059       2.20443463        3       1.00000000      -0.00286136      -0.08833445      -0.04723991
Ni       6.40606422       5.18260270       2.23525467        3       1.00000000       0.03994609      -0.06285682      -0.13511221
Pt       8.97084482       5.15127866       2.28399722        3       0.00000000      -0.12254506      -0.20804447      -0.10971553
Pt      11.68430786       5.13470662       2.22371491        3       0.00000000       0.11477581      -0.14293285       0.09873244
Ni       5.15586741       7.41600461       2.23507935        3       1.00000000       0.00549830       0.01338679       0.02409817
Ni       7.68702161       7.45976141       2.25017390        3       1.00000000      -0.15777694       0.01125994       0.04096912
Pt      10.30608026       7.40907517       2.23618102        3       0.00000000       0.01247939      -0.00831097      -0.30077293
Ni      12.91848320       7.39791671       2.20881831        3       1.00000000       0.11797217      -0.14930044      -0.00577335
Ni       0.07230979       1.52656928       4.35521564        2       1.00000000       0.16312626       0.08659324      -0.11227400
Ni       2.54344861       1.52564407       4.33550710        2       1.00000000      -0.08463390       0.06395581      -0.17871867
Ni       5.14411317       1.51301514       4.35133960        2       1.00000000      -0.15890836       0.02204735      -0.21023867
Ni       7.74122364       1.50483058       4.38755048        2       1.00000000       0.06798639      -0.04345946      -0.09277792
Ni       1.32660879       3.65454212       4.40818347        2       1.00000000       0.05903351      -0.09933928      -0.05768403
Ni       3.82276063       3.69741751       4.33755644        2       1.00000000      -0.11513381      -0.04524021      -0.23791539
Pt       6.48241965       3.65355016       4.34736926        2       0.00000000      -0.04459159      -0.04297837      -0.01635977
Ni       9.04073566       3.68543354       4.38189808        2       1.00000000       0.08908278      -0.18256090      -0.25082725
Ni       2.59470897       5.87672940       4.41990774        2       1.00000000       0.02748033      -0.12218856      -0.03430893
Pt       5.14296958       5.89973854       4.29142738        2       0.00000000       0.02736898      -0.09795949       0.04544978
Ni       7.73945944       5.91747023       4.39536390        2       1.00000000      -0.06136502      -0.01071185      -0.14127746
Pt      10.32422744       5.84440375       4.51115613        2       0.00000000       0.07766731      -0.03774326       0.03760003
Pt       3.92099378       8.16507818       4.35526541        2       0.00000000       0.03260846      -0.04727017       0.21966600
Ni       6.45037674       8.19588405       4.33756907        2       1.00000000      -0.08742292       0.08472047      -0.15007335
Pt       8.92749433       8.19327645       4.33419944        2       0.00000000      -0.10729967       0.08600520       0.09742677
Pt      11.63070394       8.18176818       4.33988816        2       0.00000000       0.05949420       0.04284604       0.04745097
Pt       0.02165643       0.01504875       6.57658867        1       0.00000000      -0.00282706       0.05953824       0.15294963
Pt       2.57470126       0.01379470       6.59560771        1       0.00000000      -0.03848565       0.04180406       0.17970977
Pt       5.16257611      -0.03779124       6.50836685        1       0.00000000      -0.00700608      -0.04386937      -0.40306876
Pt       7.72910190      -0.03620251       6.63898998        1       0.00000000      -0.09174030      -0.04088327       0.19283976
Ni       1.29392034       2.28628128       6.51632463        1       1.00000000      -0.07068250       0.19478125      -0.22127332
Pt       3.82007421       2.27149471       6.44707014        1       0.00000000      -0.12116751       0.11695359      -0.23854478
Ni       6.46282263       2.23193719       6.48759202        1       1.00000000      -0.04405750      -0.01137325      -0.24400041
Pt       9.03830135       2.32138372       6.45471362        1       0.00000000      -0.03894201       0.08231130      -0.31079517
Ni       2.53366088       4.47574494       6.52673962        1       1.00000000      -0.15308005       0.06598606      -0.25601862
Pt       5.13760277       4.44950258       6.60131381        1       0.00000000      -0.05976934       0.03142208       0.17051684
Ni       7.77614232       4.46026508       6.46279840        1       1.00000000       0.07882416       0.07361704      -0.47493557
Ni      10.34456796       4.46002537       6.58289218        1       1.00000000       0.09704968      -0.03019532      -0.01356050
Ni       3.83159907       6.63539780       6.56083578        1       1.00000000      -0.09966458      -0.08400447      -0.11900199
Pt       6.50246297       6.63572792       6.49544768        1       0.00000000       0.00050109       0.01829575      -0.23245908
Ni       9.05493830       6.61457223       6.57809274        1       1.00000000       0.04609733      -0.11304538      -0.07673230
Ni      11.61467691       6.61051141       6.59194015        1       1.00000000       0.05959362      -0.07493657      -0.05968421
