64
Lattice="9.83425485149486 0.0020020576627231288 -0.014281722265771134 4.91886125854319 8.519717615178992 -6.3300653291261385e-15 0.0 0.0 21.247935424737328" Properties=species:S:1:pos:R:3:tags:I:1:initial_magmoms:R:1:forces:R:3 unique_id=db921a3d2ddd40d7b43d23ed2ecb08ea stress="0.003812806284095565 -1.150364293128821e-05 -8.835905554430692e-05 -1.150364293128821e-05 0.0037995230214093213 5.1014124503792025e-05 -8.835905554430692e-05 5.1014124503792025e-05 -0.0019016779669132657" energy=-355.5306126190975 pbc="T T T"
Ni      -0.06973560      -0.00958671       0.08802178        1       1.00000000       0.04880531      -0.03371979      -0.10173107
Pt       2.48720163      -0.01603359       0.00000000        0       0.00000000       0.08404180      -0.04852156      -0.53185244
Ni       4.98130474       0.00215315       0.11051171        1       1.00000000      -0.09332514      -0.02408703      -0.00014524
Ni       7.36766275       0.00161849       0.10249720        1       1.00000000       0.01390992      -0.01142453       0.06667140
Ni       1.20314985       2.19511556       0.08802178        1       1.00000000       0.05360485      -0.02540675      -0.10173107
Ni       3.71421305       2.17973047       0.10934816        1       1.00000000      -0.06337913      -0.06710153      -0.03326669
Ni       6.15133323       2.13682655       0.11887703        1       1.00000000       0.03146392      -0.01726833      -0.03942995
Ni       8.59213271       2.13909454       0.10130912        1       1.00000000      -0.01039358       0.00600073       0.03850334
Ni       2.45788456       4.27797392       0.11308961        1       1.00000000      -0.01024272       0.02957643       0.03860320
Ni       4.91358118       4.26290726       0.12040922        1       1.00000000      -0.02623961       0.01514945      -0.04001290
Ni       7.37369711       4.25402290       0.11887703        1       1.00000000       0.03068677      -0.01861439      -0.03942995
Ni       9.83100629       4.26825467       0.10249720        1       1.00000000       0.01684890      -0.00633408       0.06667140
Ni       3.67268476       6.38206959       0.11308961        1       1.00000000      -0.03073530      -0.00591776       0.03860320
Ni       6.11798113       6.34317893       0.10934816        1       1.00000000       0.02642206       0.08843871      -0.03326669
Ni       8.63736426       6.33463399       0.11051171        1       1.00000000      -0.02580259       0.09286546      -0.00014524
Ni      11.07000425       6.38830649       0.10390289        1       1.00000000       0.02337735      -0.01349692       0.04934070
Pt       1.20046525       0.72686400       2.17679931        3       0.00000000      -0.04226594       0.02440225      -0.09585709
Ni       3.73856417       0.71825943       2.15398036        3       1.00000000      -0.02060768      -0.02632292      -0.00167149
Ni       6.14709172       0.70940769       2.13869742        2       1.00000000      -0.01839418      -0.01989325       0.06202105
Ni       8.54498985       0.71084474       2.12943638        2       1.00000000      -0.00200298      -0.02551069       0.04197868
Ni       2.47367904       2.88888750       2.13535715        2       1.00000000      -0.01765972       0.01565686       0.01230772
Ni       4.90511525       2.83873220       2.10680229        2       1.00000000      -0.01806287       0.00271516       0.03007285
Ni       7.38586879       2.83553134       2.10226344        2       1.00000000      -0.00290148       0.00167517       0.03931194
Ni       9.80546189       2.89404637       2.12943638        2       1.00000000       0.02109141       0.01448997       0.04197868
Ni       3.68037755       4.97489771       2.14009191        2       1.00000000      -0.01732343       0.01000169       0.04164655
Ni       6.14272000       4.98232651       2.10680229        2       1.00000000      -0.01138283       0.01428533       0.03007285
Ni       8.60775735       4.97140559       2.13869742        2       1.00000000       0.00803097       0.02587645       0.06202105
Ni      11.06142592       4.98249334       2.12953453        2       1.00000000      -0.00768150       0.01642313       0.02449970
Ni       4.88356613       7.06293438       2.13535715        2       1.00000000      -0.02238910       0.00746533       0.01230772
Ni       7.39582775       7.05282576       2.15398036        3       1.00000000       0.01249247       0.03100824      -0.00167149
Ni       9.84413299       7.09606359       2.13287252        2       1.00000000      -0.00498479       0.00287797       0.00270461
Ni      12.28318498       7.09864212       2.12953453        2       1.00000000      -0.01806360      -0.00155919       0.02449970
Ni      -0.02597295       1.43494842       4.23704849        4       1.00000000       0.02381486      -0.01374952      -0.03631121
Ni       2.47198154       1.45089758       4.20749586        4       1.00000000       0.01172068       0.04840252      -0.07952839
Ni       4.89577540       1.38292580       4.18981180        4       1.00000000       0.00507103      -0.02259861      -0.04699530
Ni       7.38723407       1.38339757       4.18438400        4       1.00000000      -0.01303217      -0.01508302      -0.00583307
Ni       1.22373841       3.56182154       4.18862577        4       1.00000000       0.00253132       0.02641752      -0.04356292
Ni       3.63886228       3.56241100       4.18963499        4       1.00000000       0.00028982       0.04025686      -0.02880279
Pt       6.14218480       3.55357263       4.18631531        4       0.00000000       0.00410441      -0.00236968       0.12570589
Ni       8.64413618       3.56041586       4.18438400        4       1.00000000       0.00654619       0.01882770      -0.00583307
Ni       2.44654574       5.68725084       4.18801961        4       1.00000000      -0.01127072       0.00650715      -0.02856730
Ni       4.88286929       5.71709435       4.18963499        4       1.00000000      -0.03471856      -0.02037942      -0.02880279
Ni       7.39881540       5.71831825       4.18981180        4       1.00000000       0.02210648       0.00690766      -0.04699530
Ni       9.83877107       5.68695989       4.17793915        4       1.00000000       0.02885435      -0.00101779      -0.02864092
Ni       3.67581785       7.80894770       4.18862577        4       1.00000000      -0.02161259      -0.01540095      -0.04356292
Ni       6.12805318       7.78339941       4.20749586        4       1.00000000      -0.03605747      -0.03435167      -0.07952839
Ni       8.61857164       7.80364177       4.16455568        4       1.00000000       0.03267482      -0.01886482      -0.11837495
Ni      11.06177163       7.80525900       4.17793915        4       1.00000000       0.01530861      -0.02447971      -0.02864092
Ni      -0.00944247       0.00006724       6.20473067        6       1.00000000       0.01083704      -0.01956392       0.04376328
Ni       2.45613705       0.00190155       6.06801180        5       1.00000000       0.03898249      -0.02250655       0.83076149
Ni       4.91279765      -0.00624968       6.20286906        6       1.00000000      -0.01161568      -0.01580116      -0.04888320
Ni       7.37267380      -0.00459356       6.20444495        6       1.00000000      -0.01139632      -0.00856824      -0.04996409
Ni       1.22493585       2.13807321       6.20473067        6       1.00000000       0.02236137       0.00039681       0.04376328
Ni       3.68090741       2.13490377       6.21059666        6       1.00000000      -0.00631815      -0.01871430      -0.01532750
Ni       6.14144866       2.10223139       6.24601643        6       1.00000000       0.00627493      -0.03502501       0.10102054
Ni       8.60205252       2.13336734       6.21065169        6       1.00000000      -0.01188248       0.00686035      -0.00044480
Ni       2.44609783       4.26578753       6.21492996        6       1.00000000       0.00243046       0.02149003      -0.05157453
Ni       4.88606179       4.27879559       6.24793542        6       1.00000000      -0.02992007       0.01727436       0.09386390
Ni       7.39871512       4.27988077       6.24601643        6       1.00000000       0.03347002       0.01207825       0.10102054
Ni       9.83889162       4.26702099       6.20444495        6       1.00000000       0.00172215       0.01415362      -0.04996409
Ni       3.67734512       6.39837040       6.21492996        6       1.00000000      -0.01739568      -0.01284985      -0.05157453
Ni       6.14014938       6.39443581       6.21059666        6       1.00000000       0.01304798       0.01482882      -0.01532750
Ni       8.61038778       6.39816429       6.20286906        6       1.00000000       0.00787636       0.01796006      -0.04888320
Ni      11.06035908       6.39387513       6.20199362        6       1.00000000       0.00825691      -0.00476713      -0.06158025
