64
Lattice="10.31185961520061 -0.01984453108087297 0.06261235358651232 5.13874393955808 8.843938339420843 0.029819500080583226 0.051122772627225276 -0.0014016522466175846 8.8061986861994" Properties=species:S:1:pos:R:3:tags:I:1:initial_magmoms:R:1:forces:R:3 unique_id=a0c3fb6bf6e84a59a734f289f6c6aba0 stress="0.00024155674317690584 4.906109594032942e-06 -2.625645265666878e-05 4.906109594032942e-06 0.000251909966513926 1.4628204459166634e-05 -2.625645265666878e-05 1.4628204459166634e-05 0.00023312475174638858" energy=-397.40527994085403 pbc="T T T"
Ni       0.01626443       0.00610350       0.17667653        4       1.00000000       0.08418184       0.06442076       0.33356883
Ni       2.58239286       0.00635326       0.21532448        4       1.00000000       0.03355839       0.03004550       0.43419974
Ni       5.15539312      -0.03047825       0.18567686        4       1.00000000      -0.02504252       0.08413574       0.22307759
Ni       7.73614810      -0.07206282       0.23377698        4       1.00000000       0.00495228      -0.07828652       0.39290868
Ni       1.29515935       2.21813027       0.11457577        4       1.00000000       0.04759933       0.01048511       0.24809897
Pt       3.77896866       2.16906271       0.20226350        4       0.00000000      -0.02547502       0.03426521       0.16115307
Pt       6.44470457       2.12060566       0.14201895        4       0.00000000       0.07451749      -0.07241543      -0.02933665
Pt       9.11934016       2.19850012       0.17110600        4       0.00000000       0.14874579      -0.00089524       0.10928675
Ni       2.52668569       4.44663120       0.06942536        4       1.00000000      -0.04244735       0.03574178       0.00312320
Pt       5.09989596       4.45038918       0.06261814        4       0.00000000      -0.04071472       0.04455459      -0.17555508
Pt       7.78281085       4.45781634       0.07937842        4       0.00000000       0.14450013       0.09765850      -0.16371009
Ni      10.36644166       4.43877415       0.11954326        4       1.00000000       0.14443004       0.10267023       0.02049336
Ni       3.80468583       6.67671882       0.10923992        4       1.00000000      -0.05722400       0.10639350       0.16068215
Pt       6.44056502       6.73357377       0.23003160        4       0.00000000       0.01595411       0.07015194       0.28483822
Ni       9.05608013       6.66157132       0.12113082        4       1.00000000       0.07302217       0.07665191      -0.00136143
Ni      11.61056972       6.62325606       0.12974773        4       1.00000000       0.12767753      -0.00486237      -0.00428795
Ni       1.33332415       0.74681868       2.23868673        3       1.00000000       0.05041213       0.05368208       0.15585726
Ni       3.84531803       0.75241561       2.27349793        3       1.00000000      -0.07413723       0.13893854       0.15999166
Ni       6.44852749       0.75231636       2.28311880        3       1.00000000      -0.03123518       0.09305847       0.18308784
Pt       9.04828031       0.72323693       2.30067357        3       0.00000000       0.03279348       0.22858177      -0.04015491
Ni       2.55666992       2.89593575       2.28907729        3       1.00000000      -0.05924913      -0.10988840       0.21123386
Ni       5.16186265       2.90334925       2.29710694        3       1.00000000      -0.10892809      -0.09020913       0.01973294
Ni       7.72025931       2.91644290       2.29941121        3       1.00000000       0.04846251      -0.06046405      -0.09220312
Ni      10.36208257       2.90299931       2.32307548        3       1.00000000       0.08817554      -0.09458040       0.15926114
Pt       3.86818650       5.15330384       2.26045902        3       0.00000000      -0.02663254      -0.10757892      -0.20418700
Ni       6.45207260       5.14737891       2.27433028        3       1.00000000       0.01019873      -0.02754986      -0.10797432
Pt       8.98679065       5.12095375       2.34710002        3       0.00000000      -0.12391446      -0.08290767      -0.10983159
Pt      11.60670324       5.09030682       2.29427186        3       0.00000000      -0.03076429      -0.07104060       0.11730801
Ni       5.17580717       7.39452096       2.26105372        3       1.00000000       0.07023017       0.04036749       0.10172982
Ni       7.70236077       7.40613579       2.28948577        3       1.00000000      -0.10626005       0.04152952       0.12394470
Pt      10.30671189       7.40296040       2.20000184        3       0.00000000      -0.00171635      -0.02363511      -0.04739782
Ni      12.89914924       7.35446813       2.25616382        3       1.00000000       0.01765926      -0.07264228       0.03142790
Ni       0.08270268       1.52684560       4.34446727        2       1.00000000       0.17449574       0.09838015      -0.08656604
Ni       2.56016108       1.51315259       4.34352907        2       1.00000000      -0.07206503       0.07191880      -0.09682785
Ni       5.16500171       1.48216037       4.36307174        2       1.00000000      -0.12933071      -0.04766254      -0.13778793
Ni       7.75759650       1.48139575       4.40236413        2       1.00000000       0.04274200      -0.06898222      -0.05820751
Ni       1.30635522       3.67138579       4.41320587        2       1.00000000      -0.00583226      -0.02396672      -0.02486833
Ni       3.83322424       3.67100232       4.36731696        2       1.00000000      -0.15969118      -0.11373814      -0.18767328
Pt       6.49557098       3.62407707       4.39021903        2       0.00000000       0.02065860      -0.09091924      -0.14986920
Ni       9.08292182       3.69188739       4.41075894        2       1.00000000       0.17134644      -0.08263049      -0.13257480
Ni       2.55646183       5.84028834       4.44428205        2       1.00000000      -0.10312156      -0.13065704       0.04124813
Pt       5.16888806       5.86285127       4.38405201        2       0.00000000       0.16626051       0.02940316       0.08038469
Ni       7.77996494       5.86294073       4.42148737        2       1.00000000      -0.03426279      -0.02032728      -0.00318137
Ni      10.32689110       5.82429506       4.49994257        2       1.00000000       0.03590220      -0.06919167       0.05184436
Pt       3.90741610       8.10926620       4.37291575        2       0.00000000      -0.03520567      -0.01684092       0.19830777
Ni       6.46135204       8.13804439       4.35717695        2       1.00000000      -0.04771574       0.09163396      -0.08329040
Pt       8.96407329       8.09317752       4.37930546        2       0.00000000      -0.05971721       0.05672629       0.14698623
Pt      11.61052000       8.06908934       4.39378594        2       0.00000000      -0.00399682      -0.03839178       0.08800893
Pt       0.04245388       0.00941062       6.55732846        1       0.00000000      -0.02291378       0.02167155       0.14225841
Pt       2.60065848       0.01238850       6.57873023        1       0.00000000      -0.05738241       0.09455482       0.17899660
Pt       5.18583643      -0.05306966       6.61067348        1       0.00000000      -0.01783973      -0.08931604       0.04806386
Pt       7.75526475      -0.05849404       6.64481781        1       0.00000000      -0.09985702      -0.08783032       0.23350985
Ni       1.31644744       2.27774068       6.50414606        1       1.00000000      -0.02900668       0.22614107      -0.22553365
Pt       3.88129023       2.30147545       6.44928399        1       0.00000000      -0.05849977       0.12687937      -0.19165381
Ni       6.47491491       2.22449746       6.49128256        1       1.00000000      -0.02926748      -0.00830909      -0.23766344
Pt       9.06471453       2.29185834       6.45997308        1       0.00000000      -0.00394336       0.07507172      -0.33563125
Ni       2.56395878       4.45035574       6.51346439        1       1.00000000      -0.15716691       0.04784331      -0.24122036
Ni       5.16630466       4.40640825       6.47309106        1       1.00000000      -0.05277346       0.00137457      -0.39376309
Ni       7.78164095       4.41224601       6.46992887        1       1.00000000       0.09824436       0.00225709      -0.42313960
Ni      10.36927038       4.44055345       6.55664510        1       1.00000000       0.08733704       0.05625843      -0.22872147
Ni       3.84753858       6.56104975       6.55615439        1       1.00000000      -0.09898030      -0.19228792      -0.10245994
Pt       6.49893515       6.53997738       6.52156572        1       0.00000000      -0.00002219      -0.05666847      -0.14279138
Ni       9.07955380       6.54227652       6.56771925        1       1.00000000       0.07561521      -0.18930671      -0.21550665
Ni      11.61831052       6.53134220       6.59367681        1       1.00000000      -0.05734006      -0.12946433      -0.16968325
