64
Lattice="10.249307864401677 -0.012930348701350463 0.03688246309330348 5.1134559217456745 8.835010713678138 0.021602056590630164 0.030114405011875414 0.0029800544303218842 8.763196948082534" Properties=species:S:1:pos:R:3:tags:I:1:initial_magmoms:R:1:forces:R:3 unique_id=a1ee35d424a64ce4b4688afd1bfd7c6e stress="0.0001967493892178901 4.80074838088965e-06 -1.919398448881546e-05 4.80074838088965e-06 0.00019417151301596297 -7.653774147406708e-06 -1.919398448881546e-05 -7.653774147406708e-06 0.00019549664704873043" energy=-395.2502622416415 pbc="T T T"
Ni       0.00587189       0.02324061       0.17489712        4       1.00000000       0.03208559       0.06008540       0.27422896
Ni       2.52938687       0.01080156       0.21935866        4       1.00000000      -0.05829294       0.07475513       0.40631037
Pt       5.12499299      -0.03985999       0.16082129        4       0.00000000      -0.00818369      -0.09713464       0.32173595
Ni       7.72617567      -0.04928092       0.21102497        4       1.00000000       0.04314991      -0.08276214       0.32355675
Ni       1.24017825       2.21645184       0.11672543        4       1.00000000      -0.10869417       0.03973584       0.22187538
Pt       3.76466118       2.26627588       0.20204820        4       0.00000000      -0.07481878       0.10370163       0.17931566
Pt       6.44968574       2.20341221       0.13440266        4       0.00000000       0.12478290       0.08395488      -0.00855345
Ni       9.02024823       2.19747125       0.18358817        4       1.00000000       0.12544935       0.06699240       0.14925792
Ni       2.55052093       4.45231109       0.07992220        4       1.00000000       0.04823348       0.09634456       0.00650789
Ni       5.08707940       4.44714289       0.12782382        4       1.00000000      -0.01190818       0.07977311       0.22817960
Pt       7.75926148       4.43073717       0.13460958        4       0.00000000       0.12557828       0.01739851      -0.07503323
Ni      10.28764334       4.39469029       0.12109262        4       1.00000000       0.15663389      -0.04376616       0.09505672
Ni       3.80004549       6.61777266       0.12405681        4       1.00000000      -0.05448146      -0.02213392       0.17917695
Pt       6.35448064       6.66556805       0.20531570        4       0.00000000      -0.07776004       0.04651619       0.06263621
Ni       8.97493345       6.60452624       0.19576635        4       1.00000000      -0.02196464       0.00606486       0.22183820
Ni      11.56283484       6.58124283       0.11808009        4       1.00000000       0.10057560      -0.05231260       0.04187205
Ni       1.29457363       0.73785881       2.19054542        3       1.00000000      -0.05359877       0.01317159       0.04338967
Ni       3.82718516       0.75437324       2.23685220        3       1.00000000       0.06472689       0.01332472       0.00502161
Ni       6.41661953       0.76921185       2.26896356        3       1.00000000      -0.05103815       0.09185405       0.09954385
Pt       8.99141248       0.76099734       2.22484261        3       0.00000000      -0.02109078       0.07290915       0.14979365
Ni       2.55063522       2.95402566       2.24028407        3       1.00000000       0.01549835       0.04510777      -0.02580203
Ni       5.12054090       2.96803750       2.26361566        3       1.00000000      -0.08820443       0.04310891       0.00218820
Ni       7.70700650       2.95869637       2.27493291        3       1.00000000       0.07610825       0.06834611       0.06189138
Ni      10.25516641       2.93369856       2.24801375        3       1.00000000       0.03039907       0.02054976       0.10892712
Ni       3.88006884       5.14858753       2.22301622        3       1.00000000       0.10085425      -0.02240834       0.01743126
Ni       6.39096854       5.14891526       2.26606862        3       1.00000000      -0.01826627       0.06088731      -0.06519764
Ni       8.94589605       5.11069923       2.28457171        3       1.00000000      -0.04115542      -0.18085727       0.19182701
Pt      11.57472336       5.07456165       2.25506405        3       0.00000000       0.12237581      -0.08953690       0.06154211
Ni       5.12277207       7.33810172       2.25120696        3       1.00000000       0.04159059      -0.11071375      -0.01424649
Ni       7.64164045       7.35487354       2.25075007        3       1.00000000      -0.17093426      -0.09563595       0.02854611
Pt      10.23021954       7.28484365       2.24298855        3       0.00000000      -0.02818708      -0.04383574      -0.16259065
Ni      12.84987175       7.32076481       2.20711607        3       1.00000000       0.11058958      -0.16844335      -0.03123528
Ni       0.00407687       1.52668924       4.33117989        2       1.00000000      -0.08705798       0.12885407      -0.07059337
Pt       2.50980596       1.54822997       4.26454916        2       0.00000000      -0.03384809       0.04755304       0.13347321
Ni       5.15248440       1.50314634       4.32095380        2       1.00000000      -0.07826132       0.02573857      -0.19832902
Ni       7.70874834       1.49911811       4.36512658        2       1.00000000       0.04774713       0.01586260      -0.05387756
Ni       1.26847501       3.71495813       4.39062479        2       1.00000000      -0.04866548       0.01819444      -0.00007735
Ni       3.84137417       3.75126259       4.32563560        2       1.00000000      -0.08275800       0.08552902      -0.23587548
Pt       6.41158133       3.69156960       4.34529537        2       0.00000000      -0.02776068      -0.03184023      -0.06718865
Ni       9.00860839       3.69856686       4.35103739        2       1.00000000       0.05357309       0.01967545      -0.21958191
Ni       2.58268568       5.82601342       4.39361080        2       1.00000000       0.02038825      -0.09981997      -0.09371780
Ni       5.10788363       5.84990226       4.32367797        2       1.00000000      -0.00560985      -0.11198523      -0.23577246
Ni       7.69543542       5.84706693       4.32513892        2       1.00000000       0.00218088      -0.05724814      -0.21964246
Ni      10.27063463       5.80041840       4.40124376        2       1.00000000       0.02423597      -0.10932491      -0.03701866
Pt       3.91322701       8.03714589       4.32274195        2       0.00000000       0.03772871      -0.09478782       0.20487977
Ni       6.39985372       8.07359188       4.31348457        2       1.00000000      -0.05810841      -0.05243291      -0.16897250
Pt       8.89621771       8.06189064       4.32425034        2       0.00000000      -0.02432374      -0.02036434       0.10885957
Pt      11.57315106       8.05633224       4.33107460        2       0.00000000       0.00619181      -0.03653697       0.08389896
Pt       0.02125948       0.02298993       6.52978187        1       0.00000000       0.02593670       0.05518148       0.07901645
Pt       2.56401074       0.02606559       6.56264666        1       0.00000000      -0.05339004       0.03606470       0.23150812
Pt       5.15548550       0.02192201       6.45659509        1       0.00000000       0.07053559       0.04375747      -0.40677934
Pt       7.70876498      -0.04322921       6.58427005        1       0.00000000      -0.07519931      -0.06887597       0.14410276
Ni       1.29121113       2.28928349       6.49351352        1       1.00000000       0.01733989       0.17342291      -0.13364641
Pt       3.86015428       2.34294634       6.44085847        1       0.00000000      -0.09325907       0.15391970      -0.26596895
Ni       6.43079217       2.25165342       6.43693661        1       1.00000000      -0.00581126       0.04854793      -0.23888581
Pt       8.99593228       2.30861368       6.50601828        1       0.00000000      -0.00099177       0.09214880       0.01212608
Ni       2.54925840       4.46862984       6.47957388        1       1.00000000      -0.06846988       0.07009960      -0.22966533
Ni       5.11517987       4.42657882       6.50164687        1       1.00000000      -0.10493274       0.07946336      -0.16687720
Ni       7.68264167       4.38804729       6.43981910        1       1.00000000      -0.10617511      -0.03637043      -0.27309568
Ni      10.33260670       4.40196188       6.50570055        1       1.00000000       0.23818328      -0.02226030      -0.20391521
Ni       3.81483709       6.54796363       6.50443234        1       1.00000000      -0.07140950      -0.18695606      -0.13802798
Pt       6.36484216       6.52935286       6.41981595        1       0.00000000      -0.04979846      -0.00766199      -0.31430170
Pt       9.03475005       6.48798838       6.54305830        1       0.00000000       0.05379801      -0.15933277       0.06491878
Ni      11.57962960       6.54407210       6.53410435        1       1.00000000       0.04793865      -0.09325623      -0.18996469
