64
Lattice="9.804846541928967 -0.00011069044343311603 0.0010074152200053275 4.902327410228511 8.491080149853344 -4.140781231504447e-15 0.0008225510827089025 -0.00047490008902810536 8.373249213266137" Properties=species:S:1:pos:R:3:tags:I:1:initial_magmoms:R:1:forces:R:3 unique_id=f30bf2868d3248d7a790a675b82d999b stress="1.583497133265943e-05 -1.7844129931285294e-07 -2.8348477433855483e-07 -1.7844129931285294e-07 1.5628925069184618e-05 1.6367001086944562e-07 -2.8348477433855483e-07 1.6367001086944562e-07 1.3753379897979423e-05" energy=-375.8293717642574 pbc="T T T"
Ni      -0.00214336       0.00057969       0.11032328        4       1.00000000       0.00021685      -0.01318457      -0.00204318
Ni       2.45331291       0.00091579       0.11008084        4       1.00000000      -0.00106699      -0.01245219      -0.00985691
Ni       4.90295481      -0.00020847       0.10427362        4       1.00000000       0.00096884      -0.00479637      -0.01472913
Ni       7.35375568      -0.00015275       0.10599194        4       1.00000000       0.00243052      -0.00140326      -0.00176313
Ni       1.22552489       2.11981417       0.10835242        4       1.00000000      -0.00954094       0.00093767      -0.02234663
Ni       3.67724308       2.12248280       0.10350268        4       1.00000000      -0.00025473       0.00014707      -0.02246280
Ni       6.12840350       2.12233093       0.10427362        4       1.00000000       0.00463820       0.00155914      -0.01472913
Ni       8.57936968       2.11956370       0.11069002        4       1.00000000       0.00977334       0.00225686      -0.00941283
Ni       2.45369508       4.24706734       0.10835242        4       1.00000000      -0.00558252       0.00779386      -0.02234663
Ni       4.90260892       4.24322091       0.11008084        4       1.00000000       0.01025041       0.00715013      -0.00985691
Ni       7.35134330       4.24426651       0.11526686        4       1.00000000       0.00080096       0.01188634      -0.01020766
Ni       9.80539030       4.24511545       0.22682931        4       1.00000000      -0.00026017       0.00015021       0.10259762
Ni       3.67517185       6.36987648       0.11032328        4       1.00000000       0.01152660       0.00640448      -0.00204318
Ni       6.12748590       6.36855454       0.22887333        4       1.00000000      -0.00040723       0.00023512       0.12570222
Ni       8.57910200       6.37080695       0.11526686        4       1.00000000      -0.00989339      -0.00663683      -0.01020766
Ni      11.03316179       6.36965632       0.11069002        4       1.00000000       0.00293218      -0.00959239      -0.00941283
Ni       1.22654778       0.70837633       2.11585068        3       1.00000000       0.00034266      -0.01181288      -0.00098931
Ni       3.67966210       0.70992795       2.11912139        3       1.00000000       0.00634737       0.00442161      -0.02192966
Ni       6.12739262       0.70788829       2.12010493        3       1.00000000      -0.00210986       0.00121813      -0.01785870
Ni       8.57696697       0.70675553       2.12251699        3       1.00000000      -0.00399305      -0.00208767      -0.00023699
Ni       2.45339819       2.82906997       2.11308665        3       1.00000000      -0.00882631       0.00509587      -0.01970856
Ni       4.90176097       2.82666529       2.11912139        3       1.00000000      -0.00065554      -0.00770779      -0.02192966
Ni       7.35204932       2.82607998       2.11653914        3       1.00000000       0.00771047      -0.00139476      -0.00283356
Ni       9.80585817       2.81701914       2.13349758        3       1.00000000       0.00236817      -0.02696202       0.05376534
Ni       3.67654755       4.95190041       2.11585068        3       1.00000000       0.01040159       0.00560969      -0.00098931
Ni       6.12559615       4.93987397       2.13566937        3       1.00000000      -0.00384380      -0.02679555       0.07365917
Ni       8.57051760       4.95806953       2.13029017        3       1.00000000      -0.03212089       0.01854500       0.07316890
Ni      11.04239191       4.95875841       2.13349758        3       1.00000000       0.02453387       0.01143012       0.05376534
Ni       4.89063216       7.08265238       2.13601385        3       1.00000000      -0.02453587       0.01416579       0.07572992
Ni       7.36381469       7.08453139       2.13566937        3       1.00000000       0.02128372       0.01672660       0.07365917
Ni       9.80764057       7.07928879       2.11653914        3       1.00000000       0.00506313      -0.00598009      -0.00283356
Ni      12.25548821       7.07814121       2.12251699        3       1.00000000      -0.00018855       0.00450192      -0.00023699
Ni      -0.00124136       1.41629857       4.14757014        2       1.00000000       0.00356187      -0.00772206      -0.03083977
Ni       2.45912323       1.41739138       4.14074998        2       1.00000000      -0.00068110       0.00402074      -0.06496669
Ni       4.90260701       1.41501860       4.14938211        2       1.00000000      -0.00117743       0.00067979      -0.05288485
Ni       7.34792290       1.40972925       4.14707325        2       1.00000000      -0.00401036       0.00345571      -0.04709408
Ni       1.24692630       3.52562684       4.12240541        2       1.00000000      -0.01436305       0.00829251       0.02290586
Ni       3.67881023       3.52995123       4.14074998        2       1.00000000      -0.00382262      -0.00142052      -0.06496669
Ni       6.12064073       3.52765623       4.14698433        2       1.00000000      -0.00154374      -0.02083889      -0.03927568
Ni       8.56439610       3.52096090       4.12170022        2       1.00000000       0.01594802       0.01239077       0.02040699
Ni       2.44957433       5.66123587       4.14757014        2       1.00000000       0.00846843       0.00077636      -0.03083977
Ni       4.88158165       5.64827817       4.12575898        2       1.00000000       0.01144878       0.00799592       0.04464718
Ni       7.36839332       5.65211631       4.12895289        2       1.00000000      -0.02226265       0.01285335       0.05928203
Ni       9.81202943       5.68192522       4.12170022        2       1.00000000      -0.00275671      -0.02000677       0.02040699
Ni       3.67114552       7.78672332       4.15355724        2       1.00000000      -0.01142248       0.00659477      -0.01378214
Ni       6.12831141       7.80767746       4.12575898        2       1.00000000      -0.00120028      -0.01391289       0.04464718
Ni       8.58435342       7.79493178       4.14698433        2       1.00000000       0.01727513       0.01175637      -0.03927568
Ni      11.03217307       7.79103774       4.14707325        2       1.00000000      -0.00499791       0.00174522      -0.04709408
Ni      -0.02771719       0.04014994       6.16753313        1       1.00000000      -0.01374955       0.00742832      -0.02730294
Ni       2.48108505       0.04400555       6.16733221        1       1.00000000       0.01743436       0.00784285      -0.04098128
Ni       4.91210957       0.01590200       6.16951945        1       1.00000000       0.01298490       0.02391934      -0.03547482
Ni       7.34512019       0.00483296       6.17170440        1       1.00000000      -0.01234046       0.00712477      -0.02423287
Ni       1.25656923       2.08381929       6.16473264        1       1.00000000       0.01445869      -0.00649996      -0.05144443
Ni       3.68528573       2.11783936       6.16847191        1       1.00000000       0.00754069      -0.00435362      -0.04742618
Ni       6.11902881       2.10634744       6.16951945        1       1.00000000      -0.01422231      -0.02320493      -0.03547482
Ni       8.54930695       2.07944656       6.16776815        1       1.00000000      -0.01501596      -0.00659581      -0.03970586
Ni       2.50038973       4.23817960       6.16473264        1       1.00000000       0.01285847      -0.00927161      -0.05144443
Ni       4.87917816       4.19762465       6.16733221        1       1.00000000       0.00192507      -0.01902002      -0.04098128
Ni       7.32383983       4.18933904       6.16342150        1       1.00000000      -0.02113751      -0.03528843      -0.04499767
Pt       9.81399100       4.24014983       6.22808296        1       0.00000000      -0.00297557       0.00171795       0.18060650
Ni       3.62811609       6.37223893       6.16753313        1       1.00000000      -0.01330788       0.00819330      -0.02730294
Pt       6.11973821       6.37302767       6.23025698        1       0.00000000       0.00057802      -0.00033372       0.20850701
Ni       8.61291885       6.42208939       6.16342150        1       1.00000000       0.01999192       0.03594984      -0.04499767
Ni      11.05287290       6.41574997       6.16776815        1       1.00000000      -0.00179584       0.01630211      -0.03970586
