64
Lattice="10.244936010362071 0.04536336243739527 -0.046819403727261094 5.161753829452904 8.922611576379982 -0.04598601117481408 -0.03822788306438347 -0.021285148544137097 8.77676521626983" Properties=species:S:1:pos:R:3:tags:I:1:initial_magmoms:R:1:forces:R:3 unique_id=05cfd76cd774475fbdcdb6624184c2cd stress="0.00016020405828867657 -1.8924894982021528e-06 1.6708011971745728e-05 -1.8924894982021528e-06 0.00016615398995530745 -1.7274953456538437e-06 1.6708011971745728e-05 -1.7274953456538437e-06 0.00016323101597782302" energy=-396.03040110329067 pbc="T T T"
Ni       0.00412645       0.01459926       0.17802483        4       1.00000000       0.06498977       0.07623311       0.30380919
Ni       2.57604140       0.03844167       0.19962025        4       1.00000000       0.09813353       0.09132576       0.30008354
Ni       5.10702520       0.02783928       0.13919631        4       1.00000000      -0.08243955       0.14862209       0.21508229
Ni       7.68439973       0.01175208       0.01905715        4       1.00000000      -0.04975087      -0.03729626      -0.00571732
Ni       1.30849434       2.22296758       0.15599420        4       1.00000000       0.08397643      -0.02414614       0.20245987
Ni       3.82345534       2.23792456       0.17239966        4       1.00000000      -0.05542803      -0.01270579       0.21356546
Pt       6.40774619       2.24675914       0.15508324        4       0.00000000      -0.06760987       0.00262970       0.32282460
Ni       8.98871666       2.27577932       0.01097842        4       1.00000000       0.04159160       0.04055352      -0.02506940
Ni       2.59302292       4.45004693       0.05607878        4       1.00000000       0.01936449      -0.09825069       0.03246893
Ni       5.09406942       4.45800375       0.14099707        4       1.00000000      -0.18926607      -0.12123637       0.30937979
Ni       7.74775068       4.47057719       0.02926127        4       1.00000000       0.14093503      -0.05221407       0.06417851
Ni      10.25642095       4.49257260      -0.00245790        4       1.00000000      -0.00408920      -0.02847955      -0.00865049
Ni       3.85301184       6.67304473       0.03320000        4       1.00000000      -0.00256775      -0.13797943       0.02002427
Pt       6.43325342       6.73596557       0.00709233        4       0.00000000      -0.02304977       0.03118244      -0.28412238
Ni       8.99635224       6.69563125       0.08961959        4       1.00000000      -0.10047077      -0.10476082       0.13889721
Ni      11.55792860       6.71242241      -0.03198081        4       1.00000000      -0.04675417      -0.09335819      -0.14855154
Ni       1.30769010       0.73660268       2.14670447        3       1.00000000       0.00625226       0.04672566      -0.03501953
Ni       3.83075270       0.79667693       2.15183621        3       1.00000000       0.06880254       0.05457294       0.08160896
Ni       6.36142607       0.79067612       2.21918505        3       1.00000000      -0.07554723       0.06222499       0.21990078
Pt       8.94574289       0.80327985       2.13105392        3       0.00000000      -0.09094865       0.02518390      -0.00061166
Ni       2.61398813       2.96794371       2.15054232        3       1.00000000       0.05249917       0.09069592      -0.08468778
Ni       5.07392494       2.95968895       2.19312266        3       1.00000000      -0.08721664      -0.06017951       0.13324011
Ni       7.69915040       3.00038385       2.17382182        3       1.00000000       0.08189166       0.01373666       0.00833079
Pt      10.24728422       3.01156047       2.16100509        3       0.00000000       0.05660770       0.00228929       0.08225064
Ni       3.85864354       5.15308007       2.14807553        3       1.00000000      -0.00717466      -0.13953717      -0.04885092
Pt       6.44642821       5.19606853       2.13282627        3       0.00000000       0.08965872       0.08415503      -0.16366708
Ni       8.96686559       5.22245174       2.14888180        3       1.00000000       0.05503325      -0.00273893       0.07310783
Pt      11.57015931       5.19748734       2.14356284        3       0.00000000       0.04586724      -0.05281500      -0.03242679
Ni       5.15621160       7.43624372       2.13016565        3       1.00000000      -0.02172249      -0.04308888      -0.12870557
Ni       7.69637428       7.46459856       2.12912083        3       1.00000000      -0.00606430      -0.01028329      -0.01463924
Pt      10.23229564       7.47529381       2.07773383        3       0.00000000      -0.02586165      -0.02883859       0.06376376
Pt      12.85198447       7.44882483       2.07198932        3       0.00000000       0.05499156      -0.04017770      -0.10348977
Ni      -0.05358529       1.52738519       4.36680984        2       1.00000000      -0.06345659       0.08711921       0.00882125
Pt       2.54512000       1.57468450       4.22900576        2       0.00000000      -0.04057502       0.12382957       0.03624735
Ni       5.14133279       1.49280288       4.28163830        2       1.00000000       0.04176587      -0.01426115      -0.07987057
Ni       7.68597023       1.50611984       4.29935498        2       1.00000000      -0.02446865       0.06751911      -0.11444681
Ni       1.26195693       3.76232521       4.36911263        2       1.00000000      -0.00566910       0.08314166       0.00444333
Ni       3.80677030       3.73667644       4.29953410        2       1.00000000      -0.05469299       0.04925251      -0.12313326
Pt       6.45187784       3.68099538       4.26291933        2       0.00000000      -0.04049432      -0.08623539       0.12965560
Ni       8.99747068       3.74792499       4.34249459        2       1.00000000       0.09829679       0.06085966      -0.03004621
Ni       2.51382968       5.89838419       4.38651437        2       1.00000000      -0.12716042      -0.03201327      -0.03912468
Pt       5.06099571       5.92609005       4.29257880        2       0.00000000      -0.11551713      -0.06078574      -0.10342342
Ni       7.73519130       5.91008488       4.30685091        2       1.00000000       0.12246323      -0.07854784      -0.14721045
Ni      10.28251492       5.91448825       4.31806545        2       1.00000000       0.01168564      -0.04660983      -0.10111701
Pt       3.75792340       8.18705727       4.35402511        2       0.00000000       0.00628698       0.01090931       0.04962543
Pt       6.41182019       8.17739333       4.22668120        2       0.00000000      -0.08650110       0.10728904      -0.03009844
Pt       9.03180300       8.15994917       4.24976674        2       0.00000000      -0.02736862      -0.00497558       0.06739542
Ni      11.54721638       8.19013908       4.29300025        2       1.00000000      -0.11173610      -0.06220997      -0.13692746
Pt      -0.11415163      -0.02169983       6.58254950        1       0.00000000      -0.04362332       0.01267445       0.19230795
Pt       2.51807439      -0.03121451       6.58378368        1       0.00000000       0.00949912       0.00713181       0.21413152
Pt       5.19223778      -0.05209403       6.51930924        1       0.00000000       0.06412108      -0.12522881       0.13144945
Ni       7.65692119      -0.01759762       6.47989981        1       1.00000000      -0.02318283      -0.11848111      -0.13006646
Pt       1.18160894       2.32408879       6.51815044        1       0.00000000       0.08163335       0.04611331       0.12978058
Pt       3.82161440       2.28213526       6.51332472        1       0.00000000       0.01769348       0.05239969       0.08639199
Pt       6.50046265       2.22605501       6.43032569        1       0.00000000       0.08684564      -0.01681756      -0.16341553
Ni       8.94592753       2.29377900       6.44040846        1       1.00000000       0.05622929       0.16034718      -0.26852018
Ni       2.51155339       4.51544652       6.46038528        1       1.00000000      -0.03624143       0.10008745      -0.19318725
Pt       5.10238643       4.54152071       6.54228421        1       0.00000000       0.05369905       0.16075159       0.15451055
Ni       7.71484124       4.45621920       6.45090480        1       1.00000000       0.07841635      -0.08074842      -0.19854743
Ni      10.23748999       4.49001510       6.42248784        1       1.00000000       0.05863598       0.02458436      -0.23749083
Ni       3.77903862       6.67824560       6.48227746        1       1.00000000      -0.17087404       0.00643346      -0.13524584
Ni       6.40208688       6.67288844       6.38118813        1       1.00000000       0.04530609       0.03131066      -0.47816586
Pt       8.99018510       6.56965928       6.47004605        1       0.00000000       0.05199031      -0.03475045       0.07673741
Ni      11.58087987       6.66586523       6.41362150        1       1.00000000       0.06236013      -0.11213357      -0.27222721
