64
Lattice="10.451730961997232 0.03334099247747862 0.015148156971075952 5.254739627471497 9.041010637612466 -0.03153873774747516 0.012368418374239808 -0.036875916786222485 8.952947545988744" Properties=species:S:1:pos:R:3:tags:I:1:initial_magmoms:R:1:forces:R:3 unique_id=c0600d07f00d4e56abb1118efd9368b2 stress="-0.0027003862598724004 -3.0485386549050768e-05 2.9196758382313162e-06 -3.0485386549050768e-05 -0.002676068292591212 1.5598107060247856e-05 2.9196758382313162e-06 1.5598107060247856e-05 -0.0023023725968865094" energy=-405.6774105938941 pbc="T T T"
Ni      -0.06222577      -0.02341879       0.18527106        4       1.00000000      -0.17402078      -0.05757052       0.11800286
Ni       2.64946746      -0.02815886       0.18040720        4       1.00000000       0.13763214      -0.06711120       0.13826181
Ni       5.25586483      -0.02082520       0.16605776        4       1.00000000       0.09833019       0.00911894       0.10367354
Ni       7.86588879      -0.02941478       0.13456593        4       1.00000000       0.02137039      -0.11771251       0.07524253
Pt       1.28750249       2.27748754       0.12452337        4       0.00000000       0.01134043       0.00846514      -0.12506464
Pt       3.93607380       2.31492209       0.14608103        4       0.00000000       0.04449097       0.08787079      -0.06774054
Pt       6.57561361       2.19763366       0.14415793        4       0.00000000       0.05256798      -0.09266252      -0.07339061
Ni       9.14720287       2.24503299       0.16717185        4       1.00000000      -0.05199034      -0.13181858       0.12089130
Ni       2.64016330       4.54879576       0.13591413        4       1.00000000       0.08568001       0.01078073       0.04622732
Ni       5.25667069       4.53461010       0.14103478        4       1.00000000       0.19785331      -0.03352319       0.08510176
Pt       7.92850018       4.55288175       0.06476582        4       0.00000000       0.07103085      -0.03672923      -0.14891762
Ni      10.47679803       4.59173339       0.05108954        4       1.00000000       0.03995718       0.11084174      -0.07303915
Ni       3.91568767       6.81018098       0.17213126        4       1.00000000      -0.01337706       0.03966223       0.14427592
Pt       6.53770266       6.83071474       0.18751314        4       0.00000000      -0.00347559       0.01079589       0.01440782
Ni       9.19394990       6.80150415       0.06048847        4       1.00000000       0.01157716      -0.00197538      -0.01604907
Ni      11.80114439       6.82175905       0.04848840        4       1.00000000       0.10178982       0.04709296      -0.07927518
Pt       1.27757128       0.66697394       2.19651197        3       0.00000000      -0.01710500      -0.03009047       0.04790403
Pt       3.99665435       0.77700122       2.24934173        3       0.00000000       0.04001678       0.02365234       0.04589823
Ni       6.58108400       0.74541164       2.27068171        3       1.00000000       0.06777696      -0.02108539      -0.00254177
Ni       9.09122220       0.73502971       2.20585880        3       1.00000000      -0.11513369       0.00170635      -0.02602581
Ni       2.64309194       3.03152908       2.25457245        3       1.00000000      -0.02582111       0.01030724       0.03202409
Ni       5.24473800       3.02772117       2.30546507        3       1.00000000       0.01447782       0.00891335       0.06981613
Pt       7.78595635       3.02639361       2.35929583        3       0.00000000      -0.05754113       0.03590480      -0.03166166
Pt      10.38548451       3.07257552       2.22954810        3       0.00000000      -0.09133421       0.04816659      -0.00537302
Pt       3.99144311       5.25062833       2.16744872        3       0.00000000       0.04296094      -0.03540187       0.04944770
Ni       6.59386692       5.27872828       2.24748721        3       1.00000000       0.09474513       0.01356098      -0.01402397
Ni       9.12574835       5.31687949       2.28045649        3       1.00000000      -0.05370609       0.01920816       0.06211146
Pt      11.77496643       5.31023961       2.15384128        3       0.00000000       0.00172485      -0.01642272      -0.01476189
Ni       5.20952194       7.52227344       2.20090519        3       1.00000000      -0.06470585      -0.02530658       0.01925510
Ni       7.88452312       7.47359279       2.23016183        3       1.00000000       0.03260152      -0.08779901       0.05183350
Pt      10.47774672       7.51754618       2.14209328        3       0.00000000      -0.01061180      -0.02073658       0.01822634
Ni      13.10802402       7.59950326       2.17325116        3       1.00000000      -0.04506252       0.00913389      -0.04381441
Pt      -0.09349907       1.52515817       4.38974892        2       0.00000000      -0.10738446       0.02611045      -0.03158595
Pt       2.67277997       1.54360214       4.37420494        2       0.00000000      -0.05565570      -0.03524520      -0.06657107
Ni       5.28190928       1.55183166       4.39263518        2       1.00000000       0.03841018       0.07777668      -0.13649068
Ni       7.81398628       1.54037813       4.41137234        2       1.00000000      -0.02734914       0.00518979      -0.07599778
Pt       1.25821782       3.81060246       4.41527147        2       0.00000000      -0.04659707       0.03054996      -0.04341234
Ni       3.98186635       3.73763137       4.38865674        2       1.00000000       0.01460240      -0.00601100      -0.09627879
Ni       6.57609345       3.74374788       4.43008980        2       1.00000000      -0.01591209      -0.01469192       0.03039703
Ni       9.10574233       3.84038069       4.46483448        2       1.00000000      -0.04047812       0.02869484      -0.05493572
Pt       2.61110125       6.01339718       4.40426280        2       0.00000000       0.02768916       0.01562195       0.00521497
Pt       5.32102823       5.91838788       4.34546061        2       0.00000000       0.02844668      -0.02891334       0.02742193
Ni       7.92044402       5.93907057       4.40570971        2       1.00000000       0.00713974      -0.06947363      -0.12085339
Ni      10.42110632       6.00153791       4.47806245        2       1.00000000      -0.02369191      -0.00489071      -0.08770948
Pt       3.92425573       8.28701065       4.31969879        2       0.00000000       0.01600199      -0.04594827      -0.02903896
Pt       6.58428239       8.21861745       4.35465234        2       0.00000000      -0.00508336       0.01718814       0.02564490
Pt       9.19191981       8.18462637       4.41548522        2       0.00000000      -0.01822487       0.01246951       0.02783619
Pt      11.78725859       8.35543455       4.39094538        2       0.00000000      -0.01547480       0.03583038      -0.02535797
Pt      -0.04347667      -0.01905789       6.72868640        1       0.00000000      -0.01065261       0.04588512       0.11254039
Pt       2.65471704      -0.06365484       6.72819498        1       0.00000000       0.02349970      -0.00944328       0.15229651
Pt       5.29151021      -0.10818873       6.72683550        1       0.00000000       0.02211514      -0.06337967       0.11921583
Ni       7.83492187       0.00527508       6.65659312        1       1.00000000       0.02852811       0.07010656      -0.09005616
Pt       1.28611048       2.27231783       6.58895183        1       0.00000000      -0.00321157       0.00505658       0.00208753
Pt       3.96060338       2.24790318       6.55865880        1       0.00000000       0.02147049       0.00238122      -0.03211707
Pt       6.58121382       2.22867794       6.51475408        1       0.00000000      -0.02336759      -0.02082611      -0.04928905
Pt       9.12701707       2.35510557       6.67850767        1       0.00000000       0.01595276       0.11978602       0.14618091
Pt       2.55446573       4.55134664       6.69336164        1       0.00000000      -0.06984002       0.03640175       0.07982212
Pt       5.27957152       4.50541560       6.63775561        1       0.00000000      -0.06136725       0.01072327       0.07228127
Ni       7.91449657       4.53697542       6.51891002        1       1.00000000       0.00210946       0.05180592      -0.16658195
Ni      10.41424635       4.59840867       6.61462021        1       1.00000000      -0.09098583       0.09723703      -0.13411866
Pt       3.86684259       6.80496135       6.71572773        1       0.00000000      -0.06006123       0.05220478       0.15627123
Pt       6.65515823       6.70175037       6.58743588        1       0.00000000       0.03901526      -0.00530187       0.03244340
Ni       9.22293979       6.69568651       6.60925475        1       1.00000000       0.03392492      -0.09064262      -0.10925765
Ni      11.73461587       6.76165609       6.63529034        1       1.00000000      -0.08760764      -0.06548869      -0.16092365
