64
Lattice="10.197169063307376 -0.027675084843596154 0.014725157725392667 5.074617205127245 8.843488438005389 0.0104199928237226 0.0 0.0 21.588366718038213" Properties=species:S:1:pos:R:3:tags:I:1:initial_magmoms:R:1:forces:R:3 unique_id=90cbb693e9c9425f8d29653d58909679 stress="0.004245474853239601 -4.879255004630922e-05 0.0002656476390410964 -4.879255004630922e-05 0.004330870418851102 -0.0001994296477314502 0.0002656476390410964 -0.0001994296477314502 -0.0021653852735268146" energy=-372.3538166276908 pbc="T T T"
Ni       0.05042672       0.04530124       0.15036105        2       1.00000000       0.17009947       0.07872630      -0.60247850
Ni       2.55623199      -0.01024669       0.20860918        2       1.00000000       0.00400251      -0.05827434      -0.20928723
Ni       5.05706219      -0.06489041       0.09553469        1       1.00000000      -0.03866441      -0.01912370       0.25680069
Pt       7.65886079      -0.07945783       0.00297452        0       0.00000000      -0.04575100       0.02858131      -0.44262714
Ni       1.22560561       2.23437266       0.11027999        1       1.00000000       0.02087805       0.06704079       0.38608163
Pt       3.74321423       2.21012686       0.19760251        2       0.00000000      -0.00934276       0.04725741      -0.41243777
Pt       6.40081718       2.28040853       0.18297470        2       0.00000000      -0.01891387       0.07937533      -0.86204936
Ni       8.97527972       2.25235763       0.07987997        1       1.00000000      -0.04100310       0.09501988       0.17961339
Ni       2.49750957       4.44561002       0.10985875        1       1.00000000      -0.10896320      -0.02426801       0.40754498
Ni       5.04620861       4.43200729       0.17459886        2       1.00000000      -0.16899378       0.02050236      -0.22417806
Ni       7.71952309       4.41523475       0.08926619        1       1.00000000       0.25685237       0.07423202       0.13665145
Ni      10.19601580       4.39892796       0.11792099        1       1.00000000       0.01515733       0.08514309       0.41735641
Ni       3.78728941       6.57154853       0.06524330        1       1.00000000      -0.02977118      -0.11011866       0.07501495
Pt       6.40946660       6.62822254       0.00000000        0       0.00000000       0.21315883       0.07033099      -0.47382388
Ni       8.95177785       6.60768296       0.19302332        2       1.00000000       0.01720581      -0.10440522       0.06747355
Ni      11.41321793       6.55250640       0.08364510        1       1.00000000      -0.10834298      -0.07547206       0.29817632
Ni       1.32932637       0.78149680       2.16101408        3       1.00000000       0.09102139       0.10967500      -0.00349001
Ni       3.78795253       0.68119846       2.22409960        3       1.00000000      -0.01776704      -0.14699378       0.11124184
Pt       6.26033357       0.69512275       2.27517178        4       0.00000000      -0.07513652      -0.08337139       0.08648749
Pt       8.99292052       0.82133548       2.18635697        3       0.00000000      -0.01327908       0.03886156      -0.01173220
Ni       2.50658581       2.99377340       2.21945011        3       1.00000000      -0.09174227       0.14962492      -0.00136025
Ni       5.02874599       2.95919843       2.26840059        4       1.00000000      -0.16527960      -0.03034146       0.31664201
Ni       7.71426126       2.98241354       2.22575676        3       1.00000000       0.18398983       0.10524700       0.12746635
Ni      10.22144099       2.99039253       2.19519830        3       1.00000000       0.02860857       0.09890297       0.02136926
Ni       3.77803456       5.08765428       2.21633220        3       1.00000000      -0.05549839      -0.11847005       0.11997063
Pt       6.42047173       5.11792712       2.19996255        3       0.00000000       0.12699650      -0.07365593       0.07006387
Ni       8.96747879       5.14494322       2.22196037        3       1.00000000       0.11752901      -0.02331444       0.12645997
Ni      11.41443795       5.08875875       2.19529032        3       1.00000000      -0.14332256      -0.04294575      -0.00291576
Pt       5.09340936       7.35028359       2.18293516        3       0.00000000      -0.02944814      -0.07060980      -0.09053307
Ni       7.71338498       7.37070429       2.21919863        3       1.00000000       0.05939647      -0.08294553       0.17682454
Ni      10.11208689       7.30294081       2.23463073        3       1.00000000      -0.06206491      -0.12928497       0.16164687
Pt      12.63907178       7.22141683       2.23450742        3       0.00000000      -0.13126263      -0.18179024       0.00711566
Ni       0.01689753       1.51420178       4.38090125        6       1.00000000       0.09137083      -0.01307588      -0.12479099
Pt       2.57210878       1.48689185       4.25106195        5       0.00000000       0.05286000       0.04362937       0.00298905
Ni       5.08517722       1.42714204       4.37204821        6       1.00000000      -0.05654860      -0.05547544      -0.07013378
Pt       7.70255197       1.47301145       4.37220302        6       0.00000000       0.06831995       0.04557608       0.12711723
Pt       1.23416871       3.75522263       4.36481915        6       0.00000000      -0.03880426       0.00547704       0.01846539
Ni       3.80914609       3.73722933       4.32505381        5       1.00000000      -0.04111466       0.08437957      -0.20503363
Pt       6.36477405       3.71241241       4.35328117        6       0.00000000      -0.03382839       0.11207833      -0.06697714
Ni       8.93339432       3.71603383       4.38826480        6       1.00000000       0.01198638       0.16322254      -0.08752113
Ni       2.51468600       5.87079519       4.41116717        6       1.00000000      -0.10151238      -0.05789532      -0.02246202
Ni       5.05079110       5.87049240       4.37083004        6       1.00000000      -0.01889869      -0.09358321      -0.22709671
Ni       7.70658396       5.86992783       4.36980556        6       1.00000000       0.21391537      -0.02601263      -0.20208109
Ni      10.18385929       5.90122212       4.35188862        6       1.00000000      -0.03368404       0.03786345      -0.21635863
Pt       3.75727555       8.02069820       4.40891667        6       0.00000000      -0.00007583      -0.04539326      -0.06439554
Pt       6.41717891       8.03970826       4.34145902        5       0.00000000       0.14407062      -0.07919213      -0.13170626
Ni       8.97000186       8.06609153       4.34211536        5       1.00000000       0.02707861      -0.02312903      -0.21115268
Ni      11.38436139       8.03911642       4.42912743        6       1.00000000      -0.10618384      -0.09624372      -0.03209197
Pt      -0.05371033       0.04211374       6.57886893        9       0.00000000      -0.07082530       0.07293217       0.25058997
Pt       2.58175999      -0.02835479       6.58836672        9       0.00000000       0.07088608      -0.09166695       0.18496168
Ni       5.14893106      -0.05561808       6.49020506        8       1.00000000       0.01217792      -0.02567036      -0.19903057
Ni       7.60999782      -0.06788419       6.43232152        7       1.00000000      -0.10609122      -0.05227881       0.54608117
Ni       1.23252268       2.26239641       6.52438776        8       1.00000000      -0.01184416      -0.02584249      -0.20758734
Pt       3.78897279       2.25950241       6.46690171        8       0.00000000       0.12691398       0.19292243       0.60250309
Pt       6.42135746       2.16869447       6.51348270        8       0.00000000      -0.17415935       0.01253007       1.03667016
Ni       8.96661447       2.24898411       6.52703766        8       1.00000000       0.04253544       0.12828127      -0.13815522
Ni       2.49104887       4.47719639       6.51747081        8       1.00000000      -0.02594549       0.08778275      -0.25401650
Pt       5.06509921       4.52858037       6.55688158        9       0.00000000      -0.11271772      -0.07333880       0.22885805
Ni       7.68698762       4.40603385       6.52040615        8       1.00000000       0.07994163      -0.05475349      -0.16077663
Ni      10.20614177       4.37759589       6.53926682        8       1.00000000       0.00463321       0.03321676      -0.28131569
Ni       3.75534334       6.62805924       6.52491315        8       1.00000000      -0.09080410       0.03049929      -0.06217189
Ni       6.36358631       6.61330980       6.41639516        7       1.00000000       0.09914497       0.00957292       0.36254582
Pt       8.97848756       6.54720407       6.51838241        8       0.00000000       0.01730227       0.03212500      -0.21388382
Ni      11.49534452       6.60537191       6.50761003        8       1.00000000       0.00955208      -0.05167313      -0.39513101
