64
Lattice="10.38914537622574 -0.01913839743600445 0.0686921202435661 5.177998349745566 8.907475836487942 0.021933644832500807 0.0 0.0 21.616569085476293" Properties=species:S:1:pos:R:3:tags:I:1:initial_magmoms:R:1:forces:R:3 unique_id=bda87091f1f148e6b51d200bad5f6906 energy=-379.7115728637039 stress="0.006215848903317239 -4.452090736330904e-05 0.0005760659212850669 -4.452090736330904e-05 0.005896244338395198 3.921948001841923e-05 0.0005760659212850669 3.921948001841923e-05 -0.0014173703766880187" pbc="T T T"
Ni      -0.00642075      -0.01790311       0.09681957        1       1.00000000       0.00548212       0.04142415       0.00866185
Ni       2.59680451      -0.01024484       0.13346523        1       1.00000000       0.04606496       0.06956680       0.09043746
Pt       5.20066612      -0.06409411       0.09266089        1       0.00000000       0.04614276       0.05956734      -0.78944142
Ni       7.81648617      -0.07045698       0.15864998        2       1.00000000      -0.05630414      -0.13630806      -0.08170027
Pt       1.29745800       2.23123842       0.04918318        0       0.00000000      -0.02331878      -0.02242932       0.19095261
Pt       3.86247056       2.21968388       0.13884487        1       0.00000000       0.03006546       0.01159807      -0.30586107
Pt       6.51243450       2.18989142       0.07758489        1       0.00000000       0.01295772      -0.06358626      -0.11319061
Pt       9.11967744       2.20555985       0.11147736        1       0.00000000       0.08224400       0.09139273      -0.44479207
Ni       2.57556601       4.49490532       0.06174230        1       1.00000000       0.02216663       0.00230193      -0.11008001
Pt       5.15147461       4.50281842       0.00000000        0       0.00000000       0.11669760       0.13585756      -0.25752791
Pt       7.83375161       4.49843466       0.00492550        0       0.00000000      -0.13773940       0.08444405      -0.18254577
Ni      10.41731908       4.48259982       0.05523611        1       1.00000000       0.06180774       0.00044099       0.19276850
Ni       3.84340727       6.72097251       0.03505039        0       1.00000000      -0.02322056       0.10951813       0.37370731
Pt       6.48735793       6.77768390       0.15898560        2       0.00000000      -0.02160118      -0.01464003      -0.36874504
Ni       9.10733270       6.67244802       0.05399267        1       1.00000000       0.01474907       0.04494728       0.21971358
Ni      11.70714754       6.64438968       0.06764083        1       1.00000000       0.13072010       0.05375019       0.32498716
Ni       1.34032249       0.73037333       2.20468397        3       1.00000000       0.08130022       0.00534878       0.35276587
Ni       3.87065880       0.76341862       2.22597266        3       1.00000000      -0.11792349       0.14264821       0.30314540
Ni       6.51047408       0.76629614       2.23356244        3       1.00000000      -0.02881703       0.17669930       0.29697120
Pt       9.11579940       0.72060270       2.25008964        4       0.00000000       0.08023409       0.18402204      -0.01794306
Ni       2.59605519       2.92040689       2.24926671        3       1.00000000      -0.00801400      -0.18757019       0.45087458
Ni       5.20661298       2.93023451       2.24910850        3       1.00000000      -0.04301350      -0.09889796       0.28020467
Ni       7.77897467       2.93592706       2.25407482        4       1.00000000      -0.03380266      -0.08961047       0.18717413
Ni      10.41848781       2.92750085       2.28773240        4       1.00000000       0.06765554      -0.13931094       0.40231993
Pt       3.90997423       5.19337229       2.20662433        3       0.00000000       0.05166179      -0.08693980      -0.06981360
Ni       6.50038353       5.18451153       2.21792676        3       1.00000000      -0.00113731      -0.09578781       0.12585807
Pt       9.03975715       5.14194248       2.26081248        4       0.00000000      -0.14496320      -0.17737230       0.01020859
Pt      11.70648024       5.11760421       2.20921783        3       0.00000000      -0.05901100      -0.21030597       0.11147824
Ni       5.21658191       7.44251403       2.19648286        3       1.00000000       0.07547307       0.05533465       0.22636009
Ni       7.75578618       7.45335388       2.22443916        3       1.00000000      -0.09774780       0.10577403       0.25024895
Pt      10.38463294       7.40627242       2.21859760        3       0.00000000      -0.04516751      -0.07326818      -0.22463750
Ni      13.00374137       7.40488442       2.19894198        3       1.00000000       0.04835055      -0.02950533       0.02287190
Ni       0.07820849       1.52526197       4.30601318        5       1.00000000       0.18484973       0.02860990      -0.27291894
Ni       2.58426772       1.51507689       4.30194174        5       1.00000000      -0.08904599       0.06579162      -0.29652444
Ni       5.21240787       1.49973907       4.31579463        5       1.00000000      -0.09745723      -0.02219721      -0.43761979
Ni       7.82013756       1.49274314       4.36558280        6       1.00000000       0.03150172      -0.06753552      -0.29342250
Ni       1.32714323       3.65058057       4.33864239        5       1.00000000       0.02229228      -0.16656095      -0.22343203
Ni       3.88490274       3.68064811       4.31716999        5       1.00000000      -0.11464027      -0.14612418      -0.41035545
Pt       6.54399523       3.64668120       4.35267572        6       0.00000000      -0.02453882      -0.01161479      -0.18061289
Ni       9.11956287       3.66923075       4.36492830        6       1.00000000       0.06584847      -0.18083487      -0.33279093
Ni       2.61287637       5.90815504       4.36024483        6       1.00000000      -0.00847266      -0.05665372      -0.16584360
Pt       5.21714688       5.90237442       4.33927391        5       0.00000000       0.06897154      -0.05772841       0.05797182
Ni       7.80812786       5.90507060       4.37455267        6       1.00000000      -0.07577883      -0.03825267      -0.21542105
Pt      10.40391550       5.83435099       4.49757349        7       0.00000000       0.05066173      -0.01660662       0.13782336
Pt       3.95306887       8.16848724       4.31677969        5       0.00000000       0.08511291       0.04787982       0.03226915
Ni       6.50816805       8.19012385       4.31236313        5       1.00000000      -0.07162687       0.15958234      -0.34642429
Pt       9.00646441       8.18310744       4.31799187        5       0.00000000      -0.15552640       0.10232456      -0.00604347
Pt      11.73272228       8.17153017       4.33018868        5       0.00000000       0.05803455       0.02819780      -0.08343621
Pt       0.04401828       0.00057951       6.52350305        9       0.00000000       0.10330792       0.07235112       0.21387805
Pt       2.61877364      -0.00294314       6.54694462        9       0.00000000      -0.04403936       0.04916728       0.21422781
Pt       5.23046061      -0.05121845       6.48296343        9       0.00000000      -0.04543317       0.19913452       0.83751668
Pt       7.81918311      -0.05526602       6.61656909       10       0.00000000      -0.05089990       0.24976005       0.24540017
Ni       1.31970447       2.25162905       6.41342572        8       1.00000000      -0.01370355       0.13131680      -0.15499830
Pt       3.94937460       2.27011826       6.41437037        8       0.00000000      -0.01381906      -0.00336438       0.26300645
Ni       6.53411623       2.23738556       6.46730774        9       1.00000000       0.03597877      -0.06204388       0.01192990
Pt       9.12925792       2.29400627       6.43887379        8       0.00000000      -0.04646979      -0.06606920       0.36100642
Pt       2.57531448       4.49728327       6.48511759        9       0.00000000      -0.00322660      -0.16058440      -0.18540739
Ni       5.22924636       4.42711495       6.45131088        9       1.00000000      -0.02192675      -0.02964138       0.10014957
Ni       7.83544296       4.43738952       6.45004600        9       1.00000000       0.07851412       0.01537778      -0.01888943
Ni      10.41006989       4.44422177       6.57116838       10       1.00000000      -0.03782111      -0.10133661      -0.15059706
Ni       3.90380382       6.64451026       6.52854365        9       1.00000000       0.00668924      -0.02873534      -0.23959581
Pt       6.54658614       6.58314562       6.49201278        9       0.00000000       0.11349504       0.08799254       0.42157510
Ni       9.12909021       6.60223678       6.56554666       10       1.00000000      -0.10258761      -0.06869057      -0.15404134
Ni      11.70431309       6.62864406       6.58646146       10       1.00000000      -0.02023588       0.09798494      -0.18381135
