64
Lattice="10.3282799741704 -0.013694088504470165 0.026810112379830667 5.152280558558663 8.845672749410735 0.01570866149912527 0.0 0.0 21.553327744789755" Properties=species:S:1:pos:R:3:tags:I:1:initial_magmoms:R:1:forces:R:3 unique_id=e1b43d17ca3d4f8f9e921a3abae7d718 energy=-374.8883511039092 stress="0.005373475015041397 -5.208732624274531e-05 0.00033039960316945415 -5.208732624274531e-05 0.005323924841176254 0.00017188408343924236 0.00033039960316945415 0.00017188408343924236 -0.002162272479578134" pbc="T T T"
Ni       0.00149865       0.02408055       0.11982990        1       1.00000000       0.11592927       0.00241728      -0.23285672
Ni       2.58219300       0.00732552       0.15196688        2       1.00000000      -0.04041892       0.05071542      -0.06922505
Ni       5.16300270      -0.01582431       0.10714418        1       1.00000000      -0.00599061       0.19908789      -0.39533552
Ni       7.75457377      -0.04748321       0.14159983        1       1.00000000      -0.09238401      -0.09890388      -0.28308668
Ni       1.25979953       2.22013865       0.12175267        1       1.00000000      -0.05658790       0.03478878       0.15444191
Pt       3.80933813       2.21725793       0.05834186        1       0.00000000      -0.06022755      -0.00262030       0.06510921
Pt       6.47709846       2.15840826       0.06382023        1       0.00000000       0.05439336      -0.07001101      -0.03399286
Ni       9.07750769       2.20597490       0.10720546        1       1.00000000       0.07434131       0.13115955      -0.11547873
Ni       2.55886560       4.44544284       0.00000000        0       1.00000000      -0.05705643      -0.04855494       0.11875245
Ni       5.15420877       4.42982165       0.11028275        1       1.00000000       0.17281550      -0.08034424      -0.36453749
Pt       7.81979834       4.43044178       0.06234852        1       0.00000000       0.03962306      -0.00369699      -0.03726924
Ni      10.35040515       4.41066221       0.04214394        0       1.00000000       0.04161529      -0.10693497       0.17712195
Ni       3.83037266       6.65531140       0.03651446        0       1.00000000      -0.01772785       0.12839259       0.25995318
Pt       6.42496944       6.68341600       0.15217352        2       0.00000000      -0.00440970       0.04007921      -0.65812661
Ni       9.05354029       6.64447932       0.04110971        0       1.00000000      -0.09480493       0.00999361       0.07805420
Ni      11.62858461       6.62703129       0.02853380        0       1.00000000       0.10018439       0.03085018       0.17947896
Ni       1.32002440       0.77402891       2.12082954        3       1.00000000       0.05762466       0.15570961       0.09544381
Ni       3.85150470       0.77169941       2.16479997        4       1.00000000      -0.05344538       0.15337278       0.24130743
Ni       6.45274964       0.75902068       2.17807344        4       1.00000000      -0.04702397       0.17858084       0.21887026
Pt       9.05014176       0.77439242       2.14131020        3       0.00000000      -0.00554137       0.15049081       0.16033751
Ni       2.56695443       2.89902830       2.19288444        4       1.00000000      -0.00533966      -0.12793001       0.29788954
Ni       5.16514485       2.91214908       2.18798239        4       1.00000000      -0.04214042      -0.13982506       0.21321221
Ni       7.76297790       2.95362542       2.19361215        4       1.00000000       0.06201380       0.06734878       0.17301696
Ni      10.33145407       2.92755614       2.17777800        4       1.00000000       0.00445724      -0.00084573       0.15032091
Pt       3.88326086       5.13379332       2.10948027        3       0.00000000       0.00548188      -0.12515895      -0.00521084
Ni       6.49166994       5.13937444       2.17860881        4       1.00000000       0.11173431      -0.07593025       0.15574338
Ni       9.00967496       5.12956700       2.19539965        4       1.00000000      -0.07048320      -0.12301762       0.23596275
Pt      11.59980958       5.08094781       2.13923148        3       0.00000000      -0.02449118      -0.13236718       0.03171392
Ni       5.15220104       7.39004260       2.14978193        3       1.00000000      -0.09544861       0.02475578       0.07218073
Ni       7.74324946       7.37056062       2.16056751        4       1.00000000       0.03673570      -0.02430748       0.09128329
Pt      10.29808488       7.37952637       2.07917569        3       0.00000000      -0.00573845      -0.07992550      -0.10995095
Ni      12.91220698       7.36025257       2.13687429        3       1.00000000       0.01559883      -0.04012519      -0.01294208
Ni       0.02053794       1.55137980       4.27053378        6       1.00000000       0.05875923       0.16518807      -0.21764392
Ni       2.60441207       1.54675549       4.26606419        6       1.00000000      -0.00250561       0.06733993      -0.28826396
Ni       5.14619600       1.51168455       4.29493853        6       1.00000000      -0.11157118       0.04366421      -0.25264534
Ni       7.76513675       1.49181369       4.30053767        6       1.00000000       0.09136118      -0.08645471      -0.23353163
Ni       1.32273043       3.66174700       4.28745319        6       1.00000000       0.06153445      -0.11910057      -0.24690544
Ni       3.82711154       3.63520990       4.30584303        6       1.00000000      -0.07460633      -0.09131509      -0.22534207
Pt       6.50673676       3.61956429       4.26449255        6       0.00000000      -0.01875339      -0.02259343      -0.12334670
Ni       9.05352911       3.65526605       4.28761497        6       1.00000000       0.06520331      -0.17135979      -0.33790446
Ni       2.56920612       5.84347789       4.35324960        7       1.00000000      -0.01143563      -0.17112688      -0.04901070
Pt       5.14333755       5.84473772       4.27180813        6       0.00000000      -0.02189627      -0.09822799      -0.07175014
Ni       7.77601774       5.85139927       4.29376539        6       1.00000000      -0.00373180      -0.05237933      -0.33148232
Pt      10.31931764       5.78923138       4.39466987        7       0.00000000       0.02172269      -0.05363993      -0.01747037
Pt       3.86001970       8.11891698       4.26984156        6       0.00000000       0.00230884       0.02733219       0.05428799
Pt       6.46403688       8.17665011       4.19598632        5       0.00000000      -0.05159768       0.25440249      -0.11795741
Pt       9.02285425       8.13658923       4.26937286        6       0.00000000      -0.13703032       0.08606562      -0.04120754
Pt      11.62520905       8.12155958       4.27155451        6       0.00000000       0.03657436       0.02572587      -0.09757496
Pt       0.00488193      -0.00965871       6.51610492        9       0.00000000       0.07007092       0.18404635       0.39232444
Pt       2.62321138       0.02157514       6.52643206        9       0.00000000      -0.01295693       0.09938486       0.35894005
Pt       5.18267487       0.00124734       6.51776062        9       0.00000000       0.00986364       0.12092687       0.41595919
Pt       7.73701043      -0.04763017       6.55332774       10       0.00000000      -0.04654979       0.11636468       0.40979869
Pt       1.34403764       2.32768164       6.43736205        8       0.00000000      -0.05341416       0.01161579      -0.09653265
Ni       3.88567575       2.22459491       6.36594750        8       1.00000000      -0.03135971      -0.11268759       0.02010313
Ni       6.45896472       2.20915993       6.39186089        8       1.00000000      -0.00919561      -0.14401629       0.16527405
Pt       9.01081601       2.29615088       6.45403884        9       0.00000000       0.02635134      -0.04965105       0.03363320
Ni       2.57607975       4.46834556       6.43671315        8       1.00000000      -0.02349424       0.10121616      -0.28724366
Pt       5.10501950       4.34228337       6.50687460        9       0.00000000      -0.01166816      -0.04474280       0.17580391
Ni       7.78327294       4.42552057       6.39051128        8       1.00000000       0.01477001       0.09921432       0.01894647
Ni      10.34080108       4.45170859       6.49561814        9       1.00000000      -0.01380343      -0.02027701      -0.10959778
Ni       3.82970812       6.58750939       6.47339349        9       1.00000000      -0.03571083      -0.07584162      -0.15112323
Pt       6.51293600       6.56237871       6.43304974        8       0.00000000       0.07150715      -0.15192366       0.64722339
Ni       9.07591420       6.57440532       6.48856707        9       1.00000000      -0.02353914      -0.01823670      -0.07410201
Ni      11.63368373       6.55899822       6.49734107        9       1.00000000       0.05150467       0.00384320      -0.17384000
