64
Lattice="10.274287084134063 -0.0032149956612118323 -0.012435735628046337 5.134359274151361 8.824721863248831 -0.07736476891419561 0.0 0.0 21.617202307866958" Properties=species:S:1:pos:R:3:tags:I:1:initial_magmoms:R:1:forces:R:3 unique_id=5042de4aa40c4e3591844644139d1685 stress="0.005267831339955705 -5.970004030409712e-06 -8.084073512780056e-05 -5.970004030409712e-06 0.004788340914198722 -0.0004109109851005484 -8.084073512780056e-05 -0.0004109109851005484 -0.0021736678675973557" energy=-372.80517303115096 pbc="T T T"
Ni       0.00381289       0.01197028       0.21859460        2       1.00000000       0.10465898       0.01846452      -0.37741126
Ni       2.56799611      -0.00670429       0.24169259        2       1.00000000       0.00992716       0.02460925      -0.25768029
Ni       5.14010759      -0.03230523       0.10376566        1       1.00000000      -0.00134938       0.12600749       0.13257787
Ni       7.70976241      -0.03291372       0.08200046        1       1.00000000      -0.02060235       0.05263543       0.08268115
Ni       1.24887451       2.20820123       0.20692865        2       1.00000000      -0.04705767       0.05353257       0.01055200
Pt       3.80280109       2.20660697       0.19466359        2       0.00000000      -0.01050367      -0.00101193      -0.54871077
Pt       6.47001821       2.19751411       0.19766719        2       0.00000000       0.02687370      -0.02415718      -0.54743799
Ni       9.02367612       2.22799507       0.15406218        2       1.00000000       0.02148896       0.15583694      -0.09795013
Ni       2.55945647       4.43045396       0.06676933        1       1.00000000      -0.01521609      -0.02979033       0.25062178
Ni       5.10495620       4.42245694       0.06690852        1       1.00000000      -0.10258274      -0.07511671       0.09418226
Ni       7.75662918       4.40330249       0.06779181        1       1.00000000       0.17220659      -0.02669514       0.17676158
Ni      10.26086184       4.39221649       0.06276618        1       1.00000000      -0.06816524      -0.04492261       0.31391531
Ni       3.83743339       6.59705603       0.03649867        0       1.00000000       0.07520906      -0.07725326       0.09768861
Pt       6.41542305       6.63922344       0.01939704        0       0.00000000       0.03625109       0.16108646      -0.29141922
Ni       8.99042430       6.59085997       0.11623066        1       1.00000000      -0.13836451      -0.18191512      -0.31379366
Ni      11.55717046       6.59980312       0.00000000        0       1.00000000      -0.05392265      -0.13121664       0.09177359
Ni       1.29511164       0.73843165       2.17996948        4       1.00000000       0.03079628       0.06820563       0.04661475
Ni       3.85004394       0.72663909       2.22695452        4       1.00000000       0.10270023      -0.02823126       0.14984632
Ni       6.39728987       0.74338874       2.26726228        5       1.00000000      -0.04298149       0.07806781       0.28753507
Pt       9.01061847       0.79152022       2.20264971        4       0.00000000      -0.07821499      -0.03869331       0.10386770
Ni       2.55565636       2.92981337       2.22037177        4       1.00000000      -0.00676019       0.05348992       0.03287448
Ni       5.10447663       2.91023766       2.25540943        5       1.00000000      -0.13841813      -0.05719369       0.22849985
Ni       7.75207298       2.94242321       2.22346799        4       1.00000000       0.18814164       0.09587960       0.17187668
Ni      10.26661378       2.92690504       2.20534450        4       1.00000000       0.01776218       0.00604718       0.22244434
Ni       3.85095511       5.08333464       2.16366817        4       1.00000000       0.01610207      -0.16714314      -0.05596038
Pt       6.44150737       5.10986772       2.16120664        4       0.00000000       0.00225589      -0.05541568      -0.06818008
Ni       8.98427801       5.08792457       2.18468589        4       1.00000000       0.04130956      -0.11339133       0.13185879
Pt      11.54288222       5.03928266       2.18763259        4       0.00000000      -0.01424128      -0.00926070       0.05208195
Ni       5.13888116       7.34276495       2.13989782        3       1.00000000      -0.02839014      -0.06576815       0.04373086
Ni       7.69662529       7.35614462       2.14437466        3       1.00000000       0.01292880      -0.00889888       0.11719767
Pt      10.23945386       7.34971214       2.10057684        3       0.00000000      -0.03021716      -0.02671121       0.07487157
Pt      12.85894752       7.31448583       2.10113495        3       0.00000000       0.08227352      -0.04156356      -0.02914307
Ni      -0.02517533       1.50111265       4.35008256        8       1.00000000      -0.00731117       0.17695790      -0.13936031
Pt       2.55296831       1.52467481       4.24406071        6       0.00000000      -0.06850761       0.06204158      -0.01146965
Ni       5.16495104       1.41754446       4.31163257        7       1.00000000       0.03327576      -0.01891787      -0.29537879
Ni       7.69388743       1.43148423       4.33185707        7       1.00000000       0.00612006       0.06589027      -0.18598886
Ni       1.25149675       3.69555926       4.36119806        8       1.00000000      -0.07391313       0.00299022      -0.03780131
Ni       3.81507079       3.67403231       4.32422069        7       1.00000000      -0.13778083      -0.01809319      -0.24358313
Pt       6.45721926       3.60200495       4.31561904        7       0.00000000       0.01495598      -0.05046834       0.09178711
Ni       9.02429011       3.66630265       4.32379224        7       1.00000000       0.13889967       0.04971482      -0.16893917
Ni       2.50377372       5.81329713       4.38745865        8       1.00000000      -0.17451139      -0.03227890      -0.06907392
Pt       5.05505596       5.80412171       4.37000832        8       0.00000000      -0.10061501       0.00615189      -0.13615441
Ni       7.74714917       5.80700900       4.33157529        7       1.00000000       0.15318107      -0.05377312      -0.20077108
Ni      10.30017188       5.79609498       4.34395300        7       1.00000000       0.00991124      -0.02638972      -0.11408217
Pt       3.74695596       8.07432518       4.34571062        7       0.00000000      -0.04579451       0.04841338       0.10741077
Pt       6.41275870       8.04407158       4.23070490        6       0.00000000      -0.02452823       0.06393321      -0.11796470
Pt       9.05629440       8.03672901       4.29532407        7       0.00000000      -0.00918745       0.03333546      -0.01225789
Ni      11.54713246       8.05216177       4.35236606        8       1.00000000      -0.07451714      -0.03213485      -0.06137563
Pt      -0.06279669      -0.11398414       6.61720231       11       0.00000000       0.01965076       0.07963170       0.38709287
Pt       2.59103169      -0.07593309       6.61554531       11       0.00000000       0.03650554      -0.00499745       0.41919529
Ni       5.18695094      -0.08682041       6.52240010       10       1.00000000       0.01698232      -0.04008449      -0.06704170
Ni       7.64188114      -0.10439599       6.52976676       10       1.00000000      -0.04670445      -0.02004385      -0.01383119
Pt       1.26982673       2.26479093       6.53858590       10       0.00000000      -0.03946867      -0.10736977       0.12474560
Pt       3.87479918       2.24252150       6.44638875        9       0.00000000       0.11422330       0.14287151       0.56765660
Pt       6.42039115       2.11485759       6.46262451       10       0.00000000      -0.04260806      -0.03088331       0.65874101
Pt       8.96408205       2.22468855       6.48835298       10       0.00000000       0.02174730       0.00100060       0.03710717
Ni       2.55513265       4.45374327       6.46663273       10       1.00000000       0.03193245       0.05862762      -0.32681031
Ni       5.12322156       4.41953390       6.50411526       10       1.00000000       0.00694544      -0.07210452      -0.04857232
Ni       7.68040931       4.39179208       6.48095815       10       1.00000000      -0.07732065      -0.04022751      -0.12448212
Ni      10.29861837       4.40387573       6.45747432       10       1.00000000       0.13238977       0.03156481      -0.25978730
Ni       3.78837959       6.52546146       6.48787041       10       1.00000000      -0.07057215       0.00394154      -0.13635889
Ni       6.40466520       6.51259955       6.39496451        9       1.00000000       0.13948815       0.02484763       0.30388198
Pt       9.03830846       6.47735543       6.49339941       10       0.00000000      -0.03121525       0.00592601       0.08944381
Ni      11.58754009       6.56595666       6.43971957        9       1.00000000       0.00444884       0.00041374      -0.34234467
