64
Lattice="10.26411250092445 0.015525672610238236 -0.02403176030598893 5.145501877353532 8.877433049233101 -0.03039373519315612 0.0 0.0 21.523760581701627" Properties=species:S:1:pos:R:3:tags:I:1:initial_magmoms:R:1:forces:R:3 unique_id=3107bd42078643d0b607968fb9747d46 stress="0.005633766667849676 0.00018374320892997618 4.278539790575676e-06 0.00018374320892997618 0.0059806755428639495 -9.32141408085958e-05 4.278539790575676e-06 -9.32141408085958e-05 -0.0011019453341957319" energy=-374.51987556571333 pbc="T T T"
Ni       0.00782084      -0.00755549       0.14767054        1       1.00000000       0.09481531       0.00304215      -0.07116824
Ni       2.53031852       0.01382358       0.16368396        2       1.00000000      -0.08876332       0.07478885      -0.00540747
Pt       5.12015498      -0.03184558       0.09486872        1       0.00000000      -0.04637379       0.21009874      -0.93826450
Ni       7.71974234      -0.04723334       0.13503084        1       1.00000000      -0.05535711      -0.09239850      -0.20851463
Ni       1.28893130       2.22699081       0.06920342        1       1.00000000       0.00015104       0.03422268       0.42622251
Pt       3.76307325       2.27720033       0.13804122        1       0.00000000       0.03872168       0.00459171      -0.32116322
Pt       6.41681887       2.23807598       0.06536415        1       0.00000000       0.01180432      -0.00863831      -0.10478091
Pt       9.07536501       2.23055782       0.06482386        1       0.00000000      -0.00543648       0.11497833      -0.48235370
Ni       2.56203475       4.47475461       0.02283761        0       1.00000000       0.10093788       0.02261366       0.26510771
Ni       5.09421628       4.47710286       0.13693988        1       1.00000000      -0.11493838       0.12537292       0.05763769
Pt       7.74455728       4.50234183       0.04305781        0       0.00000000      -0.00590161       0.03061922      -0.03289655
Ni      10.31803411       4.47547830       0.00753020        0       1.00000000       0.07624530      -0.02240859       0.22177710
Ni       3.81706098       6.64938298       0.05810553        1       1.00000000      -0.00933944      -0.05702231       0.43223613
Pt       6.37909276       6.71395003       0.12092628        1       0.00000000      -0.09593238       0.05154548      -0.35041198
Ni       9.00532399       6.65243073       0.01205804        0       1.00000000      -0.06705345       0.02637962       0.06576870
Ni      11.58819109       6.63440970       0.00000000        0       1.00000000       0.07185271       0.07525580       0.21584832
Ni       1.30982510       0.74732846       2.18781120        4       1.00000000       0.04370325       0.05803091       0.19905501
Ni       3.80505192       0.77986506       2.20149997        4       1.00000000      -0.06127165       0.11475721       0.25054682
Ni       6.41032908       0.78815764       2.19697112        4       1.00000000      -0.05428163       0.19274533       0.24036476
Pt       8.99872805       0.74202008       2.19593496        4       0.00000000       0.06272382       0.10217135       0.02943130
Ni       2.55653798       2.93066322       2.23608933        4       1.00000000       0.03501300      -0.13958118       0.28163537
Ni       5.11003291       2.97975469       2.20167158        4       1.00000000      -0.11383134       0.01440427       0.15381084
Ni       7.70257347       2.98702850       2.19895458        4       1.00000000       0.06555654       0.01816921       0.17017345
Ni      10.29368647       2.96481023       2.19793600        4       1.00000000       0.08476684      -0.09521349       0.22557973
Ni       3.88776958       5.17089783       2.16663793        4       1.00000000       0.10609813      -0.05916884       0.14518383
Ni       6.39911679       5.18517959       2.18525279        4       1.00000000      -0.04203867       0.02035448       0.12661651
Ni       8.95415498       5.15450753       2.17280306        4       1.00000000      -0.10916268      -0.21833878       0.19603920
Pt      11.61268919       5.11453493       2.11366065        3       0.00000000       0.16409462      -0.16935672       0.08509407
Ni       5.14254693       7.36360564       2.17878623        4       1.00000000       0.03038599      -0.12996678       0.18637904
Ni       7.66011543       7.40355106       2.16127803        4       1.00000000      -0.17053261      -0.01893461       0.12383506
Pt      10.23484885       7.34584329       2.12608759        3       0.00000000      -0.08244407      -0.17255402      -0.31324686
Ni      12.87080749       7.37070421       2.08743222        3       1.00000000       0.10659699      -0.13260694       0.02655383
Ni       0.04878322       1.51315010       4.29811346        6       1.00000000       0.16903723       0.00992006      -0.16572248
Ni       2.51224615       1.51997227       4.25815002        6       1.00000000      -0.06925047       0.03336019      -0.27103852
Ni       5.11027419       1.51759338       4.26369641        6       1.00000000      -0.10016587       0.06102978      -0.37649315
Ni       7.69267184       1.50847130       4.28069992        6       1.00000000       0.00472712      -0.04724037      -0.26995265
Ni       1.30402096       3.63922968       4.34084094        6       1.00000000       0.07634775      -0.11290127      -0.07948247
Ni       3.80576708       3.71429870       4.25048586        6       1.00000000      -0.03801142       0.03250868      -0.30830951
Pt       6.42281063       3.69798380       4.24131880        5       0.00000000      -0.06759006       0.01485487       0.01053877
Ni       8.98624820       3.68877602       4.24603355        5       1.00000000       0.02604572      -0.12317832      -0.39762605
Ni       2.60048058       5.84598344       4.33808128        6       1.00000000       0.10032498      -0.18510809      -0.06144095
Ni       5.12173630       5.88638510       4.24645060        5       1.00000000       0.04605128      -0.18984762      -0.34957546
Ni       7.68396478       5.89551756       4.25516011        6       1.00000000      -0.07603959      -0.03476660      -0.36534699
Pt      10.25673034       5.81757604       4.36040757        7       0.00000000       0.08604690      -0.03919207       0.04614841
Pt       3.92156253       8.05998266       4.26908500        6       0.00000000       0.11147599      -0.10931408       0.13814474
Ni       6.40980869       8.13977477       4.22936322        5       1.00000000      -0.04984960       0.05642490      -0.36905005
Pt       8.88133132       8.16023538       4.22098753        5       0.00000000      -0.14105494       0.07452472       0.03963554
Pt      11.58929165       8.14779866       4.20748812        5       0.00000000       0.08438052      -0.03921304      -0.07197418
Pt      -0.00425042       0.01447638       6.51024434       10       0.00000000       0.05325896       0.16703787       0.24829750
Pt       2.54035023       0.00966922       6.51215058       10       0.00000000      -0.00998001       0.04844729       0.27268762
Pt       5.12516029      -0.03641452       6.41142305        9       0.00000000      -0.02288345       0.15686141       1.00859758
Pt       7.68601102      -0.03287580       6.52376058       10       0.00000000      -0.01123243       0.19625011       0.35530003
Ni       1.26326832       2.27876815       6.43647289        9       1.00000000      -0.07916142       0.17033660      -0.31302369
Pt       3.78336768       2.26750110       6.35395515        9       0.00000000       0.01419119       0.01081180       0.31464622
Ni       6.41636742       2.23329150       6.37229604        9       1.00000000      -0.02921890      -0.03552009       0.04663133
Pt       8.98464459       2.32264805       6.33135295        8       0.00000000      -0.00010100      -0.03444209       0.48584930
Ni       2.50143342       4.46183982       6.43650398        9       1.00000000      -0.07408341       0.02309994      -0.39533957
Pt       5.08776805       4.44839316       6.46739235       10       0.00000000      -0.07292205       0.02319799      -0.04657641
Ni       7.72867024       4.45078620       6.36256999        9       1.00000000       0.05274102       0.10387385      -0.06598797
Ni      10.29067094       4.45300457       6.45154100       10       1.00000000       0.05532894      -0.08755232      -0.17234685
Ni       3.79886828       6.60444745       6.45325169       10       1.00000000      -0.07807537      -0.06903975      -0.23077955
Pt       6.44785852       6.60926238       6.34600144        8       0.00000000      -0.00122808       0.01316089       0.31838009
Ni       9.00492860       6.58941777       6.44872770        9       1.00000000       0.00803012      -0.08641054      -0.10288403
Ni      11.55943194       6.58963679       6.45398565       10       1.00000000       0.06205157       0.02007247      -0.16859552
