64
Lattice="10.758653417442487 -0.0029288346826559565 0.007176636206331188 5.376790263482575 9.292818477584538 -0.01482993487040225 0.005859698925031518 -0.017364895433625436 9.373670627291574" Properties=species:S:1:pos:R:3:tags:I:1:initial_magmoms:R:1:forces:R:3 unique_id=a4b426ebf8494a5d86a02fed9cb53fee stress="0.0005454828775268081 1.1524210046457277e-06 5.329126453561612e-07 1.1524210046457277e-06 0.0005518315961773948 8.596208498852058e-06 5.329126453561612e-07 8.596208498852058e-06 0.0004231678644632253" energy=-428.79600730838285 pbc="T T T"
Pt       0.01639509       0.00197970       0.10845414        4       0.00000000       0.02488982      -0.01406027       0.12603280
Pt       2.69818326       0.03037739       0.12291248        4       0.00000000       0.02566012       0.03844907       0.13201130
Pt       5.36174491       0.01645424       0.12206890        4       0.00000000      -0.02247542       0.00992214       0.10064289
Pt       8.06347349      -0.00441024       0.09894907        4       0.00000000      -0.02393268       0.01932644       0.12632615
Pt       1.37982062       2.31026712       0.11759243        4       0.00000000       0.05085030      -0.01818352       0.09688715
Ni       4.03618661       2.32068310       0.10429924        4       1.00000000       0.02634679      -0.02043629       0.32976129
Pt       6.67162475       2.32198769       0.12044951        4       0.00000000      -0.12638996      -0.04464677       0.12267250
Pt       9.41114464       2.31989836       0.10317491        4       0.00000000      -0.03996201      -0.00796787       0.10424338
Pt       2.70391844       4.62147501       0.09005927        4       0.00000000       0.00966125      -0.02994415       0.09915626
Pt       5.35983894       4.60840947       0.10220333        4       0.00000000      -0.05798075      -0.06599705       0.12960706
Pt       8.06059614       4.64571824       0.09285223        4       0.00000000      -0.02093771       0.00348210       0.10279605
Pt      10.76624797       4.64241733       0.09380809        4       0.00000000       0.02665917      -0.02833689       0.10341523
Pt       4.03243388       6.96341333       0.00622817        4       0.00000000       0.00323661      -0.03506752      -0.02599651
Pt       6.72052134       6.96861213       0.01525531        4       0.00000000      -0.00083941      -0.03329523      -0.02578395
Pt       9.42085529       6.98370047       0.10385565        4       0.00000000       0.00335879       0.03870369       0.12420090
Pt      12.09625392       6.97350626       0.03014553        4       0.00000000       0.01533089       0.00073729      -0.02411291
Ni       1.35204338       0.77087507       2.34636543        3       1.00000000       0.04807631      -0.00936148       0.05046686
Pt       4.05085726       0.79334594       2.36894365        3       0.00000000       0.07444491       0.04315906       0.06806919
Pt       6.67419929       0.77778538       2.39957379        3       0.00000000      -0.09304546       0.02179196       0.16755904
Pt       9.43393829       0.76560263       2.37740280        3       0.00000000      -0.04238787      -0.03876234       0.08710743
Pt       2.73052979       3.05537301       2.33845626        3       0.00000000       0.08253644       0.00863006      -0.01135264
Ni       5.37139969       3.07901485       2.34868955        3       1.00000000      -0.03512453      -0.05182042       0.05065289
Pt       8.03399876       3.08674427       2.37279697        3       0.00000000      -0.03237858       0.00106531       0.03986761
Pt      10.78433184       3.06657224       2.37464923        3       0.00000000       0.07488275      -0.00344813       0.08395494
Pt       4.04608002       5.39015809       2.36694688        3       0.00000000      -0.00476863       0.04405152       0.16165897
Pt       6.70939709       5.39763073       2.36984721        3       0.00000000      -0.01954861       0.04467667       0.11129736
Pt       9.42580535       5.44390825       2.36701411        3       0.00000000      -0.00373211       0.05215455       0.10761371
Pt      12.09352219       5.43875712       2.36955902        3       0.00000000       0.03237426       0.02381978       0.09327968
Pt       5.39665744       7.75540617       2.36447993        3       0.00000000       0.00434096      -0.04078665       0.07045691
Pt       8.08483437       7.77352592       2.36469044        3       0.00000000       0.01291709       0.08020774       0.06086984
Ni      10.75775557       7.74217680       2.34440803        3       1.00000000       0.00036170       0.03863994       0.01935889
Pt      13.41485441       7.73764469       2.37160964        3       0.00000000      -0.03131985      -0.00191717       0.06939150
Pt       0.01638819       1.52763464       4.63425451        2       0.00000000       0.07489052      -0.03938327      -0.09588990
Pt       2.72501155       1.53114331       4.62409081        2       0.00000000       0.02058489      -0.03465440      -0.11436095
Ni       5.37881872       1.54391196       4.65789448        2       1.00000000      -0.03401720       0.02597070      -0.10392331
Pt       8.03335075       1.52775155       4.65732323        2       0.00000000      -0.03294542      -0.04306576      -0.02616636
Pt       1.35926740       3.86760943       4.65155024        2       0.00000000       0.08485747       0.01144586      -0.07131919
Pt       4.06383124       3.82258172       4.62729502        2       0.00000000       0.05158087      -0.10024013      -0.13363612
Pt       6.69266255       3.82840468       4.63275967        2       0.00000000      -0.08915364      -0.07541883      -0.12417003
Pt       9.40920442       3.86537486       4.65174650        2       0.00000000      -0.02441483       0.00672096      -0.08275244
Pt       2.69406379       6.20145075       4.71072400        2       0.00000000       0.01944170       0.00317094       0.04946451
Pt       5.37739948       6.19664809       4.71146167        2       0.00000000      -0.01692162       0.00278244       0.04379845
Pt       8.05453626       6.19406335       4.67547590        2       0.00000000      -0.02529315       0.00724042      -0.03929061
Pt      10.77144088       6.21080622       4.65773156        2       0.00000000      -0.00891246       0.05621540      -0.08492357
Pt       4.02898831       8.49765536       4.67160506        2       0.00000000      -0.01333621       0.03134800      -0.07459644
Pt       6.73477462       8.51093043       4.64782247        2       0.00000000       0.06529002       0.07594080      -0.10978830
Pt       9.44376396       8.53542594       4.61793120        2       0.00000000       0.08758017       0.04319092      -0.16237222
Pt      12.07878166       8.51965223       4.64811848        2       0.00000000      -0.05410756       0.02807210      -0.11705735
Pt       0.00128247      -0.08401077       6.93750209        1       0.00000000      -0.00332784      -0.19109912      -0.04331301
Pt       2.67780951      -0.04091866       6.94524841        1       0.00000000      -0.01764568      -0.03601648      -0.03229136
Pt       5.39781453      -0.03563397       6.93026415        1       0.00000000       0.00300511      -0.02104082      -0.04758408
Pt       8.07618094      -0.08618317       6.93901747        1       0.00000000      -0.00718280      -0.20703614      -0.04147785
Pt       1.35621071       2.30756522       6.93625250        1       0.00000000       0.02609378      -0.01580100      -0.08230025
Pt       4.04767926       2.31301400       6.98951930        1       0.00000000      -0.00674846       0.05102271       0.02244593
Pt       6.71134881       2.30547779       6.92281115        1       0.00000000      -0.03858346      -0.00062736      -0.06270742
Pt       9.41345938       2.30073875       6.93434546        1       0.00000000      -0.01365849      -0.06607176      -0.12576048
Pt       2.70186013       4.69585667       6.93125346        1       0.00000000       0.04306607       0.12083036      -0.03666252
Pt       5.37489936       4.69326803       6.93246367        1       0.00000000      -0.03229705       0.13028013      -0.01651259
Pt       8.05174443       4.66341716       6.92929299        1       0.00000000      -0.05770479       0.04536266      -0.10235467
Pt      10.77945943       4.66482010       6.93346128        1       0.00000000       0.03882882       0.06635455      -0.10719423
Ni       4.03776544       6.95910007       6.92416631        1       1.00000000       0.00388442       0.01243456      -0.27829987
Ni       6.71218802       6.95678783       6.92791321        1       1.00000000      -0.02978417       0.01493965      -0.29332134
Pt       9.42024870       6.96189655       6.92567825        1       0.00000000       0.01839036       0.04677469      -0.05978431
Ni      12.11676323       6.95661700       6.93038045        1       1.00000000       0.00743603       0.02557167      -0.29800992
