64
Lattice="10.205593369241337 0.00647249213408097 -0.0070009724199531905 5.108402027234577 8.79501943254126 -0.041852735475569315 0.0 0.0 21.5572741425369" Properties=species:S:1:pos:R:3:tags:I:1:initial_magmoms:R:1:forces:R:3 unique_id=78d684e6903649cbb951296edd58f276 stress="0.004478127819879538 2.588965399492089e-05 -2.952804075245592e-05 2.588965399492089e-05 0.004212587099419034 -0.0002461198578109819 -2.952804075245592e-05 -0.0002461198578109819 -0.002423695466607697" energy=-371.0582208719097 pbc="T T T"
Ni       0.00674729       0.02322321       0.18018727        2       1.00000000       0.10372836       0.02199210      -0.41265984
Ni       2.54885071       0.00029731       0.21049744        2       1.00000000       0.00522949       0.02018880      -0.33394328
Ni       5.10439804      -0.02078596       0.07031120        1       1.00000000      -0.01668128       0.12924257       0.06582117
Ni       7.65590721      -0.01595703       0.13979328        1       1.00000000      -0.04665404       0.07733195      -0.48491531
Ni       1.23945015       2.20558620       0.09617903        1       1.00000000      -0.03383577       0.03071139       0.33249932
Pt       3.77532368       2.20450968       0.16525613        2       0.00000000       0.03439924       0.00889526      -0.61392739
Pt       6.43107202       2.20407534       0.07973058        1       0.00000000       0.01998560      -0.02866402      -0.02297295
Ni       8.97044171       2.23378843       0.12779388        1       1.00000000       0.00476214       0.15703944      -0.14637556
Ni       2.54099713       4.41764271       0.04213405        0       1.00000000      -0.00175034      -0.01780995       0.19997784
Ni       5.07707012       4.41311667       0.05034670        1       1.00000000      -0.11244342      -0.04232191       0.13144826
Ni       7.70777415       4.39527410       0.05636163        1       1.00000000       0.17334805       0.01510325       0.17009056
Ni      10.19847801       4.38553652       0.04561054        0       1.00000000      -0.06857550      -0.02430009       0.27026933
Ni       3.81781427       6.57487597       0.02910918        0       1.00000000       0.07736825      -0.07910956       0.05746717
Pt       6.37777891       6.61753166       0.00862775        0       0.00000000       0.03266886       0.15958390      -0.26797469
Ni       8.93797071       6.57620435       0.11297035        1       1.00000000      -0.14196625      -0.19567513      -0.39759359
Ni      11.48416677       6.58356030       0.00000000        0       1.00000000      -0.04738807      -0.10697459       0.02461211
Ni       1.29455387       0.74938163       2.14742080        3       1.00000000       0.03723332       0.12138401       0.02265706
Ni       3.82255547       0.74031197       2.19544906        4       1.00000000       0.09343441       0.01282538       0.16064418
Ni       6.35288432       0.76949212       2.22204402        4       1.00000000      -0.05981373       0.13694839       0.29234628
Pt       8.95650876       0.80862727       2.17830193        4       0.00000000      -0.06763523       0.00595883       0.17876768
Ni       2.54356023       2.92311323       2.19313836        4       1.00000000       0.00859337       0.01340345       0.03977886
Ni       5.08529879       2.91203427       2.22330363        4       1.00000000      -0.06814751      -0.04648175       0.23009217
Ni       7.68135375       2.94520301       2.19476698        4       1.00000000       0.04381909       0.07484736       0.21548442
Ni      10.20557358       2.93062034       2.17716942        4       1.00000000       0.02432475      -0.01903217       0.17122992
Ni       3.84101827       5.07571562       2.16942252        4       1.00000000       0.02777082      -0.17995906       0.04741536
Pt       6.38244623       5.11093784       2.18124367        4       0.00000000      -0.02866384      -0.01176125      -0.05746213
Ni       8.92340622       5.08356066       2.16920976        4       1.00000000      -0.00347299      -0.12802344       0.12304451
Pt      11.47360174       5.03482228       2.17250514        4       0.00000000      -0.01693195      -0.05436606       0.09051689
Ni       5.11476468       7.31891306       2.13489810        3       1.00000000      -0.02839493      -0.04448248       0.03415324
Ni       7.64998130       7.33848983       2.13420896        3       1.00000000       0.00386648      -0.03090115       0.09506426
Pt      10.17651519       7.33925062       2.09568567        3       0.00000000      -0.02849230      -0.00069903       0.06768243
Pt      12.78385328       7.29162666       2.10326782        3       0.00000000       0.10018521      -0.08762749       0.02484083
Ni      -0.01640900       1.51145173       4.32441911        6       1.00000000      -0.05883728       0.10416632      -0.07990692
Pt       2.51842328       1.54431159       4.24053668        5       0.00000000      -0.05498512       0.05794462       0.04380272
Ni       5.14762922       1.44505575       4.30013250        6       1.00000000       0.04171412      -0.04636979      -0.23487947
Ni       7.63599308       1.46228452       4.31258994        6       1.00000000       0.04636726      -0.02512047      -0.18512692
Ni       1.24866292       3.68428206       4.35910407        7       1.00000000      -0.05362036       0.03069855       0.01727371
Ni       3.81425218       3.71819965       4.29210347        6       1.00000000      -0.07438734       0.09233587      -0.23421994
Pt       6.37715743       3.63381273       4.34951989        6       0.00000000      -0.00216493      -0.02050190       0.01415191
Ni       8.96285760       3.67786480       4.28730473        6       1.00000000       0.06904856       0.02596188      -0.21214290
Ni       2.53433532       5.79249004       4.36153595        7       1.00000000      -0.08684078      -0.08205998      -0.03394445
Ni       5.06259119       5.80254386       4.33742570        6       1.00000000      -0.11088725      -0.05286660      -0.12760319
Ni       7.68630417       5.80005098       4.31248401        6       1.00000000       0.18020453      -0.07396891      -0.16179182
Ni      10.23916117       5.79178899       4.32223800        6       1.00000000       0.02422228      -0.04568227      -0.09950113
Pt       3.78064348       8.00104202       4.30355739        6       0.00000000      -0.01246963      -0.03487934       0.10540511
Pt       6.37748242       7.98397652       4.21618031        5       0.00000000      -0.01781283      -0.00926667      -0.11730431
Pt       8.99712967       8.03784754       4.28254977        6       0.00000000       0.01971681       0.05661083      -0.02828862
Ni      11.47551694       8.03801630       4.29890503        6       1.00000000       0.03275812      -0.08130243      -0.17596923
Pt      -0.01551287      -0.05156652       6.54290971       10       0.00000000      -0.13051357       0.06578874       0.44626024
Pt       2.57365520      -0.01636381       6.55727414       11       0.00000000       0.07539873       0.01623442       0.49996112
Ni       5.11035790      -0.02575233       6.46612996       10       1.00000000      -0.10166224       0.06413427       0.03518486
Pt       7.54466021      -0.05021955       6.50573487       10       0.00000000       0.05673503       0.13960572       0.34545854
Ni       1.27307274       2.23972351       6.45576449       10       1.00000000       0.07993918       0.05043931      -0.16113993
Pt       3.87829638       2.27190421       6.39921167        9       0.00000000       0.08822979       0.15540947       0.56196869
Ni       6.37456188       2.19773329       6.38518943        9       1.00000000       0.00266527       0.01167294       0.32353541
Pt       8.92481372       2.27954358       6.44322069        9       0.00000000      -0.06120519      -0.08635261       0.03770167
Ni       2.53032782       4.41716201       6.42476410        9       1.00000000       0.04226439      -0.03667590      -0.33419154
Ni       5.10462025       4.42964685       6.44137160        9       1.00000000      -0.03954993       0.04173883      -0.15053168
Ni       7.61809715       4.38889112       6.44622653        9       1.00000000      -0.08154187       0.01157635      -0.06419560
Ni      10.26472417       4.37668790       6.42225436        9       1.00000000       0.11263840      -0.01892473      -0.25835060
Ni       3.81268324       6.49199644       6.43147515        9       1.00000000      -0.03340850      -0.04348014      -0.21136609
Ni       6.35479514       6.50458162       6.34472418        8       1.00000000       0.04764637       0.00191031       0.19987570
Pt       8.97820627       6.47224296       6.46522021       10       0.00000000      -0.07129886      -0.08491933       0.16840826
Ni      11.50110035       6.52626138       6.41089415        9       1.00000000       0.05176653      -0.07112430      -0.23661268
