64
Lattice="10.170936172929636 0.04117293756059266 -0.010304895171375969 5.121124896340723 8.804983344038963 -0.015176208055401612 -0.008413911674247111 -0.009450492001498932 8.708256067781743" Properties=species:S:1:pos:R:3:tags:I:1:initial_magmoms:R:1:forces:R:3 unique_id=e1869754743e4e68a649cdbb44f2c6ac stress="-0.007160805503700754 5.2795265474826596e-06 1.7065931484074535e-05 5.2795265474826596e-06 -0.007128874377501329 -1.54082128956725e-05 1.7065931484074535e-05 -1.54082128956725e-05 -0.006156150253749514" energy=-391.32584951506897 pbc="T T T"
Ni       0.03488239      -0.04453592       0.20108485        4       1.00000000       0.06489498      -0.04024008       0.15566897
Ni       2.50034310       0.02542145       0.16537628        4       1.00000000      -0.02269772       0.12251832      -0.00545155
Pt       5.11565312      -0.03962999       0.21982439        4       0.00000000      -0.03680840      -0.03182620      -0.03573400
Ni       7.64036600      -0.01617821       0.17593798        4       1.00000000       0.00489026      -0.08468545       0.08287393
Ni       1.27493260       2.22697641       0.12522101        4       1.00000000      -0.02120278       0.11937559       0.10886373
Pt       3.79113549       2.28394199       0.19130002        4       0.00000000      -0.02542364       0.07230150      -0.10795450
Ni       6.36994179       2.26661430       0.12021231        4       1.00000000      -0.01260295       0.07462168       0.13525577
Pt       8.91149921       2.30070366       0.13694960        4       0.00000000      -0.00775360       0.11262396      -0.18227082
Ni       2.53673832       4.45023203       0.10582950        4       1.00000000      -0.00723640       0.06075981       0.06857224
Ni       5.12111487       4.45846899       0.10430840        4       1.00000000      -0.05153635       0.06239971       0.03393108
Ni       7.61498300       4.46426170       0.10876184        4       1.00000000      -0.03289742       0.08731191       0.11620417
Ni      10.22359436       4.47105612       0.10518450        4       1.00000000       0.07488549       0.05041524       0.05067654
Ni       3.83821966       6.57945278       0.10442075        4       1.00000000      -0.03418054      -0.03576577       0.04360972
Ni       6.34114161       6.58281275       0.06153656        4       1.00000000      -0.11321419      -0.03578706      -0.11363245
Ni       8.94529780       6.55568591       0.17800191        4       1.00000000       0.10574793      -0.10110603       0.14145866
Ni      11.49865203       6.58059429       0.10305443        4       1.00000000       0.03585011      -0.04762261       0.03054503
Ni       1.30036601       0.78383066       2.16644349        3       1.00000000       0.01819467       0.10697649       0.04664480
Ni       3.77649257       0.77872748       2.19010392        3       1.00000000      -0.09999661       0.03752219       0.01476113
Ni       6.37008797       0.76196617       2.19896541        3       1.00000000       0.03019927       0.00509580       0.05895764
Pt       8.88012619       0.73952608       2.17452633        3       0.00000000       0.04588460      -0.02057536       0.13684440
Ni       2.51913147       2.98566759       2.24552651        3       1.00000000      -0.00659023       0.10974734       0.04858588
Ni       5.10304369       3.00472922       2.16712834        3       1.00000000      -0.02563353       0.10993793       0.00215120
Ni       7.61386368       3.00194483       2.19447056        3       1.00000000       0.01173359       0.04579459       0.05883039
Ni      10.22906293       3.03952206       2.18329480        3       1.00000000       0.06831944       0.07492394       0.01752606
Ni       3.81510439       5.13146907       2.17631843        3       1.00000000      -0.06244541      -0.02778563      -0.00858187
Ni       6.33423813       5.12360973       2.12398390        3       1.00000000      -0.06484989      -0.00164264       0.00239670
Ni       8.95891850       5.11291821       2.15821688        3       1.00000000       0.02860222      -0.04668127       0.04805186
Ni      11.47287146       5.16102824       2.17966432        3       1.00000000       0.04515893      -0.04947194       0.04762809
Ni       5.08768990       7.26301050       2.14393724        3       1.00000000      -0.11569066      -0.15405481       0.02736741
Pt       7.60195605       7.33105098       2.09136807        3       0.00000000      -0.08277081      -0.01297103      -0.00551865
Ni      10.26278490       7.27757472       2.19884111        3       1.00000000       0.04019351      -0.18706389       0.07065449
Ni      12.70777235       7.29184790       2.13897292        3       1.00000000       0.01405274      -0.12008222       0.01433058
Pt       0.08416541       1.52254160       4.27347216        2       0.00000000       0.07059584      -0.04793749       0.00508435
Ni       2.54690950       1.52934800       4.26218490        2       1.00000000       0.05861827       0.06236192      -0.10396303
Pt       5.09842850       1.49672274       4.20703283        2       0.00000000       0.01745464       0.00160226      -0.08146582
Ni       7.63051749       1.48380039       4.29370144        2       1.00000000       0.01465823      -0.06907866      -0.05381631
Ni       1.31514799       3.71679936       4.31280925        2       1.00000000       0.04392245       0.00656349      -0.07539446
Ni       3.76458548       3.75146215       4.25923115        2       1.00000000      -0.00459144       0.05862926      -0.16056057
Pt       6.35277863       3.68667066       4.30820873        2       0.00000000       0.01970587      -0.03495686      -0.02267293
Ni       8.96524821       3.73911224       4.24806595        2       1.00000000       0.09408983       0.04334091      -0.18178463
Ni       2.53403068       5.80606175       4.30502032        2       1.00000000      -0.02634080      -0.02314982      -0.15463201
Ni       5.05949401       5.83392179       4.30808322        2       1.00000000      -0.02452004      -0.08797223      -0.14305052
Pt       7.63560498       5.85685990       4.28871154        2       0.00000000       0.02397787      -0.01693344      -0.00075233
Ni      10.26617542       5.84080166       4.27778457        2       1.00000000       0.02205428      -0.03640929      -0.07967556
Pt       3.82133366       7.94571272       4.26869022        2       0.00000000       0.01283821      -0.02459901       0.04147772
Ni       6.36744836       8.05838650       4.27436600        2       1.00000000      -0.02376734      -0.00572964      -0.09410462
Pt       8.94835641       8.06593230       4.22070523        2       0.00000000      -0.01391970      -0.05771248      -0.03516433
Ni      11.48786156       8.01630217       4.23936461        2       1.00000000       0.02373812      -0.09282163      -0.10359931
Pt      -0.00136387      -0.07322700       6.52433992        1       0.00000000      -0.06519035      -0.04223953       0.17435698
Pt       2.51211601       0.01374748       6.47283264        1       0.00000000       0.06623156       0.01872471      -0.01276364
Pt       5.10747025       0.00863990       6.41550976        1       0.00000000      -0.04506720       0.00230340       0.11544151
Pt       7.61515950      -0.02517103       6.48436990        1       0.00000000       0.05447424      -0.02608683       0.10567281
Ni       1.27355127       2.27101276       6.44238446        1       1.00000000       0.03229148       0.05833936      -0.00688179
Pt       3.79241766       2.35525424       6.37070690        1       0.00000000      -0.02470760       0.08659443       0.00068616
Ni       6.35213240       2.27023326       6.45329868        1       1.00000000      -0.03225956       0.01650562       0.02902114
Pt       8.88462475       2.34297074       6.34963315        1       0.00000000      -0.04663296       0.06428325       0.01809984
Ni       2.52449691       4.46080000       6.40930412        1       1.00000000       0.00045426       0.06112430      -0.08302875
Ni       5.09698167       4.47062790       6.44512156        1       1.00000000      -0.03843931       0.06966992      -0.02000246
Ni       7.57323899       4.42322239       6.46498198        1       1.00000000      -0.14004111       0.00029731       0.05955717
Ni      10.26705498       4.42167083       6.40906012        1       1.00000000       0.15005419      -0.02403903      -0.10480382
Ni       3.82615367       6.49705391       6.44090521        1       1.00000000      -0.02931482      -0.09743536      -0.02282808
Ni       6.33785572       6.54085414       6.43493171        1       1.00000000      -0.02299771      -0.02440591      -0.15898336
Pt       8.95243131       6.48523431       6.51730220        1       0.00000000       0.05049823      -0.08954437       0.16071391
Ni      11.50761836       6.55321087       6.40501332        1       1.00000000       0.01705580      -0.00425259      -0.11342987
