64
Lattice="10.167635671138559 0.006656530320757987 0.004903648867393879 5.089582559928176 8.733380297937497 -0.06533820532504236 0.004003812534297206 -0.06391305298565708 8.674013946345157" Properties=species:S:1:pos:R:3:tags:I:1:initial_magmoms:R:1:forces:R:3 unique_id=4b56ba82a4cc44f4b2d777a660ccb5e4 stress="-0.0012645256243785027 2.55488488670005e-06 5.059294146447531e-06 2.55488488670005e-06 -0.0012384356802097388 1.9141807342488058e-05 5.059294146447531e-06 1.9141807342488058e-05 -0.00106499285914851" energy=-389.81282620132805 pbc="T T T"
Ni       0.03782752      -0.04245488       0.18443009        4       1.00000000       0.10282008      -0.02385371       0.31762122
Ni       2.52199103      -0.03336918       0.19318262        4       1.00000000      -0.01848303      -0.08066157       0.19775524
Ni       5.09438448      -0.01594617       0.18212172        4       1.00000000      -0.02867838      -0.03989134       0.27644561
Ni       7.60070069      -0.01573763       0.16817100        4       1.00000000      -0.00315085       0.01763278       0.25704632
Ni       1.27662972       2.19036637       0.10031946        4       1.00000000       0.00371714       0.01697910       0.21383450
Pt       3.80362873       2.18874203       0.17072715        4       0.00000000      -0.05374462      -0.03930599       0.28916997
Ni       6.35109184       2.19263215       0.09875896        4       1.00000000      -0.00111201       0.04650099       0.20929384
Pt       8.90461596       2.24142372       0.09914104        4       0.00000000       0.05669012      -0.01486089       0.22653042
Ni       2.52198692       4.39176125       0.06507743        4       1.00000000      -0.04187745       0.02613415       0.13881001
Ni       5.08751446       4.38499603       0.04072609        4       1.00000000      -0.02280257      -0.01214631       0.04443306
Ni       7.61976559       4.39643052       0.04742426        4       1.00000000       0.00363990       0.07540299       0.08166681
Ni      10.20017975       4.40286123       0.07494440        4       1.00000000       0.07766950       0.10004390       0.14593210
Ni       3.83977160       6.51865779       0.01661076        4       1.00000000       0.12455061      -0.11630404      -0.00932542
Ni       6.35515294       6.55981569       0.03356835        4       1.00000000       0.01195779       0.04502459      -0.02933750
Ni       8.87538390       6.52675801       0.10660718        4       1.00000000      -0.13844531      -0.07929993       0.20109997
Ni      11.43592806       6.52125087       0.00853436        4       1.00000000      -0.08438326      -0.09451314      -0.07928341
Ni       1.31621276       0.72415120       2.19053410        3       1.00000000       0.02972656       0.10147838       0.10250282
Ni       3.76013544       0.70901738       2.19178568        3       1.00000000      -0.17536453      -0.01069707       0.01144334
Ni       6.34855786       0.75476275       2.14579753        3       1.00000000       0.06336377       0.01147956      -0.02494561
Pt       8.94228705       0.75807238       2.22263438        3       0.00000000       0.03974629       0.19972293      -0.12100838
Ni       2.50863877       2.91275226       2.21530611        3       1.00000000      -0.00165966       0.00042006       0.11107888
Ni       5.08665740       2.90713254       2.17345907        3       1.00000000      -0.06409224       0.06084694      -0.03007792
Ni       7.61870461       2.91827770       2.18501485        3       1.00000000       0.07195854       0.00621041       0.01810264
Ni      10.22275649       2.94844424       2.20637935        3       1.00000000       0.04996089       0.00529269       0.04614426
Ni       3.80371602       5.02317384       2.14282662        3       1.00000000      -0.00902025      -0.17133249       0.01833300
Pt       6.36164939       5.11242572       2.10880348        3       0.00000000      -0.00012944       0.06062064      -0.01507009
Ni       8.91790321       5.04145867       2.15019228        3       1.00000000       0.00459352      -0.12364404       0.02336101
Ni      11.43534284       5.01878863       2.15351853        3       1.00000000      -0.02350636      -0.10851258       0.09125420
Ni       5.13533423       7.26171053       2.10380499        3       1.00000000       0.01767230       0.00949909       0.00388152
Ni       7.60251958       7.29618973       2.13666838        3       1.00000000      -0.05131199       0.04100218       0.07461203
Pt      10.11154711       7.24342433       2.15234485        3       0.00000000      -0.05778512      -0.09636766       0.04454225
Pt      12.71465592       7.17776424       2.09028925        3       0.00000000       0.04347531      -0.16449713      -0.04234693
Ni       0.06998264       1.46639788       4.27302520        2       1.00000000       0.14901762       0.05927310      -0.03086179
Ni       2.48919715       1.44278483       4.24235670        2       1.00000000       0.00043519       0.05719403      -0.08765462
Pt       5.06967999       1.39450145       4.19573720        2       0.00000000      -0.12137572      -0.07133686       0.09407986
Ni       7.62752640       1.43495772       4.27745432        2       1.00000000      -0.02986506      -0.05055088      -0.04892732
Ni       1.27774532       3.61522217       4.27957002        2       1.00000000       0.03508245       0.01372349      -0.09083726
Ni       3.76272991       3.67209126       4.23887231        2       1.00000000      -0.04539711       0.04876789      -0.16327400
Pt       6.38736364       3.65026279       4.31883882        2       0.00000000       0.02759529      -0.02104211       0.00716101
Ni       8.95409089       3.66493340       4.22896956        2       1.00000000       0.09564029       0.10545520      -0.20885302
Ni       2.52368130       5.73056482       4.29268228        2       1.00000000      -0.06933401      -0.10919620      -0.14968209
Ni       5.08404469       5.78176944       4.29579643        2       1.00000000       0.01082068      -0.07487691      -0.11656461
Ni       7.64403890       5.82233171       4.25084395        2       1.00000000       0.08116517       0.07421237      -0.17022590
Ni      10.19649639       5.75274534       4.25989420        2       1.00000000       0.06258432      -0.11943213      -0.10135225
Pt       3.85177454       7.90873368       4.23373613        2       0.00000000       0.06215724      -0.05155653       0.18817196
Ni       6.39931833       7.95534615       4.18813032        2       1.00000000       0.03373080      -0.00074976      -0.12765486
Ni       8.86596843       7.94282196       4.22095733        2       1.00000000      -0.10817277      -0.05250900       0.00793321
Ni      11.43454030       7.91654321       4.24165314        2       1.00000000       0.00805985      -0.12668413       0.02387227
Pt       0.02104336      -0.07991091       6.47556890        1       0.00000000       0.10813647      -0.02605471       0.15924890
Pt       2.53333611      -0.04255016       6.41355210        1       0.00000000      -0.15181752       0.03970298       0.02668143
Pt       5.09624357      -0.06057453       6.46043071        1       0.00000000       0.12297005       0.04347210       0.07309198
Pt       7.61794365      -0.07778453       6.47142266        1       0.00000000      -0.11124717      -0.03685290       0.07968698
Ni       1.27061058       2.20519119       6.37781795        1       1.00000000       0.02328256       0.11093375      -0.18241169
Pt       3.79037265       2.27790398       6.34948399        1       0.00000000      -0.01614332       0.26910466      -0.29673153
Ni       6.35899645       2.19296276       6.42266273        1       1.00000000      -0.05935489       0.05340460      -0.06247806
Pt       8.91003912       2.24955048       6.29137418        1       0.00000000      -0.00071793       0.17687732      -0.51036668
Ni       2.51619099       4.38146079       6.36665284        1       1.00000000      -0.04761909       0.11124055      -0.15557613
Ni       5.09477223       4.38950349       6.39742498        1       1.00000000      -0.05746816       0.15668613      -0.09507229
Ni       7.58814242       4.33922363       6.40728001        1       1.00000000      -0.13711338       0.02459754      -0.04860394
Ni      10.24239465       4.33240843       6.37214874        1       1.00000000       0.21680289       0.00837022      -0.18233504
Ni       3.81918017       6.41907547       6.37146217        1       1.00000000      -0.03485096      -0.11923468      -0.16115523
Ni       6.33439518       6.44143774       6.36085432        1       1.00000000      -0.01233251      -0.00452027      -0.24182109
Pt       8.90571472       6.38727975       6.37244023        1       0.00000000       0.02822783      -0.13475858       0.04359240
Ni      11.47693275       6.43757248       6.35575378        1       1.00000000       0.01110564      -0.00206376      -0.26458036
