2
Lattice="15.0 0.0 0.0 0.0 15.0 0.0 0.0 0.0 15.0" Properties=species:S:1:pos:R:3:initial_magmoms:R:1:forces:R:3 energy=-6.692961692810059 free_energy=-6.692961692810059 stress="0.0 0.0 0.0 0.0 0.0 0.0 0.0 0.0 4.181950494594237e-06" pbc="T T T"
H        7.50000000       7.50000000       7.12581750       0.00000000      -0.00000000      -0.00000000       0.01885989
H        7.50000000       7.50000000       7.87418250       0.00000000      -0.00000000      -0.00000000      -0.01885989
