64
Lattice="10.051646778420151 0.008521297341508369 0.028265116459740426 5.0332030491810205 8.725978067474008 -0.013283572326307638 0.0 0.0 21.4648488996274" Properties=species:S:1:pos:R:3:tags:I:1:initial_magmoms:R:1:forces:R:3 unique_id=9048b658abf04d4aa0a96c238ff7fa86 energy=-365.0386964436334 stress="0.003680491194312494 0.00020901444842479717 0.0005127007535868082 0.00020901444842479717 0.003804054028785305 -0.0003363584708419408 0.0005127007535868082 -0.0003363584708419408 -0.0035363207177871994" pbc="T T T"
Ni       0.00768709       0.00439093       0.09852041        1       1.00000000      -0.00101948       0.00511165       0.26319857
Ni       2.51430166       0.03130180       0.06375913        1       1.00000000      -0.02348803       0.08306945      -0.01691057
Ni       5.03437978      -0.00242076       0.09599394        1       1.00000000       0.01742562       0.02119435       0.13620221
Ni       7.54725398       0.01879613       0.08193775        1       1.00000000       0.05370548       0.03992241       0.20966041
Ni       1.26484723       2.16143030       0.18141921        2       1.00000000       0.00685444      -0.01713465      -0.24334994
Ni       3.74663976       2.13269105       0.07068802        1       1.00000000      -0.04395374       0.03440479       0.10977559
Ni       6.32216761       2.12849388       0.06647368        1       1.00000000       0.05665368       0.01559379       0.14157981
Ni       8.81968822       2.16879523       0.22436464        2       1.00000000       0.06244101      -0.05073782      -0.44278975
Ni       2.49178859       4.34713993       0.17960155        2       1.00000000       0.09988788      -0.04180563      -0.27580348
Pt       5.03626884       4.37513114       0.00000000        0       0.00000000      -0.03512159       0.12070675      -0.28287308
Ni       7.56768500       4.33793362       0.04585541        0       1.00000000      -0.05734143      -0.09592965      -0.06806006
Ni      10.11821805       4.32272094       0.19550887        2       1.00000000       0.11799697      -0.10228439      -0.81396626
Ni       3.78052466       6.56678427       0.13746910        1       1.00000000       0.10702914      -0.03824402      -0.41293062
Ni       6.29403274       6.57843290       0.03525878        0       1.00000000      -0.09606095      -0.03797062       0.01717054
Ni       8.82742817       6.56354721       0.03196849        0       1.00000000       0.03227427       0.01909676      -0.08181182
Ni      11.30254882       6.54174555       0.08526878        1       1.00000000       0.00433766      -0.06470317       0.10683374
Ni       1.23266705       0.75868849       2.15707642        4       1.00000000      -0.04368593       0.00291829       0.12152712
Ni       3.76344802       0.74167374       2.12172346        3       1.00000000      -0.07928347       0.05184779       0.00428296
Ni       6.29517970       0.72191757       2.15705066        4       1.00000000       0.01027033       0.01274547       0.04900590
Ni       8.82584978       0.74508801       2.17968071        4       1.00000000       0.01336907      -0.05304453       0.15455598
Ni       2.49084555       2.89001851       2.15606381        4       1.00000000       0.02727452      -0.01248135       0.09147282
Pt       5.02723175       2.87514548       2.19075146        4       0.00000000      -0.02157105      -0.02428544      -0.02836982
Ni       7.53719817       2.84307229       2.12724579        3       1.00000000      -0.02141321      -0.03869138       0.07128620
Ni      10.09847269       2.85802519       2.16845058        4       1.00000000       0.03396522      -0.01359173       0.24997864
Ni       3.77566878       5.08268717       2.17865190        4       1.00000000       0.05238047      -0.01406008       0.13852585
Ni       6.25531911       5.09715885       2.17963153        4       1.00000000      -0.11506675       0.00952529       0.08460127
Pt       8.79425467       5.06126954       2.08635081        3       0.00000000      -0.01756850      -0.04273701       0.01814526
Ni      11.36700851       5.04954421       2.15736606        4       1.00000000       0.07355883      -0.02997124       0.17299641
Ni       5.02254131       7.28151438       2.14976242        3       1.00000000      -0.05298869       0.02175128       0.09289303
Pt       7.49041461       7.32101366       2.11095761        3       0.00000000      -0.03469692       0.00838602      -0.02374209
Ni      10.07196621       7.31807911       2.09770020        3       1.00000000      -0.04621999       0.00720552       0.01955128
Pt      12.57424764       7.28947237       2.17694240        4       0.00000000      -0.01405725      -0.01066761       0.05880190
Ni       0.02493355       1.37903432       4.19804325        5       1.00000000       0.02244757       0.00699473      -0.05636992
Ni       2.52466400       1.48224682       4.19542290        5       1.00000000      -0.08407635       0.10016998      -0.10281308
Ni       5.06722531       1.47472290       4.29623696        6       1.00000000       0.01233118       0.09435893      -0.09612736
Ni       7.50299409       1.39115061       4.22982398        5       1.00000000       0.03798448       0.00353624      -0.09081529
Ni       1.31331089       3.58272764       4.19022333        5       1.00000000       0.01312590      -0.01710672      -0.08267487
Ni       3.79073034       3.61583306       4.24062380        5       1.00000000      -0.07648787       0.03229209      -0.05028671
Ni       6.26317595       3.62442937       4.27344174        6       1.00000000      -0.00687266      -0.00448258      -0.14440488
Pt       8.76185654       3.55322680       4.23746704        5       0.00000000       0.06268628      -0.00858876       0.07457408
Ni       2.59723811       5.80280763       4.21526108        5       1.00000000       0.12046336      -0.05564169      -0.08170704
Ni       5.05636667       5.80702494       4.21109960        5       1.00000000      -0.03309683       0.04142603      -0.13167042
Ni       7.48642825       5.81304013       4.28803461        6       1.00000000       0.00998274      -0.00923302      -0.11294666
Pt      10.14836374       5.84919428       4.24029427        5       0.00000000       0.03187619      -0.04567178       0.01387776
Ni       3.80458093       8.02364574       4.22382871        5       1.00000000       0.01946389       0.03370473      -0.01535063
Ni       6.24453960       7.99590301       4.26993393        6       1.00000000      -0.03757025       0.03233412      -0.02050004
Pt       8.80136824       8.07813380       4.28943097        6       0.00000000      -0.06625129       0.03844495       0.02739089
Ni      11.36596006       8.05269351       4.29141528        6       1.00000000       0.03702574       0.01140085      -0.02749631
Ni       0.04658188      -0.04654179       6.32262538        8       1.00000000       0.02434789       0.01021901      -0.09827606
Ni       2.53586512      -0.05919383       6.37874031        9       1.00000000      -0.02681421       0.02637338       0.08940710
Ni       5.05603992       0.01674820       6.38140312        9       1.00000000      -0.02892961       0.01813927      -0.15095526
Ni       7.47936001      -0.01775666       6.33897289        8       1.00000000      -0.02049973       0.02493531      -0.05766767
Pt       1.31765313       2.06806504       6.35572846        9       0.00000000      -0.15483345       0.24190250       0.11943184
Ni       3.85050160       2.12185775       6.31756435        8       1.00000000      -0.08503381       0.00289448      -0.14088303
Ni       6.23391140       2.16785991       6.32536593        8       1.00000000       0.05765615       0.02657801      -0.14677214
Pt       8.70335836       2.08370451       6.44404029        9       0.00000000       0.11904916       0.08854022       0.20152105
Pt       2.59882336       4.34101489       6.34952279        8       0.00000000      -0.02848130       0.02496518       0.21311578
Ni       5.10113337       4.33477746       6.20371208        7       1.00000000      -0.11910887       0.09577187       0.39392525
Ni       7.47079522       4.38973248       6.33487194        8       1.00000000       0.00900036      -0.04809289      -0.01147972
Pt      10.00678637       4.42455860       6.46484890       10       0.00000000       0.13313874      -0.30769336       0.64638237
Pt       3.83886498       6.60207643       6.33344646        8       0.00000000       0.01761475      -0.15474436       0.10872239
Ni       6.34400354       6.53956110       6.30842435        8       1.00000000      -0.05580471       0.01436223      -0.08385311
Ni       8.77062952       6.58543910       6.35867633        9       1.00000000       0.01136521      -0.02969749       0.11704487
Ni      11.31727116       6.62254041       6.36697968        9       1.00000000       0.01841374      -0.05353073       0.07621879
