64
Lattice="10.334324857686681 -0.04875497406635695 0.016003233495273626 5.124939382741022 8.884636914290873 -0.029481274879547884 0.013066585432678975 -0.03533920913075058 8.790559115740779" Properties=species:S:1:pos:R:3:tags:I:1:initial_magmoms:R:1:forces:R:3 unique_id=446489c45a8c40a19461275bc30f2446 stress="0.0002309964658279845 4.782418704120999e-06 -1.6162102877098942e-05 4.782418704120999e-06 0.0002333262673422029 9.961288240497312e-06 -1.6162102877098942e-05 9.961288240497312e-06 0.00022560097321776967" energy=-398.1045000096702 pbc="T T T"
Ni       0.00418432       0.01631417       0.18092305        4       1.00000000       0.04002461       0.01644875       0.23636192
Ni       2.57897340      -0.01078058       0.21421646        4       1.00000000      -0.00081271      -0.00434354       0.40787178
Ni       5.16133987      -0.03774202       0.17435656        4       1.00000000      -0.04095928       0.13263848       0.24192525
Ni       7.75328001      -0.08402248       0.19932100        4       1.00000000      -0.04024058      -0.16771533       0.33277671
Ni       1.25049464       2.22355976       0.10063117        4       1.00000000      -0.12756382      -0.00031808       0.23609902
Pt       3.79595899       2.21502325       0.11395678        4       0.00000000      -0.07083981       0.02469243      -0.13830098
Pt       6.46725376       2.14582805       0.19762420        4       0.00000000       0.05429529      -0.04046389       0.18734408
Ni       9.07264566       2.18219845       0.15793365        4       1.00000000       0.09724942       0.03638654       0.14054707
Ni       2.56100627       4.45261138       0.05990959        4       1.00000000       0.09996470       0.01560863       0.02931721
Ni       5.11405134       4.44231400       0.17545942        4       1.00000000      -0.02344180       0.00137485       0.33390738
Pt       7.80304052       4.42682980       0.10310744        4       0.00000000       0.10741188      -0.00212545      -0.09303897
Ni      10.34134100       4.39369660       0.07163247        4       1.00000000       0.10854557      -0.07772969       0.11902655
Ni       3.81177864       6.65730901       0.17265585        4       1.00000000      -0.05048663      -0.06793327       0.30195760
Pt       6.40054192       6.68808108       0.17422763        4       0.00000000      -0.06112824      -0.01436132       0.07781834
Ni       9.03167012       6.64755026       0.06075082        4       1.00000000      -0.01073999       0.00392839       0.02750352
Ni      11.61334831       6.62150196       0.05732842        4       1.00000000       0.12953670      -0.03594338      -0.03413045
Ni       1.30415748       0.74730850       2.16461805        3       1.00000000      -0.00422489       0.13805439      -0.05183520
Ni       3.86811236       0.74017677       2.19893740        3       1.00000000       0.06584200       0.06813219       0.01040485
Ni       6.45321619       0.72107710       2.24515567        3       1.00000000      -0.01854961       0.13242234       0.14279849
Pt       9.04934759       0.73047616       2.19203141        3       0.00000000      -0.00247239       0.08532352       0.12936168
Ni       2.57860640       2.94300423       2.19639000        3       1.00000000      -0.00533161       0.06029078      -0.01037542
Ni       5.12611054       2.95070429       2.23238180        3       1.00000000      -0.17740834      -0.00757361      -0.01867077
Ni       7.76602741       2.94048525       2.24239772        3       1.00000000       0.12929561       0.05273780      -0.05030425
Ni      10.32221444       2.90783177       2.19410072        3       1.00000000       0.05436811       0.06283500       0.02176370
Ni       3.88718374       5.16617949       2.19773562        3       1.00000000       0.06353175      -0.05277221       0.10288267
Ni       6.42051572       5.15979075       2.21979776        3       1.00000000      -0.02861736       0.11064875      -0.08408274
Ni       8.99929239       5.12359083       2.22528957        3       1.00000000      -0.01869090      -0.08483704       0.11040814
Pt      11.65138364       5.09723287       2.13732327        3       0.00000000       0.07818916      -0.03725092      -0.01165093
Ni       5.10993604       7.36019442       2.17753341        3       1.00000000      -0.13302019      -0.13019289      -0.06918506
Ni       7.71612858       7.37483196       2.17744904        3       1.00000000       0.03314353      -0.11665191      -0.10459089
Pt      10.28293533       7.37676273       2.09114928        3       0.00000000       0.02753055      -0.13863155      -0.05825129
Ni      12.91021972       7.33349016       2.15063696        3       1.00000000       0.01572455      -0.09485666      -0.00950675
Ni      -0.01684804       1.49811785       4.33572163        2       1.00000000       0.00509852       0.01519733      -0.13713001
Pt       2.61596603       1.51091809       4.30264983        2       0.00000000       0.00770836      -0.00764277      -0.10926000
Ni       5.16680982       1.47708607       4.32387824        2       1.00000000       0.05051820       0.08386784      -0.19348755
Ni       7.77102842       1.46675544       4.33208197        2       1.00000000       0.05546622       0.07886504      -0.09964256
Pt       1.27631095       3.68027500       4.38840947        2       0.00000000      -0.04021198      -0.05889290      -0.09898580
Ni       3.87489957       3.70720106       4.32359260        2       1.00000000       0.00690611       0.09792454      -0.26038427
Pt       6.46084637       3.69140905       4.24123543        2       0.00000000      -0.07963557      -0.06984282       0.07247884
Ni       9.01310917       3.63590575       4.33119679        2       1.00000000      -0.01047119      -0.08640755      -0.30741881
Ni       2.58517249       5.86963822       4.33314673        2       1.00000000       0.02881120      -0.07697986      -0.17868567
Ni       5.12239459       5.85548541       4.28968458        2       1.00000000      -0.06440340      -0.07047320      -0.18636418
Ni       7.73438482       5.84089978       4.31240836        2       1.00000000      -0.03629810      -0.02596180      -0.28134960
Pt      10.27007116       5.82008939       4.41226707        2       0.00000000      -0.02491974       0.00303525      -0.11007602
Pt       3.84613456       8.09945363       4.26215415        2       0.00000000      -0.04743262      -0.10932893       0.13026827
Pt       6.40962022       8.08761232       4.21014934        2       0.00000000      -0.03996524      -0.04275170      -0.03465788
Pt       8.98948565       8.09708769       4.29202201        2       0.00000000      -0.01979391       0.04826141       0.06522675
Pt      11.61432697       8.11964708       4.28705663        2       0.00000000       0.04811795       0.05575160       0.04233421
Pt       0.03419726       0.02416432       6.57246177        1       0.00000000      -0.00489726       0.04601140       0.07152008
Pt       2.60487218       0.02016642       6.61134743        1       0.00000000       0.00098395       0.11392410       0.25003683
Pt       5.15952830      -0.10259320       6.59013174        1       0.00000000      -0.00524244      -0.14953731       0.06383309
Pt       7.75251905      -0.07173219       6.60237956        1       0.00000000       0.02083876       0.03089508       0.13933081
Ni       1.31528181       2.25808795       6.52379460        1       1.00000000       0.07025334       0.13509207      -0.04563465
Ni       3.83968963       2.21693141       6.44690340        1       1.00000000      -0.06075308       0.03446705      -0.27719948
Pt       6.45151539       2.19177392       6.44588750        1       0.00000000       0.00012172       0.06736015      -0.23259172
Pt       9.10366686       2.27728690       6.50868410        1       0.00000000       0.12600753       0.15569843       0.02186683
Ni       2.52062058       4.39025003       6.50744779        1       1.00000000      -0.15135376      -0.04917933      -0.13639521
Pt       5.08651955       4.36359393       6.51258394        1       0.00000000      -0.10091949      -0.05442037       0.08761434
Ni       7.78900057       4.41926470       6.42833821        1       1.00000000       0.08318829       0.07250631      -0.32680969
Ni      10.34238247       4.41576268       6.53947833        1       1.00000000       0.07243976       0.16401343      -0.00180915
Pt       3.77491510       6.57227610       6.52293909        1       0.00000000      -0.11769677      -0.03495677       0.16852573
Pt       6.50259093       6.56742185       6.43740920        1       0.00000000       0.00073403      -0.00908445      -0.28643389
Ni       9.04382675       6.55698709       6.52068478        1       1.00000000      -0.01776487      -0.10779265      -0.10759860
Ni      11.57456184       6.54093947       6.52693219        1       1.00000000      -0.04555983      -0.11744074      -0.15727327
