64
Lattice="10.187546234564431 0.006762422475991767 0.0024769148731018675 5.099629546937546 8.768525273877605 -0.04567112970431078 0.002022392525136716 -0.04422678289328622 8.696968595822257" Properties=species:S:1:pos:R:3:tags:I:1:initial_magmoms:R:1:forces:R:3 unique_id=aa851954c23b4d568f9ad9f8a3c4d5e1 stress="-0.006169427667009425 9.496164328777084e-06 4.839021756471467e-06 9.496164328777084e-06 -0.006107066006429608 -6.7852261193856095e-06 4.839021756471467e-06 -6.7852261193856095e-06 -0.005255515908880876" energy=-392.06633869727153 pbc="T T T"
Ni       0.02603687      -0.02328109       0.17748352        4       1.00000000       0.02597551       0.00266918       0.11517677
Ni       2.50575003       0.00234228       0.15949502        4       1.00000000      -0.02804172       0.06560130      -0.02937079
Pt       5.11923079      -0.06569833       0.20984146        4       0.00000000      -0.04379475      -0.07202681      -0.07711057
Ni       7.65056597      -0.04578920       0.17006689        4       1.00000000       0.00959681      -0.08798467       0.03574398
Ni       1.26950405       2.21345894       0.11819671        4       1.00000000      -0.02136572       0.08756614       0.10545992
Pt       3.78765744       2.25778860       0.19039060        4       0.00000000      -0.02637357       0.03760069      -0.09406346
Ni       6.37210279       2.23650284       0.11926590        4       1.00000000      -0.01634118       0.04671163       0.11769626
Pt       8.91711121       2.26022080       0.14318336        4       0.00000000      -0.00954720       0.07346989      -0.16869797
Ni       2.51837102       4.42044816       0.09068646        4       1.00000000      -0.04771079      -0.00391478       0.05477480
Ni       5.11870127       4.42211139       0.08954860        4       1.00000000      -0.00308935       0.04286177       0.03562645
Ni       7.61485333       4.41938225       0.09689005        4       1.00000000      -0.00596995       0.03625714       0.08164767
Ni      10.22747823       4.42251438       0.09881803        4       1.00000000       0.06560800       0.00414837       0.02433818
Ni       3.79884946       6.53557547       0.04625218        4       1.00000000      -0.05582338      -0.08359748      -0.02024064
Ni       6.36591883       6.54084305       0.03201079        4       1.00000000      -0.00376470      -0.02913888      -0.06457974
Ni       8.94069708       6.50135973       0.15773219        4       1.00000000       0.13999773      -0.14835691       0.14066004
Ni      11.49120180       6.52243842       0.09448029        4       1.00000000       0.01570084      -0.06079694       0.06821985
Ni       1.30920160       0.77641068       2.16093584        3       1.00000000      -0.01922208       0.05344427       0.01895693
Ni       3.78944973       0.74425248       2.20570558        3       1.00000000      -0.06599984       0.03957507      -0.00344319
Ni       6.36862201       0.72743242       2.19435308        3       1.00000000      -0.01287136       0.02115469       0.01225080
Pt       8.85471102       0.72228587       2.21284721        3       0.00000000       0.01982985      -0.03308513       0.10177559
Ni       2.51048315       2.94775971       2.23531225        3       1.00000000      -0.04871930       0.04975458       0.07508528
Ni       5.10694100       2.95724381       2.16444883        3       1.00000000       0.00893224       0.05477401       0.01105812
Ni       7.61660322       2.96193039       2.19208027        3       1.00000000       0.01094362       0.02139579       0.07195316
Ni      10.23656962       2.98495413       2.18820872        3       1.00000000       0.04250027       0.03293885       0.03031169
Ni       3.79468381       5.04510540       2.12951399        3       1.00000000      -0.04618899      -0.09174866      -0.05808236
Ni       6.37023975       5.05806176       2.11128590        3       1.00000000       0.03080383      -0.00318938       0.01495453
Ni       8.96394275       5.06218649       2.14378461        3       1.00000000       0.03579761      -0.05777604       0.04222268
Ni      11.45465064       5.09884017       2.14205425        3       1.00000000      -0.00870165      -0.04009401       0.02942299
Pt       5.06663769       7.21105726       2.15311978        3       0.00000000      -0.04731804      -0.08395916       0.02060683
Pt       7.69702321       7.31222513       2.11620801        3       0.00000000      -0.03758380      -0.01200636       0.00673441
Ni      10.24328749       7.24295536       2.21205482        3       1.00000000       0.01575559      -0.09708344       0.09314751
Ni      12.68380817       7.25331654       2.13354007        3       1.00000000      -0.00606796      -0.07546747      -0.03512296
Pt       0.07240423       1.47420879       4.26817694        2       0.00000000       0.04537243      -0.02187555      -0.00625927
Ni       2.54987660       1.46298745       4.24987508        2       1.00000000       0.02658786       0.01458441      -0.09618976
Pt       5.07862111       1.41143812       4.19874894        2       0.00000000       0.00289975       0.01831237      -0.09001002
Ni       7.62988326       1.42528948       4.30221288        2       1.00000000      -0.03090453      -0.02629143      -0.02493349
Ni       1.28620106       3.65082216       4.29522895        2       1.00000000       0.03830681       0.03719482      -0.05972968
Ni       3.79155928       3.66223511       4.23963987        2       1.00000000       0.00605023       0.02148124      -0.16479414
Pt       6.35854875       3.63773111       4.29796896        2       0.00000000      -0.00730956       0.00656726      -0.02469839
Ni       8.96678108       3.68169303       4.23992229        2       1.00000000       0.06896192       0.03741426      -0.16132678
Pt       2.54486799       5.81176226       4.26741991        2       0.00000000       0.01409471       0.02434379      -0.08340326
Ni       5.07501047       5.83371895       4.32068777        2       1.00000000       0.00219827      -0.01985084      -0.03837132
Pt       7.66087437       5.83787377       4.26927510        2       0.00000000       0.04147901       0.01251811       0.00364248
Ni      10.21565894       5.81031829       4.25390391        2       1.00000000       0.01357276      -0.01062775      -0.06135089
Ni       3.82044806       7.99081400       4.26712098        2       1.00000000       0.00998057       0.01114163       0.00205408
Ni       6.36823151       8.00915403       4.25369248        2       1.00000000      -0.00414019       0.02052409      -0.06929614
Ni       8.93544834       8.00629333       4.23394107        2       1.00000000       0.02860476      -0.04528552      -0.05156139
Ni      11.47238505       7.98420550       4.19923143        2       1.00000000       0.02035068       0.00536343      -0.10107897
Pt       0.00278770      -0.10452896       6.47772196        1       0.00000000      -0.06116304      -0.01704756       0.13870057
Pt       2.52788029      -0.02794031       6.42350663        1       0.00000000       0.07362852       0.01942334      -0.03480310
Pt       5.11771383      -0.04176727       6.37408924        1       0.00000000      -0.06271859      -0.03799907       0.07594895
Pt       7.64152674      -0.08314393       6.43546904        1       0.00000000       0.04935999      -0.01795269       0.05653270
Ni       1.27539486       2.22901589       6.42459664        1       1.00000000       0.02074230       0.05249689       0.00444738
Pt       3.80063631       2.30615612       6.35904466        1       0.00000000      -0.03807798       0.08908415       0.03978807
Ni       6.36197386       2.21235815       6.43658727        1       1.00000000      -0.04330742       0.01993878       0.02486391
Pt       8.89701342       2.28542906       6.34578719        1       0.00000000      -0.06093429       0.08161640       0.06859830
Ni       2.52056663       4.40533050       6.41798333        1       1.00000000      -0.00667251       0.07496512      -0.01745828
Ni       5.10194456       4.42256478       6.42475451        1       1.00000000      -0.05253444       0.08587288      -0.01130598
Ni       7.58184137       4.37016599       6.44369540        1       1.00000000      -0.14496188       0.00905504       0.04604258
Ni      10.27028605       4.35882149       6.39845815        1       1.00000000       0.13964712      -0.01666019      -0.10828011
Ni       3.83382106       6.46748281       6.40418066        1       1.00000000      -0.01152442      -0.04597959      -0.06546723
Ni       6.33743079       6.48584046       6.40356114        1       1.00000000      -0.00118889      -0.00196908      -0.10745019
Pt       8.95306620       6.43094476       6.47640020        1       0.00000000       0.04540935      -0.06070429       0.18677707
Ni      11.49770556       6.48605278       6.41522279        1       1.00000000       0.01124417      -0.00935169      -0.02674049
