64
Lattice="10.293171969376 0.014094596166142137 -7.932789667497001e-05 5.158792263023959 8.946405450793003 -0.007501195666166559 -6.47709564072567e-05 -0.007034799567620746 8.842191549977649" Properties=species:S:1:pos:R:3:tags:I:1:initial_magmoms:R:1:forces:R:3 unique_id=8e64ad1803dc480f91237f660ec2f56a stress="-0.000388976646529815 -1.7187457756289616e-06 1.534395793903086e-05 -1.7187457756289616e-06 -0.0003824390330388755 1.3614533810073488e-05 1.534395793903086e-05 1.3614533810073488e-05 -0.0003265242008167607" energy=-399.00131943936236 pbc="T T T"
Ni       0.04678973       0.03701552       0.14951007        4       1.00000000       0.19370637       0.12592281       0.21541753
Ni       2.59393880       0.03486648       0.19887627        4       1.00000000       0.08094408       0.05296776       0.28653472
Ni       5.09785259      -0.00036561       0.07611817        4       1.00000000      -0.12834201       0.03203297       0.07828166
Pt       7.72780930      -0.03256541      -0.01231637        4       0.00000000      -0.05223927      -0.03770989      -0.19311358
Ni       1.31235481       2.23611918       0.08278795        4       1.00000000       0.11237130       0.00742059       0.07155040
Ni       3.82485970       2.23963193       0.19631287        4       1.00000000      -0.05734328      -0.02755497       0.23575265
Pt       6.40897729       2.32337578       0.15580204        4       0.00000000      -0.05141290       0.08586239       0.39121162
Ni       9.04262498       2.28337222       0.04880826        4       1.00000000       0.04964622       0.05242810      -0.01828941
Ni       2.59248642       4.44779518       0.07277900        4       1.00000000       0.01915585      -0.13924750       0.05903293
Ni       5.10337708       4.47732265       0.16802320        4       1.00000000      -0.18225962       0.00683009       0.24779578
Ni       7.78639705       4.47363297       0.06841581        4       1.00000000       0.25793404      -0.01298887       0.05120793
Ni      10.29340798       4.47800622       0.04560632        4       1.00000000       0.01435888       0.00600080       0.00199199
Ni       3.86223032       6.65397786       0.05392819        4       1.00000000      -0.03036990      -0.18288059       0.06866020
Pt       6.49080296       6.71207220      -0.00667267        4       0.00000000       0.08326408       0.00270322      -0.28872337
Ni       9.02922049       6.70328052       0.13541405        4       1.00000000       0.04236869      -0.05539948       0.15022226
Ni      11.57021498       6.68608755       0.10937830        4       1.00000000      -0.10417359      -0.07729398       0.08340283
Ni       1.34921325       0.76102890       2.17649050        3       1.00000000       0.01281221       0.04104352      -0.03304407
Ni       3.81052397       0.76591328       2.19279110        3       1.00000000      -0.04851761      -0.00016831       0.01487631
Pt       6.33162409       0.78760681       2.28599738        3       0.00000000      -0.10611445       0.11767749      -0.04978685
Pt       9.04084576       0.79351723       2.19282393        3       0.00000000      -0.02773197      -0.03523850      -0.12136994
Ni       2.60964419       2.95839065       2.16645471        3       1.00000000      -0.04933455       0.01433880      -0.05774383
Ni       5.08271774       3.00068368       2.21538011        3       1.00000000      -0.08116355      -0.00771439       0.06416820
Ni       7.74733914       3.02057055       2.21407642        3       1.00000000       0.06956781      -0.00608474       0.02510399
Pt      10.30197380       3.00594607       2.17419521        3       0.00000000       0.00497218      -0.11162657       0.02165402
Ni       3.87448057       5.17243954       2.18502755        3       1.00000000      -0.00465216      -0.00008805      -0.05642433
Pt       6.48799561       5.18058492       2.19955370        3       0.00000000       0.09492185      -0.00632811      -0.10765096
Ni       9.00038798       5.21794533       2.22030514        3       1.00000000       0.04518891      -0.04464719       0.06318362
Pt      11.60264938       5.18641196       2.17794382        3       0.00000000       0.03912345      -0.00801288       0.00633274
Pt       5.19550048       7.43247602       2.18563668        3       0.00000000       0.03064648      -0.09852048      -0.19722486
Ni       7.74012052       7.47860659       2.20894212        3       1.00000000      -0.04313383      -0.00834692      -0.01563865
Pt      10.19059042       7.45629833       2.23326527        3       0.00000000      -0.08925228      -0.04837932       0.03245046
Pt      12.86567068       7.41770301       2.22301276        3       0.00000000      -0.07414661       0.01677717      -0.08209667
Ni       0.00740166       1.50581408       4.42115478        2       1.00000000       0.11076935      -0.05288808      -0.04986785
Pt       2.59067019       1.46761948       4.30040047        2       0.00000000       0.03818881      -0.01063705       0.05062306
Ni       5.13475970       1.45136084       4.40560917        2       1.00000000      -0.03637835       0.02505901       0.11597259
Pt       7.77904837       1.50966901       4.40266054        2       0.00000000       0.03447955       0.11159664       0.11417034
Pt       1.22071414       3.76146291       4.48142709        2       0.00000000      -0.01879986       0.01176641       0.03628019
Pt       3.86408893       3.78107860       4.31603908        2       0.00000000       0.02514515       0.02446583       0.03146305
Pt       6.49499496       3.77930261       4.37342936        2       0.00000000      -0.04830586      -0.00097261       0.06909391
Ni       9.01769105       3.77538021       4.42193282        2       1.00000000       0.02908619       0.12889467      -0.06185045
Ni       2.56410025       5.95575236       4.40875819        2       1.00000000      -0.12219034      -0.05513287      -0.07702054
Ni       5.15286744       5.96563786       4.39975145        2       1.00000000       0.03414217      -0.08471931      -0.13411461
Ni       7.78180366       5.95421314       4.38090558        2       1.00000000       0.20349249      -0.01220044      -0.19427893
Ni      10.27315056       5.98487935       4.38387627        2       1.00000000      -0.04199858       0.01615274      -0.10064658
Pt       3.83489493       8.11404931       4.44433797        2       0.00000000       0.07017258      -0.04467332       0.03175332
Pt       6.49974398       8.13320485       4.36108888        2       0.00000000       0.09752727       0.05784104       0.00882481
Ni       9.06081837       8.18107518       4.38902057        2       1.00000000      -0.00074760      -0.01057373       0.06173939
Ni      11.53157747       8.19368292       4.41704582        2       1.00000000      -0.11228019      -0.03316859      -0.03268140
Pt      -0.05241198       0.04145469       6.61602151        1       0.00000000      -0.10997243       0.09200841       0.10914217
Pt       2.58476509      -0.01650816       6.63081171        1       0.00000000       0.03479136       0.03372576       0.21915426
Ni       5.16796263      -0.01669498       6.53359022        1       1.00000000      -0.01464084      -0.04299962      -0.16451294
Ni       7.69458232      -0.00779878       6.46639211        1       1.00000000      -0.12370015      -0.01146621      -0.33477272
Ni       1.24394417       2.26959738       6.57078976        1       1.00000000      -0.05475613       0.02561252      -0.03375552
Pt       3.82563068       2.26774049       6.61671586        1       0.00000000      -0.13717355       0.08809515       0.17865371
Pt       6.47478612       2.21491866       6.53726932        1       0.00000000       0.08603434      -0.04102130      -0.22353667
Ni       9.04366525       2.29439979       6.55353033        1       1.00000000       0.06811015       0.19680411      -0.16338872
Ni       2.54852516       4.48437383       6.57080777        1       1.00000000      -0.03879915       0.04497740      -0.04114585
Pt       5.14574896       4.58109477       6.61418197        1       0.00000000       0.00520058       0.10927975       0.17245871
Ni       7.76789455       4.46747842       6.55002591        1       1.00000000       0.06705531      -0.08637378      -0.10353231
Ni      10.27793630       4.44220555       6.56526848        1       1.00000000      -0.07215500      -0.04793672      -0.02199109
Ni       3.85889931       6.70294481       6.55333707        1       1.00000000      -0.00704721       0.04044912      -0.07231780
Ni       6.43454600       6.69770815       6.45012656        1       1.00000000       0.01987676       0.00940642      -0.44860874
Pt       9.00761185       6.63451833       6.53361108        1       0.00000000      -0.00220478      -0.08730148       0.07586756
Pt      11.63372198       6.70742395       6.53607429        1       0.00000000      -0.00371684      -0.04784480       0.03510033
