64
Lattice="10.118465526223433 0.010422950355878651 0.001580451329602556 5.068259302902343 8.766922365857065 -0.01968925524854083 0.0012904331069431437 -0.019308239772006318 8.678066564539384" Properties=species:S:1:pos:R:3:tags:I:1:initial_magmoms:R:1:forces:R:3 unique_id=cd52b98a18c348e6badb55114dd8014b stress="-0.0011094682043944828 1.8936819999101562e-07 6.341332904284581e-06 1.8936819999101562e-07 -0.0010995415421523116 3.4368404721341956e-06 6.341332904284581e-06 3.4368404721341956e-06 -0.0009404593456881702" energy=-390.09098180753045 pbc="T T T"
Ni       0.03596263      -0.03756229       0.18481184        4       1.00000000       0.09442837      -0.00112201       0.34137851
Ni       2.51379868      -0.02911384       0.19117914        4       1.00000000      -0.00531089      -0.06165947       0.21616032
Ni       5.07323594      -0.00764403       0.08220794        4       1.00000000       0.00190381      -0.02656621       0.06223224
Ni       7.56377243       0.00121057       0.15537045        4       1.00000000       0.02212379       0.08485635       0.25070278
Ni       1.27140755       2.19707224       0.10798460        4       1.00000000       0.00662017       0.01786592       0.21253952
Pt       3.79524859       2.19440260       0.17715767        4       0.00000000      -0.01915056      -0.03985530       0.31254135
Ni       6.32087453       2.20549721       0.10290097        4       1.00000000      -0.00315595       0.08553080       0.19984223
Pt       8.85639657       2.25599463       0.10270259        4       0.00000000       0.03360945       0.00146385       0.24418534
Ni       2.53279420       4.40367340       0.05316869        4       1.00000000       0.02665657       0.02803088       0.01551306
Ni       5.06707910       4.40702751       0.06318706        4       1.00000000      -0.00125213       0.00792299       0.04909091
Ni       7.58144729       4.42016954       0.06750461        4       1.00000000      -0.02850976       0.10282081       0.06952486
Ni      10.13159214       4.41945164       0.05999367        4       1.00000000       0.00950958       0.11606328       0.01599162
Ni       3.82903365       6.55035607       0.05007468        4       1.00000000       0.13235029      -0.07103856       0.01664722
Ni       6.32545880       6.59169066       0.06464235        4       1.00000000      -0.00107772       0.07828742      -0.02862948
Ni       8.83210755       6.56332124       0.13571195        4       1.00000000      -0.16067578      -0.04431852       0.20786190
Ni      11.38448398       6.57185421       0.02694896        4       1.00000000      -0.05312734      -0.03459207      -0.08359617
Ni       1.31322865       0.73299239       2.19522030        3       1.00000000       0.03313869       0.05010953       0.11561952
Ni       3.74510451       0.73176401       2.20257015        3       1.00000000      -0.12385204      -0.01162526       0.02152404
Ni       6.30837500       0.78010705       2.14677452        3       1.00000000       0.01221391       0.04085169      -0.07838651
Pt       8.89997323       0.77825485       2.22815457        3       0.00000000      -0.00868728       0.12514994      -0.12095749
Ni       2.52729218       2.88384191       2.23595261        3       1.00000000       0.04283640      -0.08834731       0.14726975
Ni       5.06491748       2.92800915       2.19125818        3       1.00000000      -0.05333067       0.04719740       0.00146567
Ni       7.57828676       2.94258685       2.19938854        3       1.00000000       0.05104725       0.00195252       0.01536344
Ni      10.14369495       2.92277286       2.22430009        3       1.00000000       0.01699347      -0.07365876       0.07087950
Ni       3.81736743       5.06185970       2.16982058        3       1.00000000       0.00098625      -0.13541662       0.02412989
Pt       6.33242325       5.14459155       2.13686530        3       0.00000000      -0.00624983       0.06711439       0.00198356
Ni       8.84321307       5.08277375       2.17536002        3       1.00000000      -0.01755309      -0.06906110       0.02330464
Pt      11.38154792       5.02707060       2.18997118        3       0.00000000       0.00132267      -0.13783728      -0.00334402
Ni       5.11900915       7.30435503       2.14910868        3       1.00000000       0.00935335       0.03084712       0.06785880
Ni       7.55772527       7.33750798       2.17557507        3       1.00000000      -0.04402944       0.04857936       0.09560206
Pt      10.04894273       7.33717183       2.17856268        3       0.00000000      -0.08973836      -0.01370750      -0.00888826
Pt      12.67490871       7.26695019       2.12375455        3       0.00000000       0.10775638      -0.03396659      -0.01755886
Ni       0.06658883       1.49033632       4.28761899        2       1.00000000       0.13448473       0.00559976       0.01945588
Ni       2.47988582       1.46639552       4.25632338        2       1.00000000       0.02357042      -0.00234007      -0.02656977
Pt       5.05217966       1.39712597       4.23857280        2       0.00000000      -0.11358749      -0.02841568       0.07003102
Ni       7.59250016       1.46394132       4.28521223        2       1.00000000      -0.01164644      -0.04892522      -0.05577730
Ni       1.27182655       3.63092196       4.33715067        2       1.00000000       0.04244582      -0.05207203      -0.00373346
Ni       3.75079152       3.69911870       4.26919298        2       1.00000000      -0.02930083       0.03903909      -0.15999397
Pt       6.35147665       3.68023412       4.34410513        2       0.00000000       0.03469195      -0.01887616       0.04311455
Ni       8.90699635       3.70274799       4.25048772        2       1.00000000       0.07908822       0.10287584      -0.19802833
Ni       2.52254600       5.78428458       4.34795497        2       1.00000000      -0.02764796      -0.09372966      -0.07759794
Ni       5.06253899       5.82807181       4.32950000        2       1.00000000       0.01741975      -0.05503359      -0.09056302
Ni       7.61000685       5.86980372       4.29191727        2       1.00000000       0.07422326       0.06804390      -0.12102737
Ni      10.13728700       5.81152729       4.30928471        2       1.00000000       0.00435599      -0.07517797      -0.05881348
Pt       3.82730752       7.96621183       4.29840927        2       0.00000000       0.03913354      -0.03959615       0.20669692
Ni       6.37606928       8.01033416       4.24069062        2       1.00000000       0.03552702       0.00481801      -0.07284969
Ni       8.83618695       8.00170664       4.27806670        2       1.00000000      -0.12042579      -0.07798075      -0.01466252
Ni      11.35963196       7.97641016       4.30606194        2       1.00000000      -0.01532098      -0.17046375      -0.01744147
Pt       0.01367767      -0.05055511       6.48135096        1       0.00000000       0.03614287      -0.06638213       0.19691481
Pt       2.56118826      -0.01123303       6.42118252        1       0.00000000      -0.05736120       0.04190079       0.08125870
Ni       5.05901800      -0.02393961       6.42421450        1       1.00000000      -0.05415674      -0.01636888      -0.19584237
Pt       7.49270785      -0.04124974       6.47075934        1       0.00000000      -0.14575157      -0.04514938       0.07909365
Ni       1.27099391       2.23783539       6.39396046        1       1.00000000       0.02267118       0.05644385      -0.14409372
Pt       3.79667138       2.28397010       6.36874453        1       0.00000000       0.00877002       0.21705684      -0.31713572
Ni       6.31826979       2.21309384       6.44016705        1       1.00000000      -0.05328335       0.06839124      -0.04024702
Pt       8.85887459       2.28078070       6.30387821        1       0.00000000      -0.01710707       0.14592475      -0.52529079
Ni       2.50867461       4.41981973       6.38915509        1       1.00000000      -0.04389023       0.08831251      -0.17964425
Ni       5.06589656       4.43056000       6.42374169        1       1.00000000      -0.04287200       0.15527060      -0.08665306
Ni       7.56368914       4.40070094       6.42939850        1       1.00000000      -0.05812792       0.05299046      -0.06943576
Ni      10.18489469       4.38585140       6.39057497        1       1.00000000       0.17478404      -0.03011830      -0.21503823
Ni       3.79499508       6.47850177       6.41063051        1       1.00000000      -0.05012160      -0.12597862      -0.10744272
Ni       6.31158147       6.50103504       6.39573528        1       1.00000000       0.01041604      -0.00827674      -0.22839778
Pt       8.90160557       6.49127793       6.40924751        1       0.00000000       0.06470667      -0.09078070       0.08756942
Ni      11.40814094       6.51494680       6.38875452        1       1.00000000       0.05102010      -0.09287357      -0.23570710
