64
Lattice="10.245016484383111 0.02135388730364501 -0.045426276759572906 5.141001251066061 8.81517646217251 -0.09935618566017068 -0.03709039965846796 -0.07225975795034802 8.752048624269158" Properties=species:S:1:pos:R:3:tags:I:1:initial_magmoms:R:1:forces:R:3 unique_id=0fca86ef112548fbb9b3071302c4f28a stress="-8.125994651116131e-05 -7.185156052833924e-07 -1.9565567040844014e-06 -7.185156052833924e-07 -5.332234456539853e-05 3.821924723161542e-05 -1.9565567040844014e-06 3.821924723161542e-05 -2.5854913663608814e-05" energy=-394.1210148223724 pbc="T T T"
Ni       0.03260134      -0.04894200       0.18210212        4       1.00000000       0.09661807      -0.10217181       0.29998232
Ni       2.50115398      -0.03035233       0.18818679        4       1.00000000      -0.12891607      -0.04815517       0.31717545
Pt       5.11233630      -0.05224597       0.11406747        4       0.00000000      -0.08247101      -0.20726248       0.34640263
Ni       7.70292231      -0.04445574       0.13659041        4       1.00000000       0.00935030      -0.05802577       0.28416874
Ni       1.27516463       2.20342451       0.08531800        4       1.00000000       0.00423988      -0.01820692       0.26127770
Pt       3.74110671       2.21872523       0.14919175        4       0.00000000      -0.13614608       0.02632901       0.21118020
Pt       6.43600727       2.22644382       0.05548014        4       0.00000000       0.03718767       0.05326186      -0.02704230
Pt       9.04660251       2.25384520       0.06736857        4       0.00000000       0.04784687       0.00874424       0.18725561
Ni       2.53236386       4.43341180       0.01178622        4       1.00000000      -0.03494845       0.03813332       0.00334395
Pt       5.11773157       4.52141069       0.02915016        4       0.00000000      -0.08662508       0.16872094      -0.12791479
Ni       7.69931747       4.46158127      -0.00558682        4       1.00000000      -0.05590149       0.09334389       0.09377025
Ni      10.28103322       4.44339174      -0.02485272        4       1.00000000       0.08531059       0.10291749       0.04760125
Ni       3.83065968       6.64359437       0.02560839        4       1.00000000      -0.07252610       0.13042609       0.17004338
Ni       6.42671219       6.65132621       0.02318977        4       1.00000000       0.01002539       0.08018004       0.13925348
Ni       8.94087699       6.58362326       0.05735306        4       1.00000000      -0.11250571      -0.04062681       0.25422819
Ni      11.57282001       6.58345068      -0.03619270        4       1.00000000       0.05704558      -0.09440882       0.06610966
Ni       1.29811213       0.72110762       2.20339490        3       1.00000000      -0.00336057       0.00264925       0.17327128
Ni       3.76799734       0.73725033       2.19568850        3       1.00000000      -0.15490393      -0.08151908      -0.05737379
Ni       6.42284891       0.74716974       2.19456911        3       1.00000000       0.08902783      -0.05870152      -0.03281500
Pt       8.98148720       0.72245354       2.18747596        3       0.00000000       0.11590014       0.13162858      -0.05252337
Ni       2.54210479       2.89320217       2.23893458        3       1.00000000       0.04899291      -0.14124634       0.23024713
Ni       5.10510361       2.96325318       2.17846881        3       1.00000000      -0.10903935       0.20665779      -0.09420875
Ni       7.66134030       2.93322738       2.18887918        3       1.00000000       0.01432737      -0.09107323       0.03885832
Ni      10.29467273       2.91536502       2.18872515        3       1.00000000       0.11124935      -0.10706964       0.19437117
Ni       3.86816456       5.13663981       2.17887404        3       1.00000000       0.07909585       0.04325252       0.17301158
Ni       6.37844143       5.16534770       2.14447179        3       1.00000000      -0.05991131       0.11914011       0.02733529
Pt       8.90203187       5.09057867       2.13531757        3       0.00000000      -0.02290754      -0.09377953       0.06073975
Pt      11.60522029       5.08234582       2.12603883        3       0.00000000       0.12484389      -0.18573588       0.08007836
Ni       5.16084512       7.28838656       2.09487803        3       1.00000000       0.02726039      -0.13021000      -0.00732434
Ni       7.61101852       7.34783256       2.07575308        3       1.00000000      -0.14834544      -0.06964276       0.01943514
Pt      10.29101352       7.32747242       2.13948269        3       0.00000000       0.08877137       0.08362655      -0.13440682
Ni      12.84213758       7.32153913       2.05273846        3       1.00000000       0.10163567      -0.14375590      -0.02408772
Ni       0.03917756       1.46519650       4.31326450        2       1.00000000       0.11318579       0.00785057      -0.03413492
Ni       2.47953815       1.47769562       4.27386419        2       1.00000000      -0.06631665       0.06862290      -0.07574809
Pt       5.11754611       1.46717568       4.20225697        2       0.00000000      -0.15476768       0.01389241       0.00166488
Ni       7.67804033       1.45693264       4.27593326        2       1.00000000       0.04495576      -0.01318260      -0.07005845
Ni       1.27439126       3.62702634       4.33976914        2       1.00000000       0.04049883      -0.03631740       0.00981395
Ni       3.78482016       3.70849858       4.26003071        2       1.00000000      -0.05498657       0.12852204      -0.20197091
Pt       6.42156440       3.71704537       4.27262447        2       0.00000000      -0.00320811      -0.02169065      -0.11675252
Ni       8.99487041       3.67824039       4.25294015        2       1.00000000       0.12508951       0.02141511      -0.10013461
Ni       2.55579440       5.79725018       4.32533455        2       1.00000000       0.00426389      -0.09952819      -0.01666804
Ni       5.11267934       5.83975520       4.27802568        2       1.00000000       0.00941254      -0.03307952      -0.14939591
Ni       7.64281423       5.84794138       4.26344398        2       1.00000000      -0.09914199       0.09069696      -0.08071347
Ni      10.28086169       5.80324689       4.28742828        2       1.00000000       0.10111212      -0.08596440       0.03883572
Pt       3.85025626       7.96473248       4.21130925        2       0.00000000      -0.00501459      -0.11581702       0.12578995
Ni       6.38223378       8.02608992       4.19795286        2       1.00000000      -0.14168387      -0.02911363      -0.15746138
Pt       8.87627235       8.01613823       4.16942134        2       0.00000000      -0.17408760       0.01833191       0.04899767
Ni      11.55254683       8.00939579       4.20508199        2       1.00000000       0.08082014      -0.09617208      -0.00161657
Pt      -0.01495860      -0.08992513       6.52057440        1       0.00000000       0.12819153      -0.05241766       0.13633747
Pt       2.51215614      -0.03539015       6.50632602        1       0.00000000      -0.09429561       0.06669212       0.21137485
Pt       5.11981328      -0.05468804       6.40170491        1       0.00000000       0.09210752       0.03921394      -0.43125405
Pt       7.65980005      -0.07858077       6.47552143        1       0.00000000      -0.07653116      -0.03753273       0.09838881
Ni       1.25398282       2.21924177       6.43119701        1       1.00000000       0.02495818       0.13109268      -0.19463583
Pt       3.78946778       2.29127105       6.37555453        1       0.00000000       0.02925573       0.27278785      -0.26296310
Ni       6.39015986       2.21602311       6.36623990        1       1.00000000      -0.01315090       0.09257346      -0.26744048
Pt       8.96024775       2.26983616       6.30970453        1       0.00000000       0.02222950       0.13162812      -0.33452160
Ni       2.51401398       4.41185115       6.40223073        1       1.00000000      -0.03778591       0.14838964      -0.24659410
Ni       5.11029083       4.42238953       6.34037249        1       1.00000000      -0.03867110       0.16204374      -0.26907862
Ni       7.62843959       4.37654160       6.41023176        1       1.00000000      -0.15646079      -0.00087015      -0.14016789
Ni      10.29468136       4.37453126       6.37309614        1       1.00000000       0.26960812      -0.00912697      -0.23799113
Ni       3.82796633       6.48487284       6.40424530        1       1.00000000       0.01544084      -0.16197817      -0.11944141
Ni       6.36622877       6.50651870       6.38355733        1       1.00000000      -0.02564010      -0.04789575      -0.20182637
Pt       8.95249698       6.43931760       6.40845702        1       0.00000000       0.03274962      -0.12426423       0.11669726
Ni      11.54811692       6.50562377       6.35681704        1       1.00000000       0.06764202      -0.04622232      -0.19877512
