64
Lattice="10.360957105626548 0.0035458583632142753 0.03741541941989319 5.183549356234042 8.889301419139084 -0.0020242117650036045 0.0 0.0 21.607687157126534" Properties=species:S:1:pos:R:3:tags:I:1:initial_magmoms:R:1:forces:R:3 unique_id=135fd72d0c994882aa04739138ecfcfd stress="0.005837347377312321 0.00013117170949094464 0.00034958794989466265 0.00013117170949094464 0.005802506202818235 -4.089856993189085e-06 0.00034958794989466265 -4.089856993189085e-06 -0.0017244128903000106" energy=-376.8849859627056 pbc="T T T"
Ni       0.01443545      -0.00249208       0.12918301        1       1.00000000       0.08499192       0.01839948      -0.09966766
Ni       2.59199899       0.01001138       0.15987419        2       1.00000000      -0.00923520       0.06080858      -0.00531963
Ni       5.18055483      -0.01084446       0.12083890        1       1.00000000      -0.05464148       0.17323193      -0.35616887
Ni       7.76936641      -0.05240021       0.15894130        2       1.00000000      -0.06529326      -0.09158010      -0.13067718
Ni       1.30915891       2.22767905       0.05325149        1       1.00000000       0.03745347       0.00158982       0.45194183
Pt       3.82119333       2.22962560       0.13854949        1       0.00000000      -0.01248038      -0.01128949      -0.23455579
Pt       6.46128418       2.17354662       0.07875353        1       0.00000000       0.05310080      -0.08959163      -0.06023045
Pt       9.15740603       2.22707828       0.09503860        1       0.00000000      -0.01804120       0.08948611      -0.48200511
Ni       2.57699151       4.46679817       0.00000000        0       1.00000000       0.00451649      -0.03139753       0.19316595
Ni       5.16736279       4.45654050       0.11473154        1       1.00000000       0.09501505      -0.05703227      -0.33528381
Pt       7.78356192       4.48253594       0.00527282        0       0.00000000      -0.06202317      -0.03000368      -0.24902836
Ni      10.41661893       4.47129357       0.03245178        0       1.00000000       0.06111526      -0.01253822       0.15113656
Ni       3.85490278       6.68147072       0.03461033        0       1.00000000      -0.03221361       0.10193401       0.34409506
Pt       6.45214384       6.73020382       0.15242956        2       0.00000000      -0.00760333       0.04223516      -0.57775430
Ni       9.09755801       6.69731337       0.03571020        0       1.00000000      -0.09077272       0.04687927       0.13410928
Ni      11.68187924       6.67101135       0.03472403        0       1.00000000       0.12540992       0.03807726       0.25129269
Ni       1.33195571       0.77124434       2.14917453        3       1.00000000       0.06292419       0.18986564       0.03329669
Ni       3.86606094       0.77115662       2.20138952        4       1.00000000      -0.05818068       0.13917764       0.27771388
Ni       6.47546355       0.77149923       2.20927859        4       1.00000000      -0.03558199       0.17469141       0.25217063
Pt       9.08064301       0.74099866       2.22713775        4       0.00000000       0.02140854       0.15899944       0.05358910
Ni       2.57714367       2.91086880       2.22884649        4       1.00000000      -0.04563476      -0.14266539       0.31018049
Ni       5.18878867       2.92994693       2.22231400        4       1.00000000      -0.04844535      -0.13592114       0.27562389
Ni       7.75765362       2.94116882       2.22548976        4       1.00000000       0.00219940      -0.05545132       0.15150184
Ni      10.41339015       2.93195367       2.24009535        4       1.00000000       0.12126971      -0.12327734       0.22512293
Pt       3.91512524       5.15837975       2.12785292        3       0.00000000      -0.02120700      -0.12390514      -0.01536240
Ni       6.48235313       5.16811966       2.19187128        4       1.00000000       0.05029233      -0.11233789       0.13514444
Pt       9.03027926       5.14963278       2.23116618        4       0.00000000      -0.06031960      -0.14461324       0.01296147
Pt      11.68715883       5.12672543       2.16838800        4       0.00000000      -0.01465081      -0.10968748       0.08509436
Ni       5.18655267       7.41634865       2.16384428        4       1.00000000      -0.08112819       0.00665504       0.10475608
Ni       7.77131093       7.43614761       2.17039678        4       1.00000000       0.04285709       0.08268027       0.10386072
Pt      10.37224875       7.45717636       2.09482600        3       0.00000000       0.03464696      -0.03986959      -0.10922084
Ni      12.97334115       7.40302604       2.15810806        4       1.00000000       0.04206779      -0.05284641      -0.00797616
Ni       0.05047245       1.54645119       4.30981022        6       1.00000000       0.13365549       0.14983612      -0.22487827
Ni       2.58434902       1.54249852       4.29593851        6       1.00000000      -0.05275865       0.10353281      -0.30255319
Ni       5.18601381       1.50425266       4.31413000        6       1.00000000      -0.09316688       0.03553218      -0.34718001
Ni       7.79052382       1.49760363       4.34378330        6       1.00000000       0.03297061      -0.08697070      -0.27013942
Ni       1.33515267       3.64479756       4.36034757        7       1.00000000       0.07679428      -0.11855187      -0.09306495
Ni       3.84829293       3.67379539       4.30754550        6       1.00000000      -0.09850348      -0.08708353      -0.30329237
Pt       6.53329137       3.63288469       4.30410655        6       0.00000000      -0.04500174      -0.01970787      -0.12234056
Ni       9.09716677       3.67530777       4.33636396        6       1.00000000       0.07785962      -0.16544529      -0.32659048
Ni       2.59571382       5.86170674       4.38500481        7       1.00000000       0.00628162      -0.18761250      -0.00418071
Pt       5.17492987       5.87169958       4.29924633        6       0.00000000       0.00923876      -0.10642690      -0.05628627
Ni       7.80439998       5.88636041       4.35564448        7       1.00000000      -0.03951238      -0.00671148      -0.17942647
Pt      10.39236681       5.82444694       4.46475785        8       0.00000000       0.07403468      -0.05946426       0.06717002
Pt       3.89356971       8.14203993       4.31015362        6       0.00000000      -0.02961307       0.02138120       0.04144880
Pt       6.50077142       8.20928073       4.21908146        5       0.00000000      -0.02950308       0.22389482      -0.17129666
Pt       9.06908860       8.17797303       4.30216555        6       0.00000000      -0.08958016       0.11473729      -0.05464910
Pt      11.68549967       8.16483221       4.30088622        6       0.00000000       0.02290663       0.02652144      -0.08245444
Pt       0.01730759       0.00595063       6.55921738       11       0.00000000      -0.02429769       0.17141990       0.31423254
Pt       2.60342939       0.00225684       6.58156236       11       0.00000000       0.05433372       0.08354943       0.29113783
Pt       5.20659084      -0.05399863       6.58100224       11       0.00000000      -0.03065990       0.13538329       0.38043936
Pt       7.77615639      -0.04388831       6.60768716       11       0.00000000      -0.01153212       0.17926596       0.35732227
Ni       1.30523329       2.27426377       6.47444738       10       1.00000000      -0.07912445       0.12066408      -0.36180473
Pt       3.85129118       2.25279240       6.40577735        9       0.00000000       0.00105687      -0.01377967       0.31174093
Ni       6.50725672       2.21539153       6.44844335        9       1.00000000      -0.03300029      -0.09349076       0.07931172
Pt       9.09533616       2.30809175       6.41262796        9       0.00000000       0.01953147      -0.07381585       0.45962098
Ni       2.55713202       4.45619118       6.48101679       10       1.00000000      -0.06609233       0.00107656      -0.41630450
Pt       5.17389615       4.42050715       6.55873801       11       0.00000000      -0.05832275      -0.08348384       0.20929215
Ni       7.82695650       4.43805201       6.42280257        9       1.00000000       0.03712690       0.10064205       0.06256424
Ni      10.41336937       4.43965104       6.53994062       10       1.00000000       0.05970127      -0.10454674      -0.20781928
Ni       3.85619333       6.61338126       6.51482651       10       1.00000000      -0.07911673      -0.06505682      -0.19972365
Pt       6.55017745       6.60636369       6.47342516       10       0.00000000       0.08203544      -0.08175814       0.53689130
Ni       9.11623882       6.59384729       6.53558375       10       1.00000000      -0.01843571      -0.09096470      -0.09025850
Ni      11.69148764       6.58788093       6.54690330       10       1.00000000       0.06887790       0.01673059      -0.18043590
