64
Lattice="10.235087373456691 -0.001624038177884454 0.02659250599737344 5.1161372284095785 8.74938126698999 -0.06382822686228487 0.0 0.0 21.54018108284727" Properties=species:S:1:pos:R:3:tags:I:1:initial_magmoms:R:1:forces:R:3 unique_id=43a615f6b24942f5a6e54a4ba697b5ae stress="0.002248638887033347 6.476906446933833e-06 0.0002705848524671545 6.476906446933833e-06 0.001400050245449258 -0.0001869003394539278 0.0002705848524671545 -0.0001869003394539278 -0.005316420047328263" energy=-370.9075302746944 pbc="T T T"
Ni       0.04749402      -0.05717965       0.17732425        2       1.00000000       0.09306790      -0.01405714      -0.26180205
Ni       2.49888571      -0.03381485       0.20569860        2       1.00000000       0.01849286       0.00743302      -0.21454408
Pt       5.10979821      -0.03642709       0.13400376        1       0.00000000      -0.08401698       0.41116660      -1.43869450
Ni       7.70413896      -0.06144235       0.20331403        2       1.00000000      -0.06506186      -0.00154225      -0.48844642
Ni       1.28174609       2.18877562       0.08460970        1       1.00000000      -0.01281010       0.03292848       0.31910672
Pt       3.75506063       2.24910306       0.14985395        1       0.00000000       0.12445747      -0.07064772      -0.52826624
Pt       6.41141816       2.26372042       0.07282570        1       0.00000000      -0.06769077      -0.09450365      -0.19332658
Pt       9.03269703       2.22762079       0.11076082        1       0.00000000      -0.01832585       0.12405743      -0.68663322
Ni       2.56213903       4.41687974       0.00000000        0       1.00000000       0.09413657       0.03450041       0.19101060
Ni       5.11192644       4.45720898       0.06182930        1       1.00000000      -0.07076569       0.04080980       0.26446795
Ni       7.64949223       4.43864176       0.03060019        0       1.00000000      -0.00419397      -0.00138290       0.08865335
Ni      10.27844990       4.40287997       0.02231925        0       1.00000000       0.03900895       0.00598841       0.16964843
Ni       3.85431144       6.54448797       0.03795721        0       1.00000000       0.05008550       0.00850151       0.32266284
Ni       6.38031044       6.55143294       0.05200587        1       1.00000000      -0.00321320       0.04816708       0.32210226
Ni       8.90722529       6.52328287       0.09755427        1       1.00000000      -0.13900539       0.05856134      -0.42511433
Ni      11.56456164       6.51740118       0.01635531        0       1.00000000       0.06694355       0.06850087       0.10052050
Ni       1.31561382       0.71580819       2.19453675        4       1.00000000       0.02784911       0.02863067       0.21401671
Ni       3.79498034       0.75567320       2.21380417        4       1.00000000      -0.04484478       0.01162738       0.24259989
Ni       6.40032781       0.76363007       2.22032101        4       1.00000000      -0.02585839       0.10784123       0.24450455
Pt       8.99134454       0.70706015       2.22102887        4       0.00000000       0.03511408      -0.12620337       0.20748307
Ni       2.56042806       2.86343472       2.24160052        4       1.00000000       0.02733476      -0.08084582       0.19194475
Ni       5.09560366       2.92973562       2.20671541        4       1.00000000      -0.04067338       0.00554019       0.09231857
Ni       7.64845430       2.88739963       2.21535442        4       1.00000000      -0.10170735      -0.08650505       0.16836340
Ni      10.29838446       2.86779462       2.23743000        4       1.00000000       0.10712837      -0.07198434       0.22968126
Ni       3.89536288       5.07863003       2.13911801        3       1.00000000       0.03299364      -0.06974811       0.07142782
Ni       6.34917361       5.10184305       2.12097410        3       1.00000000      -0.01902359      -0.06534830       0.03554247
Pt       8.88001249       5.01983661       2.16343268        4       0.00000000      -0.00283780      -0.11843171       0.02596335
Pt      11.60820765       5.01326164       2.17309363        4       0.00000000       0.03544737      -0.08130133       0.03965243
Ni       5.16159611       7.21630457       2.08874608        3       1.00000000      -0.01625266      -0.05810652       0.07510454
Ni       7.58672069       7.27733717       2.09783761        3       1.00000000      -0.09052686      -0.04906067       0.14270839
Pt      10.23793805       7.24492024       2.11536284        3       0.00000000       0.06106631      -0.20320122       0.12932982
Ni      12.85480503       7.22579048       2.08655921        3       1.00000000       0.12093096      -0.06700235       0.06773712
Ni       0.07876117       1.46154484       4.26942590        6       1.00000000       0.12671682      -0.05036207      -0.10480442
Ni       2.52028937       1.47875137       4.24476710        5       1.00000000      -0.03975597      -0.01678375      -0.12471062
Ni       5.10865941       1.46347485       4.23621861        5       1.00000000      -0.06424408      -0.01849716      -0.34403066
Ni       7.68499918       1.45022666       4.29051217        6       1.00000000      -0.05144123      -0.06254678      -0.21391877
Ni       1.29988619       3.59479861       4.31090850        6       1.00000000       0.03908381      -0.04116311      -0.03796339
Ni       3.81557095       3.65711626       4.22338048        5       1.00000000      -0.00488706       0.04080149      -0.19700172
Pt       6.39158820       3.63119100       4.27508051        6       0.00000000      -0.01386211      -0.00898559      -0.02917566
Ni       8.99761405       3.63479218       4.26921537        6       1.00000000       0.01462947       0.02409062      -0.12981941
Ni       2.59420847       5.71709264       4.29987452        6       1.00000000       0.04054879      -0.06186205      -0.05975327
Ni       5.13421703       5.76682168       4.27076764        6       1.00000000       0.04187508      -0.05286857      -0.13591529
Ni       7.63616709       5.78885120       4.27819632        6       1.00000000      -0.08999544       0.04656185      -0.10127187
Ni      10.26818265       5.71806492       4.31481234        6       1.00000000       0.01198988       0.00131747      -0.08648680
Pt       3.92333003       7.90119384       4.21526509        5       0.00000000       0.06603741       0.02288292      -0.01778852
Ni       6.39622227       7.96218444       4.19504946        5       1.00000000      -0.03914704      -0.00727650      -0.17378433
Pt       8.86134592       7.99481666       4.18709955        5       0.00000000      -0.09249840       0.04595844      -0.10859880
Pt      11.56450892       7.95243624       4.21065441        5       0.00000000       0.03609505      -0.10266539      -0.16197336
Pt       0.03048759      -0.09235034       6.49718249        9       0.00000000      -0.14722154       0.16236887       0.27669331
Pt       2.53739243      -0.03818835       6.50422467        9       0.00000000       0.16609684       0.11326306       0.26914394
Pt       5.13655691      -0.02531710       6.37703769        8       0.00000000      -0.20138505       0.21436597       1.38691732
Pt       7.69411765      -0.09319289       6.54018108        9       0.00000000       0.13896191       0.21378745       0.46437938
Ni       1.29269725       2.20952389       6.38472188        8       1.00000000       0.00312781       0.02257534      -0.18119069
Pt       3.83322732       2.28329799       6.31174911        7       0.00000000      -0.00515325      -0.09198608       0.48165988
Ni       6.41110256       2.18765238       6.34076868        7       1.00000000      -0.01336301      -0.04740730       0.24914280
Pt       8.98477229       2.24465725       6.31022217        7       0.00000000      -0.01545791      -0.19217205       0.76042443
Ni       2.54224631       4.37993616       6.36706158        8       1.00000000       0.05175020      -0.02647584      -0.26322008
Ni       5.13753126       4.38866267       6.40686770        8       1.00000000      -0.06570343      -0.00028547      -0.26975021
Ni       7.62637150       4.32704479       6.40803911        8       1.00000000      -0.04359983      -0.02721010      -0.10754378
Ni      10.32913393       4.32435559       6.38715167        8       1.00000000       0.02413154      -0.00290610      -0.18373691
Ni       3.85209833       6.41599030       6.39114147        8       1.00000000      -0.01441838      -0.01158196      -0.25134792
Ni       6.37967991       6.44376325       6.37928583        8       1.00000000       0.00095116       0.05990403      -0.28016255
Pt       8.96579299       6.37651953       6.42725317        8       0.00000000       0.04339823       0.04738126       0.09136697
Ni      11.55767608       6.43182697       6.39672372        8       1.00000000      -0.03050906       0.07339515      -0.13550239
