64
Lattice="10.351422318769034 -0.008878280930596826 -0.007080555355581053 5.168022342556682 8.826605157789485 -0.0696766354538818 0.0 0.0 21.534591740087865" Properties=species:S:1:pos:R:3:tags:I:1:initial_magmoms:R:1:forces:R:3 unique_id=b1bd7e4e7d6c49d2bf107eb92f93c2be energy=-375.9441443209197 stress="0.006205309699490618 5.9774040192305736e-05 -7.037532375079888e-05 5.9774040192305736e-05 0.004803511573670826 3.6689858841258616e-05 -7.037532375079888e-05 3.6689858841258616e-05 -0.002113223628957727" pbc="T T T"
Ni      -0.01216008      -0.02678387       0.18069895        2       1.00000000       0.01887491       0.03646858      -0.17092312
Ni       2.60511787      -0.02411605       0.19756441        2       1.00000000       0.06873746       0.02063916       0.01116068
Ni       5.17849503      -0.04286730       0.15200080        2       1.00000000       0.00327799       0.01041640      -0.28031149
Ni       7.75079147      -0.07040154       0.17004673        2       1.00000000      -0.10340266      -0.07840315      -0.15660475
Pt       1.28713998       2.21134151       0.16948384        2       0.00000000      -0.03407480      -0.02676934      -0.33325698
Pt       3.86478171       2.15835736       0.16706620        2       0.00000000       0.02358939      -0.00003548      -0.39784392
Pt       6.47905986       2.14799673       0.08651213        1       0.00000000       0.00707078      -0.15025898      -0.12032693
Pt       9.05948504       2.24445639       0.10564590        1       0.00000000       0.04067109       0.07137314      -0.60082741
Ni       2.55953519       4.46020593       0.02432674        0       1.00000000      -0.00867146       0.01351696       0.12199785
Pt       5.16671615       4.44462410       0.00000000        0       0.00000000       0.09381413      -0.03964343      -0.26696977
Ni       7.77377345       4.43548780       0.03795621        0       1.00000000      -0.05627448       0.07071951       0.10271301
Ni      10.34912929       4.45590877       0.02298968        0       1.00000000       0.01692608       0.06353650       0.16613668
Ni       3.83202601       6.65315694       0.03275031        0       1.00000000      -0.01082620       0.08061262       0.26843875
Pt       6.49726137       6.67711461       0.05450044        1       0.00000000       0.02673513       0.03240304       0.00832550
Ni       9.06461785       6.61581470       0.09220714        1       1.00000000      -0.01727680       0.05216727      -0.21063644
Ni      11.65639108       6.61219265       0.01051148        0       1.00000000       0.05844251       0.06052631       0.25552587
Ni       1.32062841       0.70205634       2.25186081        5       1.00000000       0.07458671      -0.01541018       0.29534013
Ni       3.85474342       0.73684601       2.23849373        4       1.00000000      -0.07655822       0.10326360       0.24871226
Ni       6.46264740       0.73709762       2.24055256        4       1.00000000      -0.02328882       0.13652497       0.32830180
Pt       9.05711280       0.71477847       2.22275407        4       0.00000000       0.02046023       0.14473338      -0.05445258
Ni       2.58660417       2.88583187       2.27595228        5       1.00000000       0.00893767      -0.12139749       0.34083194
Ni       5.18103861       2.88913842       2.24342794        4       1.00000000      -0.04555958      -0.08854775       0.24431974
Ni       7.73192647       2.91725885       2.22352398        4       1.00000000      -0.05637412      -0.05846608       0.15921269
Ni      10.35942167       2.90377372       2.26409723        5       1.00000000       0.02169884      -0.08803815       0.37560409
Pt       3.88296065       5.13590816       2.19247243        4       0.00000000       0.01477725      -0.05813941      -0.09570115
Ni       6.47487955       5.13120342       2.17846954        4       1.00000000      -0.05692358      -0.03493585       0.10617049
Pt       8.98847396       5.09511107       2.18512512        4       0.00000000      -0.04803914      -0.04408458       0.03283593
Pt      11.63974571       5.08511716       2.17792048        4       0.00000000      -0.03736302      -0.13833830       0.03926051
Ni       5.20069607       7.35029129       2.15076672        4       1.00000000       0.07711210      -0.01431955       0.16709861
Ni       7.71979285       7.36936818       2.16456816        4       1.00000000      -0.11611507       0.05718464       0.24739117
Pt      10.37654848       7.39031504       2.11174977        3       0.00000000       0.03570332      -0.01016030       0.06822963
Ni      12.92527537       7.34143719       2.12116829        3       1.00000000       0.01488799      -0.01941342       0.04316310
Ni       0.02642206       1.46811557       4.30306482        7       1.00000000       0.12699490       0.02494193      -0.23401066
Ni       2.56683128       1.46626969       4.27714274        7       1.00000000      -0.04003146       0.04784170      -0.26109296
Ni       5.18923523       1.43593152       4.29130427        7       1.00000000      -0.02097669      -0.08512037      -0.32155663
Ni       7.72673282       1.42904462       4.31546491        7       1.00000000      -0.07680801      -0.12885654      -0.23024653
Ni       1.28918111       3.67143810       4.30950690        7       1.00000000       0.00676911      -0.01833450      -0.11612709
Ni       3.83257795       3.64429138       4.29930762        7       1.00000000      -0.13342031      -0.07158239      -0.24013538
Pt       6.50008290       3.59661250       4.31420481        7       0.00000000       0.05350451      -0.02578480      -0.09981701
Ni       9.08453171       3.66575389       4.30338057        7       1.00000000       0.13872146       0.01384985      -0.16105946
Ni       2.53956183       5.82592881       4.36997166        8       1.00000000      -0.07816382      -0.07576647      -0.00917304
Pt       5.19239080       5.85324556       4.35078858        8       0.00000000       0.07606695       0.05127130      -0.06131821
Ni       7.75939402       5.83450193       4.31278650        7       1.00000000       0.01571675      -0.01212010      -0.17849837
Ni      10.37765563       5.81033377       4.34323117        7       1.00000000       0.06925905       0.01031336      -0.05224096
Pt       3.83316208       8.04751348       4.24771198        6       0.00000000      -0.07160986       0.00358537       0.03053303
Ni       6.46732677       8.07911200       4.24594832        6       1.00000000      -0.02603109       0.17050834      -0.29567479
Pt       9.02286111       8.06566205       4.22120035        6       0.00000000      -0.04001342       0.05247009       0.06410349
Ni      11.63323813       8.04144929       4.26912728        7       1.00000000      -0.06606320      -0.04456612      -0.17255791
Pt      -0.00680070      -0.11510886       6.53297994       10       0.00000000       0.05783345       0.10839857       0.22757247
Pt       2.57313366      -0.07751948       6.52533445       10       0.00000000      -0.02064407       0.11330580       0.25993665
Pt       5.20184690      -0.05959445       6.51565226       10       0.00000000       0.05388041       0.06240895       0.20911139
Pt       7.74269716      -0.10575305       6.53459174       10       0.00000000      -0.07480145       0.07034481       0.25762204
Pt       1.28932002       2.26145765       6.38167815        9       0.00000000       0.02479375      -0.02604944       0.38720101
Pt       3.92466481       2.25883163       6.38116549        9       0.00000000       0.00138245       0.08643357       0.31750255
Ni       6.46782536       2.18943344       6.41147191        9       1.00000000      -0.02850757      -0.05150928       0.16177939
Pt       9.00361298       2.24187886       6.35977914        9       0.00000000       0.02948613      -0.07477595       0.46346078
Ni       2.57819815       4.44128676       6.43672705        9       1.00000000       0.07761476      -0.01394219      -0.35684553
Ni       5.18036457       4.39876864       6.38921807        9       1.00000000      -0.00202939      -0.02207208       0.27090709
Ni       7.71795943       4.37004312       6.45713720       10       1.00000000      -0.13219471       0.00634687      -0.18937439
Ni      10.37824010       4.39178468       6.43354823        9       1.00000000       0.07828215      -0.03087133      -0.29932994
Ni       3.84762946       6.50713438       6.46164228       10       1.00000000      -0.02807985      -0.07212331      -0.19802163
Ni       6.46100266       6.51590832       6.39006740        9       1.00000000       0.12686115      -0.00897691       0.20673686
Pt       9.06204577       6.44448766       6.46057713       10       0.00000000      -0.03852736      -0.04585670       0.01444219
Ni      11.66242867       6.49910575       6.42884267        9       1.00000000       0.00517966       0.01856333      -0.33674431
