64
Lattice="10.187581899090008 0.013097353582037122 -0.0029177276837780886 5.1051335904693955 8.761966630023494 -0.08483075729773963 0.0 0.0 21.50931807927228" Properties=species:S:1:pos:R:3:tags:I:1:initial_magmoms:R:1:forces:R:3 unique_id=5e3b455cb7a6451896b1071cf4992108 stress="0.00196221549782055 -5.1203474308060334e-05 1.8560429826700804e-05 -5.1203474308060334e-05 0.0014475001491628548 -0.0004895996623836502 1.8560429826700804e-05 -0.0004895996623836502 -0.005112290145366141" energy=-369.86038236484717 pbc="T T T"
Ni       0.03606585      -0.05682774       0.18124791        2       1.00000000       0.07725383      -0.04398980      -0.42851463
Ni       2.50005413      -0.00165991       0.14072383        1       1.00000000       0.04271638       0.12457858      -0.34753982
Pt       5.12123589      -0.03107702       0.14326340        1       0.00000000      -0.09721015       0.17482911      -1.01001658
Ni       7.65388924      -0.04852313       0.16178383        2       1.00000000      -0.05438009      -0.09643245      -0.45992462
Ni       1.26950892       2.20552392       0.09071617        1       1.00000000      -0.03917171       0.05894214       0.23862248
Pt       3.78402957       2.26362964       0.15728192        2       0.00000000       0.01598703      -0.02655272      -0.71551417
Ni       6.37520646       2.24294168       0.08531870        1       1.00000000      -0.04179688      -0.00087893       0.15576393
Pt       8.91890592       2.25464503       0.10867477        1       0.00000000       0.03743228       0.16264485      -0.89770112
Ni       2.52881874       4.41872091       0.04876289        0       1.00000000       0.04675535       0.01493855       0.39965861
Ni       5.11838842       4.42260660       0.05188931        1       1.00000000      -0.10893040       0.01220671       0.29276844
Ni       7.61098009       4.41698529       0.05638233        1       1.00000000       0.05362461       0.01713146       0.23844986
Ni      10.22851595       4.41609895       0.05372004        1       1.00000000      -0.00816883      -0.01705367       0.35122791
Ni       3.83219266       6.53652929       0.02955368        0       1.00000000       0.00676296      -0.03048087       0.29354772
Ni       6.33567411       6.53632098       0.00000000        0       1.00000000      -0.06690406      -0.01187790       0.15583672
Ni       8.91459477       6.50081927       0.09953119        1       1.00000000       0.05350057      -0.08629717      -0.51450844
Ni      11.51169254       6.51603228       0.00603877        0       1.00000000       0.03281480       0.02202423       0.25549607
Ni       1.29956771       0.76471028       2.14113869        3       1.00000000      -0.01137153       0.15844853       0.08721891
Ni       3.77012677       0.74091195       2.17648934        4       1.00000000      -0.11861849      -0.02689380       0.18279507
Ni       6.38847318       0.75499288       2.16529845        4       1.00000000       0.01842135       0.06973154       0.08959775
Pt       8.89847477       0.69921497       2.15975348        4       0.00000000       0.04415929      -0.13388482       0.17496426
Ni       2.51941461       2.94152748       2.21181407        4       1.00000000       0.00933415       0.04743482       0.12699908
Ni       5.10160848       2.95729818       2.13778471        3       1.00000000       0.00526978       0.04887128       0.06222775
Ni       7.61816919       2.95200545       2.16090203        4       1.00000000      -0.04032337       0.01920367       0.10802690
Ni      10.23946295       2.97658174       2.15589796        4       1.00000000       0.08217262       0.05327609       0.11303786
Ni       3.81694248       5.07943002       2.12144403        3       1.00000000      -0.03398341      -0.09527061       0.05211672
Ni       6.33252829       5.07314619       2.07572930        3       1.00000000      -0.03312088      -0.02039661       0.04952976
Ni       8.93267279       5.02709801       2.10101776        3       1.00000000       0.00777117      -0.10106317       0.05712639
Ni      11.50723152       5.05138678       2.13045383        3       1.00000000       0.06049618      -0.04990006       0.13045797
Ni       5.08181456       7.21011673       2.06884246        3       1.00000000      -0.10739852      -0.12487225       0.06854714
Pt       7.58431866       7.29795327       2.06268783        3       0.00000000      -0.05487365      -0.04078571       0.01513739
Pt      10.25478546       7.21482940       2.17573635        4       0.00000000       0.03406406      -0.16848539       0.17323996
Ni      12.75885486       7.20815783       2.06380564        3       1.00000000       0.05030476      -0.14652703       0.07364647
Pt       0.08716385       1.48520816       4.25117668        6       0.00000000       0.10263877      -0.04434869      -0.01491434
Ni       2.55526522       1.45401490       4.23093759        5       1.00000000       0.04357697       0.00306108      -0.23426726
Pt       5.07429181       1.40250401       4.17176465        5       0.00000000       0.07303294      -0.04128736      -0.17616574
Ni       7.63095831       1.42440729       4.27279076        6       1.00000000      -0.02654401      -0.08670509      -0.19903250
Ni       1.31284256       3.66588002       4.27053247        6       1.00000000       0.08018714      -0.00056752      -0.10842802
Ni       3.76658277       3.68666310       4.21875078        5       1.00000000      -0.02439033       0.05884551      -0.17718281
Pt       6.35485921       3.62149041       4.26715731        6       0.00000000      -0.00703721      -0.04947685      -0.00920135
Ni       8.96504243       3.67196731       4.21535195        5       1.00000000       0.09081660       0.05132162      -0.22328281
Ni       2.52887491       5.74270738       4.24853049        5       1.00000000      -0.02443403      -0.01957220      -0.17620055
Ni       5.06441493       5.76996189       4.24867180        5       1.00000000       0.00690561      -0.05932048      -0.15406428
Pt       7.65662613       5.82187382       4.22687284        5       0.00000000      -0.00471387       0.05707639       0.00483719
Ni      10.25756373       5.76413309       4.25941642        6       1.00000000       0.04133879      -0.00064985      -0.05401400
Pt       3.81556772       7.87798810       4.18782774        5       0.00000000       0.04427249       0.02192262      -0.02612354
Ni       6.37730907       7.99243481       4.19967259        5       1.00000000      -0.00604203       0.00799563      -0.14064660
Ni       8.90793750       7.99259812       4.20106477        5       1.00000000      -0.07629923       0.03176153      -0.22551460
Ni      11.48535802       7.93240314       4.20807950        5       1.00000000       0.04043693      -0.12645324      -0.10293773
Pt       0.00646129      -0.11070018       6.50931808        9       0.00000000      -0.19419597       0.10707368       0.32075903
Pt       2.52746869      -0.04555568       6.42100460        8       0.00000000       0.26012474       0.06882397       0.21447027
Pt       5.10874863      -0.05665094       6.34317469        7       0.00000000      -0.20778087      -0.12508100       1.05479126
Pt       7.62788389      -0.08722327       6.47678563        9       0.00000000       0.10421306       0.17104624       0.36073861
Ni       1.27803096       2.21435086       6.41109887        8       1.00000000       0.03571437       0.06556779      -0.04483559
Pt       3.79748959       2.29335426       6.33860995        7       0.00000000      -0.13723521      -0.01363866       0.58993706
Ni       6.35802825       2.19958176       6.41824317        8       1.00000000       0.01298013       0.01783588       0.02808102
Pt       8.89589493       2.27349190       6.32481116        7       0.00000000      -0.15377237      -0.10879359       0.98520788
Ni       2.52193323       4.39557625       6.36090779        8       1.00000000       0.06943781      -0.03856817      -0.31761412
Ni       5.09890234       4.40085445       6.39790485        8       1.00000000      -0.09581663       0.02864135      -0.20347112
Ni       7.57976562       4.35154195       6.41445259        8       1.00000000      -0.04482578      -0.02405943      -0.04605842
Ni      10.27622119       4.34069969       6.36503069        8       1.00000000       0.05443006      -0.02206367      -0.25351111
Ni       3.81931457       6.42327842       6.37286926        8       1.00000000       0.00196052      -0.00678248      -0.22915474
Ni       6.33827882       6.46073890       6.37383481        8       1.00000000      -0.04790930       0.06461024      -0.11168592
Pt       8.95698113       6.40589702       6.43679270        8       0.00000000       0.12951334       0.16490294       0.27208111
Ni      11.51226975       6.45531336       6.34240802        7       1.00000000      -0.00317264       0.08426322      -0.17491804
