64
Lattice="10.178300174439556 0.004177786456397952 0.02485724046254192 5.092768156422608 8.760554323242442 -0.024152245798244768 0.0 0.0 21.47068844463933" Properties=species:S:1:pos:R:3:tags:I:1:initial_magmoms:R:1:forces:R:3 unique_id=15b1be5e733045b1aac42a984c129ceb energy=-369.72879384221693 stress="0.0017413652086397426 -5.6698628607493916e-05 0.0002532793316163344 -5.6698628607493916e-05 0.0012381124460060424 3.212920160278399e-06 0.0002532793316163344 3.212920160278399e-06 -0.005175353908662526" pbc="T T T"
Ni       0.03896593      -0.04667194       0.13840049        1       1.00000000       0.06955176      -0.02205803      -0.39183976
Ni       2.50132494       0.01113376       0.11909250        1       1.00000000       0.06197698       0.18326112      -0.49447451
Pt       5.12598867      -0.01203208       0.11767549        1       0.00000000      -0.08260305       0.23645529      -1.03577808
Ni       7.65239776      -0.04659120       0.14195149        1       1.00000000      -0.05056554      -0.07248362      -0.41582255
Ni       1.26950925       2.21096814       0.05919766        1       1.00000000      -0.03441613       0.07393672       0.24001985
Pt       3.78479864       2.27166584       0.12059939        1       0.00000000       0.03477290      -0.04349366      -0.53758753
Ni       6.37134211       2.24571930       0.07369526        1       1.00000000      -0.03003196       0.01890038       0.20630661
Pt       8.91176106       2.25642156       0.09796191        1       0.00000000       0.03563219       0.17256226      -0.89027180
Ni       2.52739514       4.42401242       0.03499041        0       1.00000000       0.05521988       0.02098668       0.38892437
Ni       5.11274221       4.42718796       0.04476727        0       1.00000000      -0.09772692       0.01952931       0.29347644
Ni       7.60335022       4.41832278       0.05616386        1       1.00000000       0.05113691       0.02801618       0.25547269
Ni      10.21892813       4.41482041       0.05926456        1       1.00000000       0.00532742       0.00115701       0.36187875
Ni       3.82658297       6.54190171       0.02977676        0       1.00000000       0.01806504      -0.02252287       0.28314822
Ni       6.32276416       6.53681243       0.00000000        0       1.00000000      -0.06314701       0.00091712       0.14389197
Ni       8.90807499       6.50018858       0.10835223        1       1.00000000       0.06900926      -0.08000840      -0.60561748
Ni      11.50503752       6.51460043       0.01671281        0       1.00000000       0.05414148       0.04940306       0.20822905
Ni       1.30524188       0.77637103       2.10819808        3       1.00000000       0.03105088       0.14935926       0.11376911
Ni       3.80826583       0.79116729       2.16839658        4       1.00000000      -0.04020342       0.07168687       0.24207193
Ni       6.35685403       0.77892161       2.19411142        4       1.00000000      -0.04781210       0.09797967       0.19191090
Pt       8.88716844       0.70614302       2.14856426        3       0.00000000       0.00852502      -0.11318207       0.18788767
Ni       2.52676042       2.95052860       2.18609834        4       1.00000000       0.00067665       0.04838491       0.09413240
Ni       5.09123713       2.93598408       2.14723824        3       1.00000000      -0.02949651       0.01252053       0.06841174
Ni       7.60905123       2.95231361       2.15497129        4       1.00000000      -0.06431182      -0.00006557       0.11739722
Ni      10.23174776       2.97962728       2.15191308        4       1.00000000       0.08066610       0.04098872       0.10924144
Ni       3.81664129       5.08509127       2.11522151        3       1.00000000      -0.01539002      -0.11869297       0.03857010
Ni       6.31998620       5.06541160       2.07780828        3       1.00000000      -0.07539459      -0.07316150       0.03638192
Ni       8.92411055       5.02696497       2.11137042        3       1.00000000      -0.00527260      -0.13221682       0.05280754
Ni      11.50534613       5.04406405       2.14485038        3       1.00000000       0.09495071      -0.08740386       0.12359429
Ni       5.06827823       7.21889718       2.07835943        3       1.00000000      -0.11361766      -0.12524710       0.07077754
Pt       7.55752228       7.28267862       2.04896960        2       0.00000000      -0.00217820      -0.02043989       0.00893662
Pt      10.28080499       7.19665290       2.15069427        4       0.00000000       0.04803833      -0.23068304       0.13195114
Ni      12.75811307       7.21225201       2.09669995        3       1.00000000       0.09744464      -0.14010774       0.07455250
Pt       0.09586045       1.50660711       4.21492839        5       0.00000000       0.11567303      -0.08074773      -0.02957721
Ni       2.57886182       1.51761828       4.20187427        5       1.00000000       0.07187052       0.08340771      -0.25291800
Ni       5.10367572       1.45893372       4.19721930        5       1.00000000      -0.01445336      -0.02447203      -0.27803724
Ni       7.60321183       1.43128831       4.25973973        6       1.00000000      -0.07507981      -0.10984572      -0.15554208
Ni       1.32107282       3.68543745       4.25280961        6       1.00000000       0.05611391       0.00020084      -0.11339388
Ni       3.77628603       3.68875798       4.19274583        5       1.00000000      -0.05731313       0.07828458      -0.21650887
Pt       6.31768935       3.58119532       4.25772105        6       0.00000000      -0.02844915      -0.08750720       0.00321508
Ni       8.95719434       3.67453030       4.21411256        5       1.00000000       0.07938811       0.02003419      -0.23996015
Ni       2.53463839       5.76003411       4.24486723        5       1.00000000      -0.03455494      -0.02723592      -0.17166495
Ni       5.05793406       5.77626570       4.25212278        6       1.00000000      -0.03241633      -0.10615946      -0.15420054
Pt       7.62397758       5.78857816       4.24155068        5       0.00000000      -0.03358000       0.01597610      -0.03126736
Ni      10.26005080       5.76695940       4.27511499        6       1.00000000       0.02561342      -0.00156131      -0.08152744
Pt       3.81419110       7.89805592       4.20303953        5       0.00000000       0.02807631       0.00397382      -0.00138515
Ni       6.35466020       7.99996469       4.22153003        5       1.00000000      -0.01221448      -0.02652895      -0.14777064
Pt       8.91709458       8.06776897       4.19507953        5       0.00000000      -0.08489326      -0.01859062      -0.19399954
Ni      11.48847980       7.98191797       4.22805274        5       1.00000000       0.01353653      -0.11926476      -0.17198290
Pt       0.01719934      -0.08608976       6.47068844        9       0.00000000      -0.19049210       0.08503421       0.34113221
Pt       2.53076844      -0.00873359       6.44195986        8       0.00000000       0.18298019       0.10820327       0.40178894
Pt       5.13794614       0.00629916       6.32791269        7       0.00000000      -0.08177957       0.09717259       1.13383636
Pt       7.64108968      -0.06953683       6.45879778        9       0.00000000       0.11966411       0.15747025       0.35921561
Ni       1.29288058       2.24535717       6.38389102        8       1.00000000       0.01985753       0.04575925      -0.07080946
Pt       3.82414247       2.31244379       6.28341919        7       0.00000000      -0.02779664      -0.10009803       0.49269672
Ni       6.36961176       2.22502658       6.40321103        8       1.00000000       0.00342565      -0.01116433       0.05154626
Pt       8.89941980       2.28916315       6.31800728        7       0.00000000      -0.14392297      -0.10424890       0.94418065
Ni       2.53338009       4.41633578       6.35109437        8       1.00000000       0.04901116      -0.02225431      -0.35119159
Ni       5.10532329       4.42274495       6.39342273        8       1.00000000      -0.08395922       0.02323839      -0.23004061
Ni       7.57638847       4.36518412       6.41779356        8       1.00000000      -0.02372574      -0.01379229      -0.06009264
Ni      10.27789023       4.35942056       6.37549744        8       1.00000000       0.02481235      -0.00367497      -0.25013211
Ni       3.82263738       6.44660815       6.38008988        8       1.00000000       0.00284007      -0.01437497      -0.22339406
Ni       6.33788146       6.48358751       6.38598286        8       1.00000000      -0.03345358       0.07213366      -0.08517851
Pt       8.95603179       6.42736953       6.46359328        9       0.00000000       0.11575025       0.06570522       0.31145695
Ni      11.50825005       6.47743452       6.36528964        8       1.00000000      -0.01454748       0.07064947      -0.20084414
