64
Lattice="10.312567776941973 -0.0024655430888984283 0.014714649318314437 5.154148665521878 8.86904098503644 0.006417651583282987 0.0 0.0 21.541431490596626" Properties=species:S:1:pos:R:3:tags:I:1:initial_magmoms:R:1:forces:R:3 unique_id=f985abc0f1da42f98b140f1afbbb279e stress="0.005287615582968598 -3.320931185556948e-05 0.0003473748288200472 -3.320931185556948e-05 0.0051930544501106 0.00019140382159820414 0.0003473748288200472 0.00019140382159820414 -0.002225967568000581" energy=-374.74450184345824 pbc="T T T"
Ni      -0.02387232       0.02753426       0.14681137        1       1.00000000      -0.03907701       0.05384946      -0.05877852
Ni       2.57964561       0.00590463       0.15605266        2       1.00000000      -0.01897631       0.01580070      -0.14463962
Ni       5.15726675      -0.01162058       0.11135878        1       1.00000000       0.02330046       0.20944861      -0.41416881
Ni       7.76361015      -0.03875587       0.06117142        1       1.00000000       0.00712589      -0.00818172       0.36389164
Ni       1.27057535       2.21068302       0.11156095        1       1.00000000       0.00709928      -0.05066494      -0.10064785
Pt       3.80942217       2.22090653       0.05407324        1       0.00000000       0.03203613      -0.02251413      -0.08647609
Pt       6.47624474       2.15739524       0.14198993        1       0.00000000       0.04232729      -0.08663430      -0.55443488
Ni       9.04698097       2.18013602       0.10539163        1       1.00000000      -0.05436827      -0.10571089      -0.03901540
Ni       2.56073417       4.45713480       0.00000000        0       1.00000000      -0.07782805      -0.01455596       0.14720015
Ni       5.15044484       4.44003148       0.10663470        1       1.00000000       0.18499885      -0.09123502      -0.38735899
Pt       7.81022272       4.44531570       0.05277192        1       0.00000000       0.02510362      -0.04794384      -0.03055043
Ni      10.34326161       4.44493828       0.01307132        0       1.00000000       0.08250386      -0.00044693       0.22803841
Ni       3.82968149       6.68100507       0.03100692        0       1.00000000      -0.01396099       0.12668202       0.25370806
Pt       6.41791305       6.70644956       0.14711919        1       0.00000000      -0.03381409       0.04267656      -0.62052634
Ni       9.04822443       6.66638254       0.02799468        0       1.00000000      -0.06900506      -0.00234789       0.12186561
Ni      11.62196599       6.66048621       0.00957486        0       1.00000000       0.09487836       0.03111390       0.22902979
Ni       1.29068819       0.72788267       2.10067522        3       1.00000000      -0.01629187      -0.00930939       0.03711168
Ni       3.86292591       0.75807124       2.14783371        3       1.00000000       0.03870679       0.06987188       0.20897599
Ni       6.47526796       0.74054094       2.19321391        4       1.00000000       0.09902101       0.06005376       0.22829970
Ni       9.00171219       0.72287223       2.13599158        3       1.00000000      -0.13774634       0.02782115       0.04853506
Ni       2.58253515       2.94190997       2.14866055        3       1.00000000      -0.02115413       0.03918962       0.09375962
Ni       5.15322910       2.92754029       2.18616400        4       1.00000000      -0.07836389      -0.13219749       0.22652567
Ni       7.74754988       2.93560923       2.18772241        4       1.00000000       0.07825834      -0.08580539       0.15497589
Pt      10.27831067       2.90081760       2.17982083        4       0.00000000      -0.02812404       0.02354893       0.10843293
Pt       3.88531425       5.16207352       2.09995010        3       0.00000000       0.01784649       0.00056395      -0.05899595
Ni       6.48505134       5.16226293       2.16627658        4       1.00000000       0.12202289      -0.03519482       0.14619737
Ni       8.99544456       5.17538428       2.20137742        4       1.00000000      -0.07813724      -0.05305586       0.27743631
Pt      11.59610945       5.16255093       2.16620173        4       0.00000000      -0.05424002      -0.05082772       0.07384743
Ni       5.13004689       7.43387376       2.13543599        3       1.00000000      -0.12786328       0.06732511       0.00634894
Ni       7.73867318       7.38880562       2.15308322        4       1.00000000       0.05200721      -0.06375311       0.10910609
Pt      10.29245132       7.40629590       2.07607373        3       0.00000000      -0.00284300      -0.01299960      -0.07238764
Ni      12.91199241       7.42342534       2.11676492        3       1.00000000      -0.01605915       0.05699230      -0.09621472
Ni      -0.01512660       1.52644361       4.28826594        6       1.00000000       0.01226538       0.09537168      -0.09627478
Pt       2.60536611       1.57773684       4.22211654        5       0.00000000      -0.04641246       0.04766802      -0.06980989
Ni       5.16129029       1.49305734       4.26760894        6       1.00000000       0.00125831       0.00973959      -0.33210342
Ni       7.76335848       1.48938108       4.26182810        6       1.00000000       0.09126963       0.04921612      -0.33832313
Ni       1.27581462       3.75263580       4.32118512        6       1.00000000      -0.07898851       0.04765541      -0.04392770
Ni       3.84409258       3.69874116       4.30592399        6       1.00000000       0.00358276       0.03835980      -0.18958408
Pt       6.50571345       3.66661349       4.20942581        5       0.00000000       0.02446648      -0.04283231      -0.04951997
Ni       9.06154928       3.72313708       4.31101714        6       1.00000000       0.11485905       0.02549639      -0.14215298
Ni       2.54314662       5.86413254       4.35781855        7       1.00000000      -0.04235629      -0.10480449       0.00160524
Pt       5.12218131       5.88376829       4.26315958        6       0.00000000      -0.02941944       0.01124892      -0.06641940
Ni       7.80100800       5.85980426       4.28915725        6       1.00000000       0.10751942      -0.06891043      -0.27016993
Ni      10.31392974       5.84784993       4.36365063        7       1.00000000       0.00581683      -0.05462872      -0.06625870
Pt       3.83966546       8.16886900       4.24667610        5       0.00000000      -0.00319111       0.08406699      -0.02233883
Pt       6.44700991       8.15903245       4.19464566        5       0.00000000      -0.03468896       0.13999640      -0.14167605
Pt       9.03365801       8.07091598       4.27923839        6       0.00000000      -0.05844435      -0.04195461       0.00014865
Pt      11.62321772       8.11173007       4.30174182        6       0.00000000      -0.02438138      -0.02487327      -0.02879338
Pt      -0.05579150      -0.02749586       6.52443543        9       0.00000000       0.15073437       0.13594483       0.24268606
Pt       2.61323086       0.00866519       6.54143149        9       0.00000000      -0.06416222       0.00741562       0.40119885
Pt       5.20666439      -0.08074861       6.53223595        9       0.00000000       0.01700119      -0.06393103       0.46852742
Ni       7.73743405      -0.04902071       6.48385743        9       1.00000000      -0.03904461      -0.01979754      -0.10179556
Pt       1.32315606       2.33871522       6.48236607        9       0.00000000      -0.13121523       0.02454244       0.04805373
Ni       3.87017031       2.23281046       6.38561089        8       1.00000000       0.07505480      -0.08689268       0.12403875
Pt       6.44917824       2.18902625       6.40191752        8       0.00000000      -0.05219701      -0.06556120       0.60883409
Pt       9.02510647       2.28413518       6.44612393        8       0.00000000       0.05143933       0.06284081       0.04915492
Ni       2.55116913       4.48817966       6.43412489        8       1.00000000      -0.07812176       0.12884081      -0.25283359
Pt       5.05527571       4.41225729       6.50276689        9       0.00000000      -0.08421599      -0.05844039       0.28201061
Ni       7.78793203       4.45057650       6.37895947        8       1.00000000       0.01888819       0.02186507       0.01213659
Ni      10.32272523       4.50196969       6.43731537        8       1.00000000       0.00956040       0.04562756      -0.32556718
Ni       3.79597521       6.63722559       6.46852649        9       1.00000000      -0.07539185      -0.01706031      -0.23741695
Pt       6.50464118       6.58614657       6.42756143        8       0.00000000       0.10193911      -0.11096922       0.65935489
Ni       9.07643749       6.57563079       6.45945014        9       1.00000000       0.04504469      -0.06419868      -0.20538451
Ni      11.62733234       6.58694674       6.46771599        9       1.00000000      -0.02785251      -0.10260053      -0.31649092
