64
Lattice="10.12849261791461 -0.00827752248260473 -0.0018551879972730737 5.057077764207023 8.746196129360037 -0.016463439830940396 0.0 0.0 21.485549645507206" Properties=species:S:1:pos:R:3:tags:I:1:initial_magmoms:R:1:forces:R:3 unique_id=2664b4edcda144549df7af9b3a92792f energy=-368.01008816302965 stress="0.003723358759855482 3.4029376016688392e-06 1.55818972856989e-05 3.4029376016688392e-06 0.0033800850999753437 -4.850548667793143e-05 1.55818972856989e-05 -4.850548667793143e-05 -0.002641258585805729" pbc="T T T"
Ni       0.04265107      -0.04076020       0.15473161        2       1.00000000       0.15675717      -0.01404851      -0.46880495
Ni       2.51537511      -0.03460324       0.17192450        2       1.00000000       0.04279661      -0.01034812      -0.11652386
Ni       5.07591621      -0.02051808       0.06865858        1       1.00000000      -0.08857422       0.01771335       0.10783230
Ni       7.56361213      -0.02176870       0.14917343        1       1.00000000      -0.04272549       0.06742860      -0.68605990
Ni       1.26631559       2.19740729       0.09205493        1       1.00000000       0.01718983      -0.03702864       0.26411660
Pt       3.78963627       2.18804335       0.16477917        2       0.00000000      -0.04436705      -0.00238544      -0.67693105
Ni       6.32259898       2.19006274       0.08331582        1       1.00000000      -0.02189154       0.03490858       0.12031737
Pt       8.86424253       2.24001065       0.00000000        0       0.00000000       0.03448521       0.02638625      -0.33449333
Ni       2.50546951       4.40057646       0.07533920        1       1.00000000       0.05075697       0.00529229       0.28100527
Ni       5.05955626       4.39264684       0.04642505        0       1.00000000      -0.12058256      -0.04675013       0.11168107
Ni       7.58520472       4.39608509       0.04906830        0       1.00000000       0.10484046       0.06275338       0.06303313
Ni      10.15066459       4.40097814       0.07381611        1       1.00000000      -0.03387409       0.11221518       0.22165031
Ni       3.81571555       6.52977154       0.03693085        0       1.00000000       0.09867517      -0.03982190       0.12127301
Ni       6.31992359       6.57190128       0.04696103        0       1.00000000       0.03203109       0.11621608       0.14276193
Ni       8.82913678       6.53519474       0.12043721        1       1.00000000      -0.14582641      -0.06044164      -0.20818740
Ni      11.38005603       6.52597759       0.01840291        0       1.00000000      -0.06921519      -0.05813087       0.11447267
Ni       1.31875687       0.72921007       2.17131739        4       1.00000000       0.08477224       0.13408718       0.13142739
Ni       3.74793073       0.71233124       2.17548184        4       1.00000000      -0.13404886      -0.04568770       0.10758216
Ni       6.30150791       0.75358167       2.11490088        3       1.00000000      -0.03994512       0.05612166      -0.04849265
Pt       8.93092437       0.74805652       2.14760429        3       0.00000000       0.10570569       0.08638984      -0.05107695
Ni       2.50723057       2.92120082       2.18632982        4       1.00000000       0.00205010      -0.04313636       0.09361889
Ni       5.06093859       2.91806063       2.17194542        4       1.00000000      -0.00829499       0.07846648       0.04244156
Ni       7.59039493       2.93333632       2.14623407        3       1.00000000       0.05708307       0.03395747       0.05073802
Ni      10.15779650       2.94605420       2.15700372        4       1.00000000       0.01018059       0.01076626       0.03456653
Ni       3.78317184       5.04404993       2.14891566        3       1.00000000      -0.01582787      -0.17426831       0.04267429
Pt       6.32968282       5.12962838       2.11148881        3       0.00000000       0.03170731       0.02852710      -0.00821424
Ni       8.87235715       5.05648168       2.15490826        4       1.00000000       0.02926114      -0.11309375       0.08707649
Ni      11.37966994       5.04040253       2.12742248        3       1.00000000      -0.05718766      -0.09059489       0.02750286
Ni       5.10806156       7.28027701       2.12702600        3       1.00000000       0.03417214       0.01962204       0.07006353
Ni       7.55859724       7.31468356       2.15797507        4       1.00000000      -0.06144770       0.03781525       0.17847078
Pt      10.05838904       7.26948909       2.15913750        4       0.00000000      -0.03010723      -0.02368652       0.03846193
Pt      12.65713723       7.18897563       2.10832162        3       0.00000000       0.04510921      -0.12905706       0.02799579
Ni       0.05324154       1.46167657       4.29669127        6       1.00000000       0.11832208      -0.08090266      -0.11454745
Ni       2.48486774       1.42848844       4.23824255        5       1.00000000      -0.04524169      -0.10448614      -0.21118933
Pt       5.00863494       1.38989127       4.21643450        5       0.00000000      -0.13052067      -0.11196292       0.03725484
Pt       7.62745215       1.47808055       4.29028451        6       0.00000000       0.07141305      -0.06336088      -0.04931198
Pt       1.26141372       3.64940438       4.28263111        6       0.00000000       0.00448958      -0.03206619       0.02426957
Ni       3.77420796       3.69786666       4.25204077        6       1.00000000      -0.01499401       0.05206487      -0.20919294
Pt       6.31653311       3.71247938       4.33462664        6       0.00000000      -0.03237044       0.03274065       0.06042964
Ni       8.88287047       3.69047012       4.28831549        6       1.00000000      -0.00976492       0.17299753      -0.15111349
Ni       2.52137759       5.79485084       4.31778946        6       1.00000000      -0.02505893      -0.01759744      -0.05779432
Ni       5.05627300       5.81710132       4.31304721        6       1.00000000       0.07124403       0.00908310      -0.08824365
Ni       7.60825847       5.85732974       4.27534943        6       1.00000000       0.05934233       0.10006023      -0.16031354
Ni      10.12182217       5.81512499       4.27516548        6       1.00000000      -0.04051882      -0.03268845      -0.13563150
Pt       3.83539418       7.91988662       4.27233521        6       0.00000000       0.04225372       0.00555619       0.07103045
Ni       6.36936510       7.98720192       4.22989312        5       1.00000000       0.09421260      -0.03757058      -0.16607615
Ni       8.82720520       7.96808550       4.25737543        6       1.00000000      -0.13668749      -0.04257096      -0.14704844
Ni      11.35239621       7.93811682       4.29779264        6       1.00000000      -0.02959414      -0.13794285      -0.02411352
Pt      -0.00131227      -0.00063351       6.46151141        9       0.00000000      -0.06171332       0.07612006       0.40230378
Pt       2.55552860      -0.01765125       6.40610401        8       0.00000000      -0.01497819       0.04762541       0.14461375
Ni       5.06745688      -0.02837017       6.40842042        8       1.00000000      -0.06332228       0.01105036      -0.02164192
Pt       7.51556423      -0.04841729       6.48554965        9       0.00000000       0.04551684      -0.04504812       0.53645703
Ni       1.23650385       2.22614070       6.40751154        8       1.00000000       0.05431391      -0.02349714      -0.04030417
Pt       3.79489996       2.27695418       6.36207190        8       0.00000000      -0.10225592       0.18629658       0.70784409
Ni       6.34110403       2.21273454       6.43827225        8       1.00000000      -0.01977330       0.05961922       0.05981840
Ni       8.88016681       2.24176296       6.31206970        7       1.00000000       0.08694888       0.07020845       0.46291350
Ni       2.51473618       4.42129166       6.40780897        8       1.00000000       0.02292646       0.01403856      -0.17805077
Ni       5.06286068       4.42318776       6.41588758        8       1.00000000      -0.09762792       0.01636297      -0.00181623
Ni       7.59156499       4.34280555       6.41707525        8       1.00000000       0.11874778      -0.02392726      -0.02759982
Ni      10.14147581       4.33187279       6.40666199        8       1.00000000      -0.02192924      -0.01254702      -0.18879526
Ni       3.79300170       6.47517048       6.40364173        8       1.00000000      -0.02652549       0.02494472      -0.08180753
Ni       6.30227547       6.48710039       6.38198074        8       1.00000000       0.05444799       0.05053880      -0.21933057
Pt       8.89492983       6.46606055       6.39759544        8       0.00000000      -0.02448941      -0.09413424       0.02360942
Ni      11.40495361       6.49040579       6.37841724        8       1.00000000       0.02952888      -0.10919200      -0.13860144
