64
Lattice="10.46936427870612 0.0325721307350254 -0.02135144601275838 5.2628904320249825 9.03965556447928 -0.013434327288931463 0.0 0.0 21.738173492450652" Properties=species:S:1:pos:R:3:tags:I:1:initial_magmoms:R:1:forces:R:3 unique_id=f1ae882fdac245e4ae94186053eaacf7 stress="0.009370797533611551 0.0003292350910559845 0.0002539945481721835 0.0003292350910559845 0.00927121412453202 3.210770334129522e-05 0.0002539945481721835 3.210770334129522e-05 -0.0002739041648012752" energy=-381.8960108866007 pbc="T T T"
Ni      -0.04369340       0.00019402       0.21497086        2       1.00000000      -0.05115910       0.02169043       0.05484935
Ni       2.64037414      -0.00858146       0.11954342        1       1.00000000       0.05414210       0.03067542       0.46131424
Ni       5.23763049      -0.01385861       0.15173485        2       1.00000000       0.03380427       0.09412379      -0.24404364
Ni       7.88055765      -0.02866070       0.10737750        1       1.00000000      -0.01726090      -0.04010721       0.52286184
Pt       1.29286004       2.21456075       0.14625096        1       0.00000000       0.19336022      -0.16487525      -0.68763054
Pt       3.91213540       2.20955458       0.19349706        2       0.00000000       0.02448207       0.02695131      -0.39186040
Pt       6.58580250       2.15314776       0.13734277        1       0.00000000      -0.15625497      -0.09238823      -0.65332145
Ni       9.17084727       2.24038760       0.13817497        1       1.00000000       0.01929370      -0.15272759      -0.07855391
Ni       2.61550620       4.55039424       0.14740317        1       1.00000000       0.00208878      -0.07500957      -0.11968299
Pt       5.23417355       4.54840754       0.15225901        2       0.00000000       0.27439059      -0.11088808      -0.67104955
Pt       7.95665112       4.55353479       0.00000000        0       0.00000000      -0.17824187       0.01031820       0.00720181
Ni      10.50690874       4.58282884       0.03499495        0       1.00000000       0.06347584       0.06134456       0.31010605
Ni       3.90532858       6.82892695       0.18518510        2       1.00000000      -0.00003253       0.04468151       0.10043495
Pt       6.57503235       6.88831763       0.19250438        2       0.00000000      -0.03446333      -0.08343700      -0.28663328
Ni       9.21338134       6.83141673       0.04603497        0       1.00000000      -0.01114040      -0.01007651       0.37157353
Ni      11.81344249       6.82698088       0.04186881        0       1.00000000       0.09217644       0.07044230       0.40989911
Ni       1.33758984       0.71434895       2.23594584        4       1.00000000       0.02679586      -0.04732587       0.15917205
Ni       3.87007549       0.76289981       2.25902896        5       1.00000000      -0.16514591      -0.00000186       0.17908079
Ni       6.57005034       0.73378907       2.25012226        5       1.00000000       0.08934674      -0.04698326       0.16788243
Ni       9.14424549       0.72267320       2.18107394        4       1.00000000       0.00143411      -0.06080121       0.05666403
Ni       2.65129986       2.98124340       2.29419215        5       1.00000000       0.06372512      -0.02848625       0.36242839
Ni       5.21207821       3.01217065       2.26470353        5       1.00000000      -0.00931903       0.05820234       0.26737127
Pt       7.84067489       2.96160502       2.27749378        5       0.00000000      -0.00791574       0.03826625       0.20487593
Pt      10.47205487       3.01122242       2.21264726        4       0.00000000      -0.06534795       0.12736371       0.12588217
Pt       3.92919560       5.28943032       2.27236035        5       0.00000000      -0.04343172       0.06346066       0.20475467
Ni       6.56005886       5.31067578       2.25556855        5       1.00000000       0.02140509      -0.00853433       0.26965555
Pt       9.12144235       5.35223643       2.30579587        5       0.00000000      -0.03648977       0.02156923       0.12343597
Pt      11.80538951       5.34188459       2.17905020        4       0.00000000      -0.06086332       0.02060214       0.06321938
Ni       5.23716415       7.58057238       2.21415970        4       1.00000000      -0.05984828       0.04296277       0.18116439
Ni       7.86139162       7.59673218       2.23533039        4       1.00000000       0.03462485       0.14383533       0.10343119
Pt      10.48515082       7.62564892       2.14772077        3       0.00000000      -0.05228914       0.05020827       0.02927506
Ni      13.12290133       7.60778128       2.17605222        4       1.00000000      -0.02432975       0.07255446      -0.00180235
Pt      -0.04375033       1.52475576       4.39154500        7       0.00000000      -0.09227836      -0.00547128      -0.19749263
Ni       2.61508931       1.52274921       4.38906347        7       1.00000000      -0.02439590       0.01725166      -0.34705948
Pt       5.20167622       1.53748850       4.30193306        6       0.00000000      -0.02348655      -0.02198818      -0.31356895
Ni       7.84560119       1.51749326       4.41972120        7       1.00000000      -0.02854888      -0.04625856      -0.23883455
Pt       1.32838438       3.81911259       4.42390440        7       0.00000000      -0.00349614       0.06111252      -0.12675060
Ni       3.90289434       3.76499893       4.41272138        7       1.00000000      -0.01564306      -0.01727886      -0.29973112
Pt       6.60995149       3.80311864       4.40000118        7       0.00000000       0.08662538       0.00854658      -0.22763970
Ni       9.17412711       3.83949872       4.47026956        8       1.00000000       0.06094769       0.01896429      -0.14689115
Ni       2.61227643       6.01662830       4.44789986        7       1.00000000       0.05475985      -0.02296120      -0.13532850
Pt       5.24707651       6.03358892       4.38530353        7       0.00000000      -0.03587857       0.08677798      -0.18035177
Ni       7.91218915       6.01481039       4.44829518        7       1.00000000       0.05137452      -0.00948899      -0.11477148
Ni      10.45966215       6.02775404       4.49497452        8       1.00000000       0.00322204       0.02411489       0.00194610
Pt       3.90413527       8.29307977       4.34813182        6       0.00000000       0.02813790       0.00589126      -0.13456595
Pt       6.59526851       8.31250738       4.34246281        6       0.00000000      -0.06877500       0.15843445      -0.16681528
Pt       9.15994469       8.24618324       4.42806835        7       0.00000000       0.03542753      -0.00199165      -0.06743362
Pt      11.80803779       8.25343092       4.42752964        7       0.00000000      -0.08633675      -0.03529729      -0.03576926
Pt      -0.01866883      -0.00844280       6.73817349       11       0.00000000       0.05842868       0.04459313      -0.04541496
Ni       2.62446275      -0.02129941       6.65184674       11       1.00000000      -0.00803395       0.00404883      -0.22547712
Pt       5.21691412      -0.11090511       6.72597570       11       0.00000000      -0.00071352       0.04719382       0.00019875
Ni       7.82568636       0.01570669       6.64762742       10       1.00000000      -0.01020729       0.05592210      -0.26068453
Pt       1.30031556       2.25497378       6.59056163       10       0.00000000       0.05138533      -0.04044822       0.64134212
Pt       3.90161638       2.22106149       6.57088369       10       0.00000000       0.00278723       0.05791094       0.35406799
Pt       6.56904307       2.21599012       6.57083995       10       0.00000000      -0.03105150      -0.13014270       0.58889040
Pt       9.14477437       2.35873234       6.65590825       11       0.00000000      -0.03570416       0.05440433      -0.07498007
Pt       2.53225422       4.58000542       6.67904223       11       0.00000000       0.17134420      -0.05813531       0.09399239
Pt       5.25471864       4.52713510       6.58532790       10       0.00000000      -0.13276145      -0.06732428       0.72704774
Ni       7.91897795       4.56092871       6.52278763        9       1.00000000       0.03588502       0.04954389       0.13398971
Ni      10.42081168       4.61168776       6.60629437       10       1.00000000      -0.05960541      -0.00489414      -0.36568794
Pt       3.84273046       6.82823208       6.70590004       11       0.00000000       0.06271803      -0.11082463      -0.05973717
Pt       6.68017801       6.77949973       6.59689659       10       0.00000000      -0.00220655      -0.08310706       0.24741881
Ni       9.20503983       6.73285007       6.61815809       10       1.00000000       0.02630761      -0.06780161      -0.33768131
Ni      11.73815315       6.77384637       6.62502580       10       1.00000000      -0.09124003      -0.04890715      -0.28818287
