64
Lattice="10.181780283838407 -0.007623573117416928 -0.030276402948763135 5.084287933931912 8.77170995239925 -0.013516296878912992 -0.024720579490455093 0.0015291463171912458 8.719841270236707" Properties=species:S:1:pos:R:3:tags:I:1:initial_magmoms:R:1:forces:R:3 unique_id=e5adb6b12d944347826d34a734c1ead5 stress="-0.00023111482524033194 8.820099240867186e-07 5.934383022855714e-06 8.820099240867186e-07 -0.0002370312290371837 -1.4817306373876404e-05 5.934383022855714e-06 -1.4817306373876404e-05 -0.00018439244909414232" energy=-391.992551624477 pbc="T T T"
Ni       0.05085859      -0.04452034       0.17830333        4       1.00000000       0.13244557      -0.01080052       0.22503222
Ni       2.52394894      -0.04448647       0.19885847        4       1.00000000      -0.02508984      -0.07718249       0.20633058
Ni       5.05770365      -0.07326033       0.06593563        4       1.00000000      -0.14534619      -0.11380766       0.05103042
Ni       7.63570125      -0.05414423       0.13735694        4       1.00000000       0.06937789      -0.00214332       0.20954005
Ni       1.27215165       2.20550905       0.11410421        4       1.00000000      -0.00291488       0.06641930       0.20105012
Pt       3.73948121       2.19552451       0.18770325        4       0.00000000      -0.06034009      -0.03548083       0.41502357
Pt       6.35591849       2.24597668       0.01775423        4       0.00000000      -0.01346092       0.12810001      -0.01424415
Pt       8.98344666       2.25185511      -0.00166952        4       0.00000000       0.06660802       0.05013257      -0.11039354
Ni       2.50787999       4.42528037       0.09948461        4       1.00000000      -0.08905464       0.08984788       0.15883495
Ni       5.05816078       4.44404771       0.06067349        4       1.00000000      -0.12964483       0.10648575       0.06913921
Ni       7.65595507       4.44801031       0.05893976        4       1.00000000       0.11764944       0.18915364       0.07878028
Ni      10.20930789       4.43280753       0.07962184        4       1.00000000       0.02802836       0.16311369       0.12283434
Ni       3.83207705       6.55195935       0.06184643        4       1.00000000       0.04203716      -0.03923034       0.03146197
Ni       6.35586265       6.59633060       0.06312022        4       1.00000000       0.03181057       0.07604331      -0.05745504
Ni       8.89919746       6.56848589       0.16145476        4       1.00000000      -0.05628543      -0.01580144       0.18923129
Ni      11.41895546       6.54588855       0.03216344        4       1.00000000      -0.12970065      -0.01301372      -0.05804799
Ni       1.32864610       0.75542186       2.16837726        3       1.00000000       0.05047034       0.12371106       0.04206203
Ni       3.74256895       0.68264268       2.20115488        3       1.00000000      -0.05184819      -0.07189877       0.08029219
Pt       6.28427462       0.69371874       2.15020779        3       0.00000000      -0.09857449       0.01342687      -0.15167017
Pt       8.99785696       0.74611674       2.16070026        3       0.00000000       0.12230136       0.10905665      -0.15817933
Ni       2.50333988       2.94475047       2.22420790        3       1.00000000       0.01088951       0.02677636       0.04280954
Ni       5.03974324       2.96476297       2.21188441        3       1.00000000      -0.05135470      -0.01431365      -0.01210151
Ni       7.66642697       2.97410239       2.18213507        3       1.00000000       0.10429354       0.05143640      -0.06135194
Ni      10.21276845       2.97053247       2.16930880        3       1.00000000      -0.04246273       0.00591913      -0.01558932
Ni       3.79651890       5.06136136       2.17856303        3       1.00000000      -0.03231176      -0.10496881       0.02429467
Pt       6.36561100       5.15400919       2.13038922        3       0.00000000       0.04431054       0.03910134      -0.04127406
Ni       8.93863678       5.12095841       2.16981858        3       1.00000000       0.04425501      -0.03937991       0.07552078
Ni      11.40572645       5.07122509       2.13623123        3       1.00000000      -0.08090966      -0.03649489      -0.01766525
Ni       5.11055953       7.28909154       2.13001384        3       1.00000000      -0.01478709      -0.05388111      -0.02708528
Ni       7.66535416       7.31761376       2.14353032        3       1.00000000       0.05741637      -0.09728551       0.03479230
Ni      10.10803049       7.25042239       2.17031352        3       1.00000000      -0.03700932      -0.11424303       0.06373385
Pt      12.68629136       7.16902492       2.11352180        3       0.00000000      -0.03010374      -0.20101043       0.00021680
Ni       0.03201683       1.49456933       4.34698038        2       1.00000000       0.10191749      -0.04314626      -0.02245129
Ni       2.49974667       1.47642479       4.27728319        2       1.00000000      -0.00880356       0.01988800      -0.00934543
Pt       5.00023840       1.41406964       4.29409875        2       0.00000000      -0.20014459       0.05075437       0.13514572
Pt       7.67386265       1.50487415       4.32311379        2       0.00000000       0.01613081      -0.03460630       0.04388343
Pt       1.25402464       3.67852356       4.32467035        2       0.00000000      -0.02307688      -0.00089725       0.04872184
Ni       3.78067884       3.71993670       4.28343312        2       1.00000000      -0.03227515       0.05024517      -0.09155499
Pt       6.33716430       3.73978280       4.35120899        2       0.00000000       0.00621860       0.04204724      -0.03814485
Ni       8.92287742       3.71666233       4.30584023        2       1.00000000       0.00718023       0.14398927      -0.13989054
Ni       2.51194386       5.81080869       4.36236061        2       1.00000000      -0.04084569      -0.03349775      -0.04999473
Ni       5.04209346       5.82257486       4.34550423        2       1.00000000      -0.04791453       0.00052397      -0.09875245
Ni       7.67669318       5.84254296       4.29976568        2       1.00000000       0.17031847       0.00448571      -0.09939641
Ni      10.16434321       5.85163348       4.26994964        2       1.00000000       0.00620801      -0.01409536      -0.14621773
Pt       3.78611815       7.94396460       4.32099622        2       0.00000000      -0.03301377      -0.00751049       0.14985521
Pt       6.41134138       8.00794113       4.22364327        2       0.00000000       0.05529258      -0.01532555       0.08010856
Ni       8.92277331       7.98264913       4.26379278        2       1.00000000       0.03815514      -0.15681209      -0.07673803
Ni      11.38476885       7.95644674       4.30911586        2       1.00000000      -0.04163770      -0.11448768      -0.04737586
Pt      -0.02794911       0.01281252       6.53034768        1       0.00000000      -0.00043243      -0.03025246       0.09206049
Pt       2.56792466       0.00192362       6.50383492        1       0.00000000       0.01900431       0.00124374       0.09404560
Ni       5.07953150      -0.02302667       6.44050737        1       1.00000000      -0.05007365      -0.04822131      -0.15244724
Pt       7.53400295      -0.04617634       6.51401827        1       0.00000000      -0.08971403      -0.05281295       0.07385577
Ni       1.22629228       2.24627503       6.45724625        1       1.00000000      -0.00289034       0.01152073      -0.02948378
Pt       3.79068790       2.30991271       6.41717869        1       0.00000000       0.00482497       0.19416168      -0.24727070
Ni       6.35517197       2.22915021       6.37034677        1       1.00000000       0.00448206       0.02094215      -0.23623338
Ni       8.91230873       2.26376548       6.34246749        1       1.00000000       0.06472992       0.10232514      -0.36613060
Ni       2.50957910       4.44714552       6.45506363        1       1.00000000      -0.04460440       0.12345571      -0.01821937
Ni       5.07478781       4.44907627       6.45315422        1       1.00000000       0.02643868       0.13829847      -0.06289583
Ni       7.61743084       4.36712051       6.44911428        1       1.00000000       0.03337043      -0.06688959      -0.05092676
Ni      10.18097119       4.35214685       6.43385148        1       1.00000000       0.06739356      -0.06999479      -0.01719037
Ni       3.79521838       6.50084662       6.45828832        1       1.00000000       0.00968855      -0.08299544      -0.06429423
Ni       6.32188153       6.51196835       6.44143125        1       1.00000000       0.06270889      -0.04420538      -0.17808696
Pt       8.93288586       6.49386503       6.44185734        1       0.00000000       0.06572550      -0.12580984       0.14688440
Ni      11.44912369       6.52038255       6.40462646        1       1.00000000       0.02494399      -0.16010835      -0.21847307
