64
Lattice="10.160644312359409 0.017198723195807137 -0.01419615412842979 5.095216687379982 8.758208210431343 -0.057557190080102794 0.0 0.0 21.468448361225512" Properties=species:S:1:pos:R:3:tags:I:1:initial_magmoms:R:1:forces:R:3 unique_id=c1b3216714d947b4af3ec1f753d2932b stress="0.002120498498009094 -4.7368357140869705e-05 -3.2664112261011425e-05 -4.7368357140869705e-05 0.0015061571226660589 -0.0002997678620313138 -3.2664112261011425e-05 -0.0002997678620313138 -0.005055767240726521" energy=-368.9804860139269 pbc="T T T"
Ni       0.03430870      -0.05235342       0.16087544        2       1.00000000       0.07191911      -0.04151810      -0.49033638
Ni       2.49478433       0.00320030       0.11354147        1       1.00000000       0.05645508       0.11218600      -0.36406999
Pt       5.10400932      -0.06177513       0.16030216        2       0.00000000      -0.08964747      -0.00252874      -0.79327326
Ni       7.62867160      -0.04346332       0.13050245        1       1.00000000      -0.06759056      -0.08958688      -0.48417250
Ni       1.26674266       2.20972670       0.07545256        1       1.00000000      -0.03600548       0.05531752       0.20393854
Pt       3.77870887       2.25669216       0.14057922        1       0.00000000       0.01102580      -0.03205880      -0.73194366
Ni       6.35549244       2.23920366       0.06715754        1       1.00000000      -0.04265915      -0.02178710       0.15720834
Pt       8.89454881       2.26378985       0.08236978        1       0.00000000       0.04694402       0.16848377      -0.98063320
Ni       2.52151406       4.42119027       0.04240706        0       1.00000000       0.04960251      -0.00130488       0.40768348
Ni       5.10526765       4.42604562       0.04069803        0       1.00000000      -0.11247909       0.01092602       0.27153762
Ni       7.59381598       4.42427615       0.04489183        0       1.00000000       0.06854605       0.02301925       0.22624986
Ni      10.20246022       4.42720345       0.04004844        0       1.00000000      -0.01987712      -0.03746625       0.33233628
Ni       3.81908513       6.53951946       0.03106079        0       1.00000000      -0.00633105      -0.01394692       0.30987885
Ni       6.32740715       6.54215500       0.00000000        0       1.00000000      -0.04975385       0.00351530       0.15474760
Ni       8.91144396       6.50382730       0.10572442        1       1.00000000       0.14006730      -0.06230366      -0.46244388
Ni      11.46932383       6.52178568       0.02681967        0       1.00000000      -0.01361129       0.04117794       0.32396826
Ni       1.29956382       0.76536244       2.11417924        3       1.00000000       0.00052370       0.14967482       0.09053753
Ni       3.76952325       0.73509480       2.15303378        4       1.00000000      -0.11014824       0.00405675       0.19385904
Ni       6.35884981       0.72941828       2.14387712        3       1.00000000       0.01671963       0.04643484       0.11052689
Pt       8.86762262       0.70616416       2.12229054        3       0.00000000       0.03238176      -0.13951626       0.16695066
Ni       2.50862288       2.95580325       2.18791447        4       1.00000000      -0.01332092       0.09622966       0.10705461
Ni       5.08876122       2.96615131       2.11237393        3       1.00000000       0.00677558       0.05894443       0.06777504
Ni       7.59699240       2.96366478       2.13360547        3       1.00000000      -0.03081726       0.03480930       0.10382559
Ni      10.21181205       2.99533664       2.12339829        3       1.00000000       0.07974086       0.07995339       0.10996501
Ni       3.79925668       5.09215132       2.10570938        3       1.00000000      -0.06351023      -0.05136816       0.04711507
Ni       6.32194145       5.08751896       2.05647734        3       1.00000000      -0.01892839      -0.00773958       0.05735954
Ni       8.93860974       5.06826612       2.08422446        3       1.00000000       0.03413891      -0.05510699       0.07093202
Ni      11.44498668       5.10929229       2.10709325        3       1.00000000       0.02480863      -0.02060237       0.12343655
Ni       5.07865389       7.21441664       2.06286007        3       1.00000000      -0.10406707      -0.10751947       0.08102694
Pt       7.61773711       7.30377587       2.05371581        3       0.00000000      -0.06940687      -0.04576714      -0.01419843
Ni      10.21157746       7.23503109       2.14853627        3       1.00000000       0.03085034      -0.10574951       0.16466805
Ni      12.67154315       7.22102468       2.05282390        3       1.00000000      -0.01627151      -0.10312970       0.08323255
Pt       0.08360384       1.49824598       4.21795027        6       0.00000000       0.10877371      -0.05675855      -0.01634242
Ni       2.54615268       1.46705354       4.19640698        6       1.00000000       0.04999642      -0.00973659      -0.23695388
Pt       5.05949756       1.41194724       4.13954662        5       0.00000000       0.08835749      -0.02714663      -0.13545216
Ni       7.60601448       1.43796013       4.23248951        6       1.00000000      -0.02488842      -0.11143564      -0.20203856
Ni       1.30353664       3.68516814       4.24358181        6       1.00000000       0.05630311       0.01821575      -0.11708852
Ni       3.75295840       3.70229213       4.18850666        6       1.00000000      -0.02926577       0.06253915      -0.17833672
Pt       6.33503649       3.63606484       4.23691919        6       0.00000000       0.00544409      -0.05136528      -0.01252281
Ni       8.94365164       3.69309411       4.17727351        6       1.00000000       0.11958155       0.06552517      -0.22467060
Ni       2.51290436       5.75810666       4.22466229        6       1.00000000      -0.04453871      -0.01725813      -0.18258162
Ni       5.04967998       5.78350023       4.22649937        6       1.00000000       0.00601232      -0.05339213      -0.15981350
Pt       7.64035915       5.83528884       4.20551100        6       0.00000000       0.00113115       0.04980959       0.03251292
Ni      10.22793412       5.80432455       4.19098953        6       1.00000000       0.01969211       0.01066104      -0.12934225
Pt       3.79521085       7.88589481       4.17684378        6       0.00000000       0.00682335       0.01570335      -0.01922588
Ni       6.36363868       8.00345139       4.17930255        6       1.00000000       0.00727902       0.00267197      -0.16259552
Ni       8.90913134       7.99579663       4.16128151        6       1.00000000       0.00125324      -0.00517379      -0.23652221
Ni      11.42279616       7.93244177       4.13818378        5       1.00000000      -0.00682816      -0.12844803      -0.18182350
Pt       0.00098458      -0.09432393       6.46844836        9       0.00000000      -0.19425746       0.10534452       0.34159510
Pt       2.51669166      -0.02685717       6.37131426        8       0.00000000       0.27331317       0.05311629       0.22557340
Pt       5.09140714      -0.04024743       6.31433171        7       0.00000000      -0.21941588      -0.15572405       0.88816760
Pt       7.60081568      -0.06721893       6.42355303        8       0.00000000       0.11674649       0.15402334       0.37403030
Ni       1.27012109       2.23313276       6.37648183        8       1.00000000       0.03238032       0.05316696      -0.02911477
Pt       3.78400885       2.31163788       6.29981542        7       0.00000000      -0.13190521      -0.02621788       0.64600243
Ni       6.33592849       2.21832140       6.37900861        8       1.00000000       0.01840396      -0.00108038       0.06825213
Pt       8.86795572       2.29308339       6.27740272        7       0.00000000      -0.14962478      -0.11656719       1.04541053
Ni       2.51131623       4.41251530       6.33108128        7       1.00000000       0.07140545      -0.03634155      -0.29770656
Ni       5.08076477       4.41897111       6.36557734        8       1.00000000      -0.09355572       0.01486445      -0.18550380
Ni       7.55544914       4.36959551       6.38113880        8       1.00000000      -0.03147851      -0.02729520      -0.01213283
Ni      10.24626938       4.36027881       6.32701170        7       1.00000000       0.05592063      -0.01733845      -0.25503176
Ni       3.80578290       6.43754343       6.35096902        8       1.00000000      -0.00782661      -0.00869082      -0.20866337
Ni       6.31774055       6.47676615       6.34613915        7       1.00000000      -0.03739068       0.06029735      -0.10731431
Pt       8.93280063       6.42279104       6.41070019        8       0.00000000       0.13994969       0.16536982       0.26960210
Ni      11.47956194       6.47472322       6.31080892        7       1.00000000      -0.01386507       0.07293310      -0.24511162
