64
Lattice="10.436151159482666 -0.03203424317422003 0.008937640385816 5.190333111361451 9.049698781846937 -0.0190380497825797 0.0 0.0 21.67282164231696" Properties=species:S:1:pos:R:3:tags:I:1:initial_magmoms:R:1:forces:R:3 unique_id=28181998ef174e448551cdd420c246a4 stress="0.011125397724607859 -0.00025831462187265005 0.0001647271880818174 -0.00025831462187265005 0.010960535906438577 -0.0001626791793137376 0.0001647271880818174 -0.0001626791793137376 0.0010538225303448143" energy=-382.6131268711249 pbc="T T T"
Ni       0.01461736      -0.00631046       0.15263086        2       1.00000000       0.05289538      -0.07147282       0.01812941
Pt       2.52807469       0.01220634       0.20883042        2       0.00000000       0.00746373      -0.01361139      -0.31676703
Pt       5.17460518      -0.02770408       0.11428019        1       0.00000000      -0.13627058       0.11781675      -0.79571770
Pt       7.89782496      -0.09599176       0.15913826        2       0.00000000      -0.03010618      -0.15690206      -0.68627192
Ni       1.29827575       2.30482635       0.08967992        1       1.00000000       0.00172938       0.07844382       0.50091560
Pt       3.83650812       2.35340815       0.09830302        1       0.00000000       0.06930547      -0.08333768       0.26086565
Pt       6.50240963       2.32165234       0.15520771        2       0.00000000       0.07867866       0.16519445      -0.52884753
Pt       9.23025588       2.27060230       0.14579819        1       0.00000000      -0.13611488       0.17298285      -0.30037829
Ni       2.60022371       4.51165985       0.05816532        1       1.00000000       0.05649983       0.04194255       0.39984391
Ni       5.15782105       4.54552608       0.16832659        2       1.00000000      -0.05776377       0.06978568       0.21332071
Pt       7.86389956       4.56858385       0.10104488        1       0.00000000      -0.01797587      -0.03905736       0.19700641
Ni      10.45692284       4.47849189       0.06610445        1       1.00000000       0.05141901      -0.04584434       0.38707611
Ni       3.89833925       6.72997589       0.16689635        2       1.00000000      -0.06551593      -0.11564172       0.21686414
Pt       6.42608555       6.76396429       0.16721884        2       0.00000000      -0.03137219       0.03330441      -0.09252572
Ni       9.09613895       6.74375301       0.14197565        1       1.00000000      -0.11054129       0.02506880      -0.16739717
Pt      11.74612897       6.65335560       0.00000000        0       0.00000000       0.15559828       0.12337979      -0.04129210
Ni       1.32139268       0.75690944       2.27292064        4       1.00000000       0.05398432       0.03898092       0.22614280
Ni       3.87667135       0.79017485       2.26333586        4       1.00000000       0.01473430       0.09869184       0.24436593
Pt       6.47396158       0.79521755       2.30152137        4       0.00000000      -0.00441055       0.11188650       0.26756321
Pt       9.26060556       0.72196395       2.27453676        4       0.00000000       0.11008446      -0.04991799       0.23568991
Ni       2.61228623       2.99998024       2.23740914        3       1.00000000       0.04074002      -0.03996118       0.14425838
Ni       5.15205786       3.06616568       2.26836555        4       1.00000000      -0.14590191       0.11568163       0.22364525
Ni       7.84958921       3.06572717       2.25919909        4       1.00000000       0.05220198       0.09856461       0.25651890
Ni      10.45784459       2.99155698       2.27428916        4       1.00000000       0.10913360       0.00960133       0.20857425
Ni       3.94122124       5.26296036       2.23954258        3       1.00000000       0.08570078      -0.02324889       0.17342521
Ni       6.48708844       5.27670278       2.26033810        4       1.00000000      -0.06759469      -0.00323264       0.23991199
Ni       9.07752397       5.21387182       2.26047114        4       1.00000000      -0.06199616      -0.11761139       0.19725145
Pt      11.78960949       5.16014909       2.21837274        3       0.00000000       0.06482019      -0.11513637       0.05505638
Ni       5.21877407       7.48424202       2.24664519        3       1.00000000      -0.00444412      -0.08550952       0.27434961
Ni       7.73789495       7.49483856       2.25785450        4       1.00000000      -0.09659421      -0.10741378       0.33381633
Pt      10.34826276       7.44715108       2.19838988        3       0.00000000      -0.05536771      -0.13711868       0.12283915
Ni      13.07355261       7.44329126       2.23266205        3       1.00000000       0.08565714      -0.14771660       0.25848487
Ni       0.04138509       1.50581824       4.41261251        6       1.00000000       0.07831107      -0.10390576      -0.22996233
Pt       2.61060468       1.52695672       4.35652534        6       0.00000000       0.01535649       0.05087804      -0.08112698
Ni       5.17900900       1.53475689       4.41535415        6       1.00000000      -0.05935369       0.11734297      -0.29193760
Pt       7.87990290       1.54837707       4.39378295        6       0.00000000       0.07913165      -0.03706427      -0.28011966
Pt       1.30461048       3.74206867       4.47105510        7       0.00000000      -0.01581591       0.01775263      -0.07236198
Ni       3.90853879       3.78270780       4.39381908        6       1.00000000       0.04036677       0.08235229      -0.25831512
Pt       6.48838905       3.83305682       4.32004883        5       0.00000000      -0.02136852       0.12929972      -0.16210634
Ni       9.11161148       3.76533067       4.38769457        6       1.00000000      -0.08172238       0.06186453      -0.30020145
Ni       2.63837733       5.97067881       4.40336121        6       1.00000000       0.13152381      -0.12910738      -0.22913594
Ni       5.19617669       5.99530883       4.34982288        5       1.00000000      -0.00629273      -0.07095004      -0.32179379
Ni       7.78240079       5.99779366       4.36292713        6       1.00000000      -0.09589152       0.01446091      -0.37289678
Pt      10.37755569       5.91933543       4.42655379        6       0.00000000      -0.05959002      -0.03215978      -0.16104155
Pt       3.98561091       8.19656814       4.33938020        5       0.00000000       0.13592411      -0.08367362      -0.12371119
Ni       6.49514477       8.25496801       4.35264581        6       1.00000000      -0.03792023      -0.06136098      -0.33251752
Pt       9.01988299       8.25153115       4.33377024        5       0.00000000      -0.06334544      -0.12865843      -0.28373577
Pt      11.74890217       8.20257254       4.38180046        6       0.00000000       0.05707865      -0.13964077      -0.31451476
Pt       0.02585652       0.03746597       6.63954440        9       0.00000000       0.04626113       0.09329003      -0.02435862
Pt       2.60602788       0.05254008       6.60554237        9       0.00000000      -0.01895149      -0.14226013       0.35779855
Pt       5.20260160      -0.02179937       6.54759286        8       0.00000000      -0.04845951       0.12134608       0.68723543
Pt       7.83624116      -0.04920755       6.59898650        9       0.00000000       0.06224007       0.15702685       0.75749488
Ni       1.33920484       2.31038306       6.62237740        9       1.00000000       0.00850167      -0.00879202      -0.29152686
Ni       3.86429970       2.28046940       6.54500358        8       1.00000000       0.00916797       0.02790355      -0.14988671
Pt       6.50225253       2.28020927       6.56284111        9       0.00000000      -0.04705588      -0.06571425       0.49773389
Pt       9.22231981       2.35751106       6.55629343        9       0.00000000       0.08406913       0.03205157       0.39817580
Ni       2.55133091       4.48123838       6.61543025        9       1.00000000       0.01399335       0.02626926      -0.39381224
Pt       5.12727793       4.46488622       6.62885320        9       0.00000000      -0.18066772       0.09286005      -0.26488886
Ni       7.83028568       4.49739818       6.54155386        8       1.00000000       0.03079873       0.04687357      -0.21072521
Ni      10.48533615       4.49602992       6.63374073        9       1.00000000       0.05627907       0.04464069      -0.26817650
Pt       3.81623883       6.70374036       6.63167995        9       0.00000000       0.01526112      -0.09163288      -0.19382727
Pt       6.51090486       6.72720779       6.50601535        8       0.00000000      -0.08490078       0.03491855       0.08302598
Pt       9.15357080       6.66046088       6.67282164       10       0.00000000      -0.14616546       0.09046749       0.00633766
Ni      11.72377617       6.68557870       6.53064865        8       1.00000000       0.03456001      -0.09526996       0.09816074
