64
Lattice="10.781472767765894 -0.0043375259663820855 -0.00017004094250577527 5.386979976206483 9.33985592303407 0.004803285743551613 -0.00013883784817369369 0.004608739297339464 9.443402745185177" Properties=species:S:1:pos:R:3:tags:I:1:initial_magmoms:R:1:forces:R:3 unique_id=b64c768596ea499380d4ecd3e03e04ed stress="-0.0001318269815097084 -8.167331747925895e-08 -4.0858026400679847e-07 -8.167331747925895e-08 -0.00013148418771322806 -1.3094480367284785e-06 -4.0858026400679847e-07 -1.3094480367284785e-06 -7.142032892724914e-05" energy=-432.2491729618474 pbc="T T T"
Pt      -0.00500032      -0.00513294       0.09553779        4       0.00000000      -0.03292808      -0.02782353       0.14113892
Pt       2.70177716      -0.00179740       0.09404756        4       0.00000000       0.03830466       0.00001497       0.12897130
Pt       5.40688571      -0.02845287       0.09487828        4       0.00000000       0.03927366      -0.05934015       0.08893262
Pt       8.06817898      -0.03288570       0.09942499        4       0.00000000      -0.04816564      -0.06990147       0.12847326
Pt       1.34891962       2.34622938       0.09449392        4       0.00000000       0.02964013       0.07257365       0.14550811
Pt       4.05148682       2.34144213       0.11621251        4       0.00000000       0.02023850       0.00226239       0.11854831
Pt       6.72733120       2.33394167       0.11325475        4       0.00000000      -0.02229495       0.00550182       0.13029352
Pt       9.43307853       2.33630695       0.09174449        4       0.00000000      -0.00682116       0.02457960       0.13180399
Pt       2.68429843       4.70271729       0.11400766        4       0.00000000      -0.03193693       0.07511242       0.09582971
Pt       5.37285653       4.66607896       0.13979873        4       0.00000000      -0.07309343      -0.01054809       0.18361605
Pt       8.08892863       4.67227843       0.09540743        4       0.00000000       0.02071886       0.02907743       0.12079301
Pt      10.79832521       4.69650884       0.02479449        4       0.00000000       0.05432335       0.07123986      -0.02564533
Pt       4.00869441       6.99238146       0.11773205        4       0.00000000      -0.05352582      -0.04208190       0.11865462
Pt       6.73289472       6.99992930       0.10214512        4       0.00000000      -0.00273852      -0.02608237       0.12913940
Pt       9.46569072       6.99857654       0.09061706        4       0.00000000       0.07778622      -0.02074299       0.08978428
Ni      12.12636896       6.99638447       0.08480327        4       1.00000000       0.00378318      -0.02809286       0.34006130
Pt       1.35278140       0.78373818       2.38183137        3       0.00000000       0.03062898       0.05015678       0.08058909
Pt       4.06002269       0.80942074       2.38599217        3       0.00000000       0.02536668       0.05787505       0.11191430
Pt       6.72287076       0.80127538       2.38476436        3       0.00000000      -0.01464923       0.02972398       0.12420889
Pt       9.42620091       0.77044267       2.38017086        3       0.00000000      -0.02517157      -0.01062967       0.08456538
Pt       2.75373537       3.15403324       2.38354708        3       0.00000000       0.14527184       0.14205077       0.08426695
Ni       5.38123696       3.12714071       2.37043729        3       1.00000000      -0.04350843       0.06277360       0.05678624
Pt       8.04647193       3.11620460       2.38425371        3       0.00000000      -0.05789791       0.02641615       0.10982491
Pt      10.78869362       3.12241643       2.38532504        3       0.00000000       0.06172782       0.07214924       0.09715925
Ni       4.04696220       5.43582967       2.36532180        3       1.00000000       0.01584160      -0.06317319       0.02387651
Pt       6.67626643       5.41249307       2.38795023        3       0.00000000      -0.15208860      -0.09388255       0.10719395
Pt       9.43227664       5.44198044       2.38772454        3       0.00000000      -0.00593319      -0.03247100       0.12839337
Pt      12.15835808       5.45261908       2.36292291        3       0.00000000       0.01833900      -0.02667553       0.05881529
Pt       5.36755603       7.74847603       2.38547129        3       0.00000000      -0.05600083      -0.08546579       0.07831739
Pt       8.08239381       7.77915694       2.38489111        3       0.00000000       0.00890156      -0.04184458       0.09385821
Pt      10.79678915       7.77641268       2.35842975        3       0.00000000       0.03810783      -0.03216570       0.06493843
Pt      13.47637479       7.74720430       2.36174651        3       0.00000000      -0.00786560      -0.05062122       0.05417868
Pt      -0.00065988       1.56216866       4.69950062        2       0.00000000       0.00332140       0.00421833      -0.13601313
Pt       2.69676129       1.56733688       4.69346174        2       0.00000000       0.00264401       0.05696134      -0.12355342
Pt       5.38831349       1.57147470       4.67350587        2       0.00000000      -0.00757888       0.06324937      -0.16103728
Pt       8.08461414       1.56003018       4.70092136        2       0.00000000       0.00007909       0.00572069      -0.07531302
Pt       1.33975719       3.90263394       4.72506371        2       0.00000000       0.02108289       0.02632225      -0.07262626
Pt       4.04816361       3.90043903       4.64883505        2       0.00000000       0.04235020       0.05798586      -0.27140355
Pt       6.72703517       3.88775718       4.67523495        2       0.00000000      -0.03007225      -0.02776361      -0.13797098
Pt       9.44223560       3.89919074       4.72597690        2       0.00000000       0.01189411       0.02987420      -0.06499291
Pt       2.69806057       6.22184398       4.67322394        2       0.00000000       0.02640869      -0.02903042      -0.20917236
Pt       5.37648213       6.21944256       4.67436794        2       0.00000000      -0.07176994      -0.02956382      -0.14881429
Pt       8.08113829       6.22321967       4.69864638        2       0.00000000      -0.02392293      -0.01828670      -0.15450298
Pt      10.78770511       6.21483011       4.72450794        2       0.00000000       0.06013181       0.00732165      -0.06898211
Pt       4.03933780       8.56107765       4.70288317        2       0.00000000      -0.02547453      -0.01396442      -0.10532468
Pt       6.73326584       8.56004107       4.69715254        2       0.00000000      -0.00034809      -0.01556929      -0.14505112
Pt       9.43395437       8.56191408       4.70220684        2       0.00000000       0.03623525      -0.00967020      -0.14570336
Pt      12.12422617       8.55247233       4.69567196        2       0.00000000      -0.00393930      -0.05475625      -0.13555908
Pt      -0.00011833       0.00931475       6.99497105        1       0.00000000      -0.00713567       0.01760041      -0.07121005
Pt       2.69458950       0.00224998       6.99245656        1       0.00000000       0.00373003       0.00096622      -0.09495695
Pt       5.39314778      -0.00712604       6.99876254        1       0.00000000       0.00750420      -0.03587307      -0.10777424
Pt       8.08299553      -0.00379847       6.99830855        1       0.00000000      -0.01502512      -0.02403180      -0.06344094
Pt       1.32949774       2.36702195       6.99341110        1       0.00000000      -0.02864863       0.07003395      -0.05663700
Pt       4.03942941       2.34014335       6.99761959        1       0.00000000      -0.01726972       0.03898119      -0.08550506
Pt       6.73994044       2.33954014       6.99637071        1       0.00000000       0.00900401       0.02590356      -0.06790342
Pt       9.44945976       2.36343715       6.99343463        1       0.00000000       0.03624219       0.05495128      -0.06359542
Pt       2.65954623       4.67883026       7.00216428        1       0.00000000      -0.05299782       0.01898705      -0.06064455
Pt       5.38683061       4.67127871       6.99927401        1       0.00000000      -0.02279188      -0.00848867      -0.02955682
Pt       8.11803934       4.67149098       6.99625488        1       0.00000000       0.05204384       0.00050855      -0.07243986
Ni      10.78109547       4.67283946       7.00604442        1       1.00000000       0.01348028       0.01389092      -0.31559218
Pt       4.03078705       7.00223762       7.00396627        1       0.00000000      -0.04354624      -0.04458686      -0.05776768
Pt       6.74119676       7.00374829       6.99934038        1       0.00000000       0.01170849      -0.03372529      -0.08814673
Pt       9.45100336       6.97552571       6.99788212        1       0.00000000       0.04288995      -0.07654646      -0.09446551
Pt      12.10991600       6.97651771       7.07097480        1       0.00000000      -0.02386345      -0.07158503       0.06086703
