64
Lattice="10.362011416971226 -0.04099267519430311 0.044458967053630186 5.1455050103982645 8.949183571048167 -0.007170875194561921 0.03630059459086735 -0.02771892402827017 8.898799353415164" Properties=species:S:1:pos:R:3:tags:I:1:initial_magmoms:R:1:forces:R:3 unique_id=ccd86380af0042d3a9748f648b9c07f7 stress="0.0001560080737362038 2.7029986031886947e-06 -1.1410866010037577e-05 2.7029986031886947e-06 0.0001488813831904759 -1.9202162080937617e-05 -1.1410866010037577e-05 -1.9202162080937617e-05 0.00013058124711094743" energy=-402.08013883341084 pbc="T T T"
Ni       0.06010537       0.00106825       0.17885168        4       1.00000000       0.10033829       0.02917357       0.12054332
Ni       2.54180206       0.00502732       0.23304367        4       1.00000000      -0.04747770       0.05150354       0.23659748
Pt       5.09811720      -0.06516037       0.14461860        4       0.00000000      -0.03743191       0.05525864      -0.19522396
Pt       7.82227892      -0.15668067       0.20494848        4       0.00000000       0.02947295      -0.07957290      -0.01934436
Ni       1.29739202       2.24564891       0.11964762        4       1.00000000       0.01325401       0.04876559       0.19137296
Pt       3.78184564       2.29016068       0.11496135        4       0.00000000       0.01362870       0.04101831      -0.13751663
Pt       6.44397251       2.28286345       0.18964055        4       0.00000000       0.00417896       0.09162740      -0.04751735
Pt       9.16854390       2.23671141       0.19246700        4       0.00000000       0.02803307       0.03857867      -0.05245284
Ni       2.57578682       4.49363738       0.06291540        4       1.00000000       0.07114866       0.03128967      -0.04831386
Ni       5.11454755       4.50039137       0.12907676        4       1.00000000      -0.03364706       0.06051923       0.13232909
Pt       7.80194463       4.52236926       0.12694503        4       0.00000000       0.05965182       0.02161719      -0.13990233
Ni      10.40248239       4.46157952       0.11326109        4       1.00000000       0.07698462      -0.00513445       0.07069947
Ni       3.85141801       6.64003011       0.20082685        4       1.00000000       0.00011429      -0.12024792       0.23365717
Pt       6.41132108       6.74424913       0.19248570        4       0.00000000      -0.00851197       0.01342329      -0.12419443
Ni       9.04049194       6.66274329       0.19804053        4       1.00000000      -0.07721532      -0.00734675       0.16133215
Ni      11.64341913       6.61173465       0.10575805        4       1.00000000       0.04667813      -0.06598018      -0.02374700
Ni       1.34883404       0.72871566       2.23008509        3       1.00000000       0.04124129       0.00416525       0.09004211
Ni       3.82945991       0.75909821       2.25146238        3       1.00000000      -0.01422213       0.02945771      -0.00853074
Pt       6.42455036       0.78029104       2.31809492        3       0.00000000      -0.02460930       0.03522182       0.08802043
Pt       9.20311787       0.69617009       2.30228976        3       0.00000000       0.02623830      -0.04939500       0.12169128
Ni       2.59307928       2.96196208       2.24656297        3       1.00000000       0.02600124      -0.01360621       0.01594492
Ni       5.10845293       3.03413462       2.28767402        3       1.00000000      -0.14353289       0.06701826       0.00623007
Ni       7.79711874       3.03051383       2.28436046        3       1.00000000       0.03217581       0.04714144      -0.02098348
Ni      10.39752826       2.95069588       2.31315729        3       1.00000000       0.06996087      -0.02712578       0.09445714
Ni       3.91892838       5.19906228       2.24617854        3       1.00000000       0.06593775      -0.05402157       0.08988349
Ni       6.44041264       5.22201090       2.27357980        3       1.00000000      -0.03106851       0.04890915      -0.07629864
Ni       9.01471771       5.14332247       2.28990279        3       1.00000000      -0.02415535      -0.06545738       0.06032448
Pt      11.71597711       5.11393144       2.20100460        3       0.00000000       0.04934034      -0.02195384       0.02510041
Ni       5.18790722       7.39811273       2.25851571        3       1.00000000       0.02468187      -0.06964061       0.06083975
Ni       7.68838671       7.43562267       2.26250538        3       1.00000000      -0.07470167      -0.04340428       0.04396065
Pt      10.28976158       7.34576628       2.21524351        3       0.00000000       0.04952173      -0.06378297       0.08115525
Ni      12.98284569       7.33766884       2.27291704        3       1.00000000       0.09340927      -0.12435057       0.09979154
Ni       0.05449751       1.48436209       4.39404611        2       1.00000000       0.05561387      -0.06059125      -0.03191737
Pt       2.60230067       1.49654015       4.36008867        2       0.00000000      -0.00046665      -0.05210629       0.01570161
Ni       5.14968103       1.51988459       4.41845023        2       1.00000000      -0.04181056       0.09270317      -0.09638900
Pt       7.82637498       1.52941258       4.41231405        2       0.00000000       0.01767488      -0.02813074      -0.07136084
Pt       1.31205873       3.70211934       4.45273117        2       0.00000000      -0.02306778      -0.03163310      -0.02706229
Ni       3.89578749       3.74978668       4.41932580        2       1.00000000      -0.04015764       0.05951939      -0.11708627
Pt       6.42901293       3.79643268       4.34707006        2       0.00000000      -0.02697946       0.00972368      -0.11240975
Ni       9.05421392       3.71724935       4.39158819        2       1.00000000      -0.04215974       0.01057968      -0.18981302
Ni       2.62997402       5.89523376       4.39272017        2       1.00000000       0.06348800      -0.09029589      -0.09552299
Ni       5.16149139       5.91631284       4.35215416        2       1.00000000      -0.02071709      -0.03647994      -0.13726193
Ni       7.73298116       5.92245555       4.36506676        2       1.00000000      -0.08591602       0.02496478      -0.19078725
Pt      10.31738738       5.84651858       4.44862453        2       0.00000000      -0.05721870       0.00137127      -0.01050838
Pt       3.96700030       8.09750163       4.34995301        2       0.00000000       0.02551023      -0.03373573       0.07168945
Ni       6.45756315       8.15383530       4.35614652        2       1.00000000      -0.01258710      -0.03702429      -0.10242126
Pt       8.95791313       8.15338624       4.35678712        2       0.00000000      -0.01342961      -0.05677142       0.00107417
Pt      11.67378223       8.09611240       4.40160891        2       0.00000000       0.04111965      -0.07997184      -0.11749131
Pt       0.04576325       0.01905816       6.62257822        1       0.00000000      -0.02832619       0.01788573       0.09516589
Pt       2.60812912       0.05030406       6.68505270        1       0.00000000       0.00875248       0.03656930       0.22251114
Pt       5.18828954      -0.01758863       6.53458542        1       0.00000000      -0.03205187       0.06555988      -0.02564579
Pt       7.79741174      -0.06962495       6.60054454        1       0.00000000      -0.00379268       0.04704615       0.12228320
Ni       1.34840811       2.28377362       6.60293641        1       1.00000000       0.04260579       0.02743311       0.02983986
Ni       3.86347407       2.29565616       6.51724642        1       1.00000000      -0.06403381       0.11383221      -0.16850009
Pt       6.42540441       2.31022138       6.55932818        1       0.00000000      -0.04361460       0.06348546       0.07038898
Pt       9.16621095       2.32454030       6.55506108        1       0.00000000       0.08010848       0.12080068       0.00842351
Ni       2.57969168       4.41285397       6.58949654        1       1.00000000      -0.02025398      -0.07619147      -0.10071204
Ni       5.13406264       4.42414600       6.58445091        1       1.00000000      -0.14810879      -0.00161673      -0.09118581
Ni       7.78130710       4.44140545       6.52113964        1       1.00000000      -0.00228973       0.05732512      -0.21953942
Ni      10.43910245       4.44128547       6.64342328        1       1.00000000       0.14049415       0.05637638       0.01125052
Pt       3.82191416       6.55518427       6.62679049        1       0.00000000      -0.09161467      -0.04363341       0.19504767
Pt       6.46048678       6.59850069       6.49364464        1       0.00000000      -0.05470922      -0.01287930      -0.13997452
Pt       9.09661043       6.57938456       6.69009300        1       0.00000000      -0.02773135       0.00754380       0.17400544
Ni      11.65879455       6.58836465       6.63134564        1       1.00000000       0.00025153      -0.07532670      -0.10173961
