64
Lattice="10.522811264261723 0.05018540942977315 -0.0017195363168797406 5.304867471596364 9.2043578562068 0.010470491282385459 0.0 0.0 21.743205966029258" Properties=species:S:1:pos:R:3:tags:I:1:initial_magmoms:R:1:forces:R:3 unique_id=f55c17052708464b8a452b1afcdcc7cc stress="0.007277127963570232 0.00014034156128601272 -0.0001797710277380986 0.00014034156128601272 0.007239449872986829 6.794726460101855e-05 -0.0001797710277380986 6.794726460101855e-05 -0.0013515505768240833" energy=-390.51288783858257 pbc="T T T"
Ni      -0.01217752      -0.02257091       0.06971601        1       1.00000000      -0.07295113      -0.02294448       0.21032905
Ni       2.61690536       0.01630317       0.01192831        0       1.00000000      -0.00016926      -0.09323854       0.33854324
Pt       5.25790057       0.04518271       0.06421771        1       0.00000000       0.24812543      -0.05292828      -0.69506563
Ni       7.92022562       0.00975876       0.10027974        1       1.00000000      -0.01630247      -0.10021758       0.17515757
Pt       1.39510180       2.24496314       0.07777715        1       0.00000000      -0.23961204       0.02385766      -0.44067431
Ni       3.94937404       2.31988501       0.01117025        0       1.00000000       0.09172301      -0.00001794       0.26252212
Pt       6.54818678       2.29780401       0.10784480        1       0.00000000      -0.09806054      -0.07396900      -0.49792826
Pt       9.25216955       2.25953659       0.08362593        1       0.00000000       0.23941843       0.02862313      -0.41319965
Ni       2.66291311       4.59641486       0.08186924        1       1.00000000      -0.04232262       0.04090710       0.13026174
Pt       5.18167656       4.61497479       0.00000000        0       0.00000000      -0.04671575       0.02910306       0.27905637
Pt       7.90499951       4.64112765       0.08207343        1       0.00000000       0.01503877       0.08003828      -0.61171088
Pt      10.60229735       4.63679419       0.15725739        2       0.00000000       0.08595378      -0.09535914      -0.34308255
Ni       3.98095264       6.93327536       0.08783435        1       1.00000000       0.05523904       0.15669868       0.35628128
Pt       6.53704439       7.02001576       0.01541667        0       0.00000000      -0.17325398       0.09426023       0.19317526
Pt       9.20927418       6.96657156       0.11677735        1       0.00000000      -0.08199722      -0.03363508      -0.47434182
Pt      12.00084956       6.93236039       0.11190346        1       0.00000000       0.16130905      -0.03681932      -0.27418894
Pt       1.28492221       0.69042907       2.26002408        4       0.00000000      -0.05012207      -0.15103223       0.21261463
Pt       3.94655474       0.81037995       2.18685634        3       0.00000000      -0.15634731       0.05690335       0.04887322
Ni       6.59298230       0.78262658       2.22116481        3       1.00000000       0.07374176      -0.05857430       0.35497841
Pt       9.19674722       0.69301018       2.25191766        4       0.00000000      -0.03030156      -0.15234915       0.24972638
Pt       2.67349086       3.13271226       2.20972251        3       0.00000000       0.11365725       0.13137327       0.15149585
Ni       5.26273555       3.09894625       2.23303717        3       1.00000000       0.00113467       0.12616546       0.21568427
Pt       7.89691001       3.08939649       2.25886591        4       0.00000000      -0.03612527       0.01314244       0.25938339
Ni      10.54596965       3.11466375       2.25429155        4       1.00000000       0.01546056      -0.07732948       0.43566091
Pt       3.92304395       5.46241364       2.29759076        4       0.00000000      -0.08519636       0.14122109       0.19715152
Pt       6.56787312       5.46884626       2.25573851        4       0.00000000      -0.08449673       0.09431977       0.16704416
Ni       9.24676745       5.40049803       2.24372979        3       1.00000000      -0.02582459      -0.00778829       0.40475312
Ni      11.87055226       5.41502813       2.25414730        4       1.00000000       0.01311688      -0.00414992       0.36600980
Ni       5.27717718       7.67702367       2.27161042        4       1.00000000      -0.06461982      -0.04590285       0.29949919
Ni       7.90452133       7.69178414       2.24702692        3       1.00000000       0.00169934      -0.02375878       0.24673029
Pt      10.59345546       7.67218886       2.25277278        4       0.00000000       0.04045247      -0.04336725       0.25253177
Ni      13.22321220       7.71543661       2.25019080        4       1.00000000       0.07447072       0.00820888       0.27867004
Ni       0.01851772       1.48482943       4.45676433        6       1.00000000      -0.01865395      -0.11261673      -0.34812123
Pt       2.60006639       1.52857181       4.48775725        6       0.00000000       0.04267568      -0.03721264      -0.11485891
Pt       5.24096798       1.60977475       4.40709801        5       0.00000000      -0.10372936       0.01415698      -0.33241375
Pt       7.94495568       1.52289511       4.43504080        5       0.00000000       0.09090726      -0.03506795      -0.18712719
Pt       1.39309776       3.85587031       4.40387384        5       0.00000000       0.10458912       0.03464221      -0.28159488
Ni       3.95594362       3.88675479       4.47954638        6       1.00000000      -0.06749058       0.05021992      -0.18375955
Pt       6.48239647       3.92440037       4.44969929        5       0.00000000      -0.10686775       0.17178894      -0.32545310
Pt       9.25007074       3.85953158       4.38815823        5       0.00000000      -0.03286796      -0.02307803      -0.37269299
Ni       2.72519516       6.13560870       4.46032644        6       1.00000000       0.12404108       0.01523262      -0.20616889
Ni       5.23999132       6.19559717       4.48151016        6       1.00000000      -0.07778870       0.12738988      -0.23328316
Pt       7.82551995       6.22779148       4.43510367        5       0.00000000      -0.21103783       0.05187131      -0.31155655
Pt      10.58301786       6.15824225       4.40399747        5       0.00000000       0.01382329       0.07737549      -0.29256050
Ni       4.04807743       8.39259483       4.45473338        6       1.00000000       0.14215300      -0.12424893      -0.28169600
Ni       6.55109190       8.44476079       4.47265686        6       1.00000000      -0.18094449      -0.00160393      -0.21860451
Pt       9.18131176       8.46746707       4.44083722        5       0.00000000      -0.01605078       0.06628091      -0.32380098
Pt      11.97444866       8.44506644       4.39877780        5       0.00000000       0.15311146      -0.07855337      -0.25517925
Pt       0.08334932      -0.05008672       6.67698958        8       0.00000000       0.00953208       0.02911258      -0.31669519
Ni       2.62255089       0.01875994       6.70675900        8       1.00000000      -0.00728930      -0.02680396      -0.32447699
Pt       5.18734562       0.07772918       6.65963632        8       0.00000000       0.07442130      -0.04218118       0.44452855
Pt       7.91262212       0.02869247       6.74320597        8       0.00000000      -0.00481983      -0.03699388       0.03098401
Pt       1.38485585       2.26534298       6.66556627        8       0.00000000      -0.17284459       0.00378602       0.52790064
Ni       3.95293111       2.32666229       6.70647849        8       1.00000000       0.03087968       0.00091930      -0.38071730
Pt       6.50905397       2.37610446       6.67866870        8       0.00000000       0.05121862       0.00285087       0.35606009
Pt       9.23578933       2.33138717       6.65254208        8       0.00000000       0.11957018       0.03291030       0.60850372
Pt       2.75611966       4.56460215       6.71454398        8       0.00000000       0.03450576       0.06805906      -0.18442573
Ni       5.27092723       4.62593723       6.63274610        7       1.00000000      -0.01456450       0.03624994      -0.13343559
Pt       7.83304675       4.68161499       6.66455498        8       0.00000000       0.04438453      -0.00318605       0.53747547
Pt      10.55476304       4.64754398       6.69623452        8       0.00000000      -0.05620108      -0.00086171       0.44767051
Pt       4.06532008       6.86844393       6.66984749        8       0.00000000       0.02621565      -0.02638039      -0.32373676
Ni       6.59691743       6.93456246       6.63736166        7       1.00000000      -0.00776991      -0.01334218      -0.22161527
Pt       9.15515499       6.98269227       6.68756184        8       0.00000000       0.04338188      -0.09287982       0.45947087
Pt      11.90003686       6.93531773       6.66619651        8       0.00000000       0.04738757      -0.07927636       0.40543887
