64
Lattice="10.051646778420151 0.008521297341508369 0.028265116459740426 5.0332030491810205 8.725978067474008 -0.013283572326307638 0.023078370948901944 -0.02584817577355849 8.602279832478793" Properties=species:S:1:pos:R:3:tags:I:1:initial_magmoms:R:1:forces:R:3 unique_id=9048b658abf04d4aa0a96c238ff7fa86 stress="-0.0003160001527015843 1.764192521381465e-07 -1.0801490069125826e-05 1.764192521381465e-07 -0.00031631965237759185 -1.628884405773258e-06 -1.0801490069125826e-05 -1.628884405773258e-06 -0.0002790445068353367" energy=-387.0101574005033 pbc="T T T"
Ni       0.00768709       0.00439093       0.11877260        4       1.00000000       0.01705574       0.01086358       0.05721132
Ni       2.51430166       0.03130180       0.08401132        4       1.00000000      -0.01441765       0.06482930       0.01384245
Ni       5.03437978      -0.00242076       0.11624614        4       1.00000000       0.03322294       0.00226115       0.05130737
Ni       7.54725398       0.01879613       0.10218995        4       1.00000000       0.06981513      -0.00187532      -0.02394060
Ni       1.26484723       2.16143030       0.20167141        4       1.00000000       0.02845525      -0.04836023       0.11230026
Ni       3.74663976       2.13269105       0.09094022        4       1.00000000      -0.01810613      -0.02715630      -0.04859622
Ni       6.32216761       2.12849388       0.08672588        4       1.00000000       0.06272587      -0.07739685      -0.04903730
Ni       8.81968822       2.16879523       0.24461683        4       1.00000000       0.12108552      -0.02665291       0.20248539
Ni       2.49178859       4.34713993       0.19985374        4       1.00000000       0.06593613      -0.04113738       0.14543930
Pt       5.03626884       4.37513114       0.02025220        4       0.00000000       0.02733978      -0.01572808      -0.24115475
Ni       7.56768500       4.33793362       0.06610760        4       1.00000000       0.05566741      -0.09558797      -0.07580571
Ni      10.11821805       4.32272094       0.21576107        4       1.00000000       0.18021826      -0.15307731       0.14892299
Ni       3.78052466       6.56678427       0.15772129        4       1.00000000       0.02762567      -0.00152105       0.10798995
Ni       6.29403274       6.57843290       0.05551098        4       1.00000000      -0.00835170       0.03919768      -0.06044068
Ni       8.82742817       6.56354721       0.05222069        4       1.00000000       0.04463300       0.01549050      -0.06101625
Ni      11.30254882       6.54174555       0.10552098        4       1.00000000       0.01682699      -0.06249350       0.03241393
Ni       1.23266705       0.75868849       2.17732862        3       1.00000000      -0.02422963      -0.01427903       0.07667246
Ni       3.76344802       0.74167374       2.14197566        3       1.00000000      -0.03635135       0.02902302      -0.02907682
Ni       6.29517970       0.72191757       2.17730285        3       1.00000000      -0.02706393      -0.00775403       0.00891880
Ni       8.82584978       0.74508801       2.19993290        3       1.00000000       0.00247462      -0.03522215       0.09278585
Ni       2.49084555       2.89001851       2.17631600        3       1.00000000       0.01907034      -0.02333601       0.05244379
Pt       5.02723175       2.87514548       2.21100366        3       0.00000000      -0.00869246       0.01034806      -0.12797230
Ni       7.53719817       2.84307229       2.14749798        3       1.00000000      -0.02219542      -0.03441103       0.05033885
Ni      10.09847269       2.85802519       2.18870278        3       1.00000000       0.01829872      -0.01096874       0.18764518
Ni       3.77566878       5.08268717       2.19890410        3       1.00000000       0.04918831      -0.01133741       0.00845235
Ni       6.25531911       5.09715885       2.19988373        3       1.00000000      -0.05875020      -0.00121948      -0.05651693
Pt       8.79425467       5.06126954       2.10660300        3       0.00000000      -0.05187677      -0.01258770       0.05115603
Ni      11.36700851       5.04954421       2.17761825        3       1.00000000       0.04447234      -0.01798010       0.13932713
Ni       5.02254131       7.28151438       2.17001461        3       1.00000000      -0.04184115       0.02892462       0.04914401
Pt       7.49041461       7.32101366       2.13120981        3       0.00000000      -0.02830113      -0.01599265      -0.02974372
Ni      10.07196621       7.31807911       2.11795240        3       1.00000000      -0.05920337       0.02580468      -0.00829910
Pt      12.57424764       7.28947237       2.19719460        3       0.00000000      -0.05023147      -0.01194969       0.04154546
Ni       0.02493355       1.37903432       4.21829544        2       1.00000000      -0.00290020      -0.00359819       0.04580040
Ni       2.52466400       1.48224682       4.21567510        2       1.00000000      -0.03402182       0.05020690      -0.07904256
Ni       5.06722531       1.47472290       4.31648915        2       1.00000000       0.01449662       0.04031356      -0.08537052
Ni       7.50299409       1.39115061       4.25007617        2       1.00000000       0.00698269       0.00787551      -0.06506665
Ni       1.31331089       3.58272764       4.21047552        2       1.00000000       0.00494948      -0.00124847       0.06330126
Ni       3.79073034       3.61583306       4.26087599        2       1.00000000      -0.03910090      -0.00032334      -0.04953630
Ni       6.26317595       3.62442937       4.29369393        2       1.00000000       0.02925581      -0.01527331      -0.17916125
Pt       8.76185654       3.55322680       4.25771923        2       0.00000000       0.02906421      -0.03263530       0.10193613
Ni       2.59723811       5.80280763       4.23551327        2       1.00000000       0.10336840      -0.01209650       0.05028354
Ni       5.05636667       5.80702494       4.23135179        2       1.00000000      -0.00728735       0.06256254      -0.09998716
Ni       7.48642825       5.81304013       4.30828681        2       1.00000000       0.01994954       0.00581448      -0.10814956
Pt      10.14836374       5.84919428       4.26054646        2       0.00000000       0.02805524      -0.01569410       0.00170012
Ni       3.80458093       8.02364574       4.24408091        2       1.00000000       0.00032317       0.03131686       0.00513040
Ni       6.24453960       7.99590301       4.29018613        2       1.00000000      -0.00304660       0.02475348      -0.05040678
Pt       8.80136824       8.07813380       4.30968317        2       0.00000000       0.01070148       0.04276454      -0.05534383
Ni      11.36596006       8.05269351       4.31166748        2       1.00000000      -0.03371726       0.02419652      -0.04091359
Ni       0.04658188      -0.04654179       6.34287758        1       1.00000000       0.03644097       0.01270247      -0.06106240
Ni       2.53586512      -0.05919383       6.39899250        1       1.00000000      -0.01730872      -0.01611341      -0.01363445
Ni       5.05603992       0.01674820       6.40165531        1       1.00000000      -0.03860166       0.04524335       0.03057198
Ni       7.47936001      -0.01775666       6.35922509        1       1.00000000      -0.09806526      -0.00290844      -0.10295002
Pt       1.31765313       2.06806504       6.37598065        1       0.00000000      -0.02903640       0.01584377       0.06256257
Ni       3.85050160       2.12185775       6.33781655        1       1.00000000      -0.03803758      -0.03438525      -0.11697277
Ni       6.23391140       2.16785991       6.34561812        1       1.00000000      -0.06881667       0.05229929      -0.10188529
Pt       8.70335836       2.08370451       6.46429248        1       0.00000000      -0.08622345      -0.03939119       0.22972846
Pt       2.59882336       4.34101489       6.36977498        1       0.00000000      -0.01647168       0.00380492       0.12471005
Ni       5.10113337       4.33477746       6.22396427        1       1.00000000      -0.02893766       0.05622569      -0.26422742
Ni       7.47079522       4.38973248       6.35512413        1       1.00000000      -0.09069442       0.02307065      -0.11518448
Pt      10.00678637       4.42455860       6.48510109        1       0.00000000      -0.08490140       0.03932558       0.21636880
Pt       3.83886498       6.60207643       6.35369866        1       0.00000000       0.02353744       0.03772017       0.08829147
Ni       6.34400354       6.53956110       6.32867654        1       1.00000000       0.01332702       0.02627340      -0.12700036
Ni       8.77062952       6.58543910       6.37892853        1       1.00000000      -0.03092805       0.04854270      -0.10338539
Ni      11.31727116       6.62254041       6.38723187        1       1.00000000      -0.00685466       0.04409345      -0.01984688
