64
Lattice="10.191857396827553 -0.027745183812034238 0.024552232230431337 5.071900664399884 8.800969081749992 0.046673922821433816 0.0 0.0 21.517500864079857" Properties=species:S:1:pos:R:3:tags:I:1:initial_magmoms:R:1:forces:R:3 unique_id=e73ed858487d4dbfa9be6da316b235e3 stress="0.0015366036897877054 -0.00011055312790436564 0.00036833535083162576 -0.00011055312790436564 0.0013331829798290725 0.00045921321955968487 0.00036833535083162576 0.00045921321955968487 -0.005182306985622464" energy=-369.6904659600889 pbc="T T T"
Ni       0.04667221       0.03307773       0.11244357        1       1.00000000       0.11839079       0.07645249      -0.83820675
Ni       2.53446149      -0.03636713       0.18779231        2       1.00000000       0.03628056      -0.01862601      -0.42020241
Ni       5.08073186      -0.05250913       0.03718331        0       1.00000000      -0.09960685       0.06339288       0.02603688
Ni       7.65993341      -0.04683451       0.02221293        0       1.00000000       0.05509647       0.01291396      -0.11932228
Ni       1.22562124       2.22758153       0.08683417        1       1.00000000       0.06120674       0.02157427       0.25032610
Pt       3.75363649       2.21264259       0.19570914        2       0.00000000       0.06665074       0.03972240      -0.96110884
Pt       6.43194514       2.25741393       0.00000000        0       0.00000000      -0.06037512       0.20511207      -0.46795709
Ni       8.97151120       2.23887749       0.05298601        1       1.00000000      -0.03137272       0.10836363       0.06917349
Ni       2.50059637       4.43793889       0.08902280        1       1.00000000      -0.00960908       0.01592643       0.25062369
Ni       5.06684080       4.44818005       0.06326715        1       1.00000000      -0.08403831      -0.07476013       0.05787376
Ni       7.70260929       4.42477921       0.06609100        1       1.00000000       0.15213670       0.00611055       0.01437787
Ni      10.19096414       4.38061245       0.10559911        1       1.00000000      -0.00048663       0.13518254       0.25568598
Ni       3.80751379       6.56839006       0.03063409        0       1.00000000      -0.01484502      -0.01601007      -0.00893702
Ni       6.38556196       6.59446348       0.03889545        0       1.00000000       0.08414670       0.05382869      -0.00571459
Ni       8.87366072       6.56521822       0.16120316        2       1.00000000      -0.07683223      -0.09033190      -0.23625425
Ni      11.43529881       6.54855462       0.05193330        1       1.00000000      -0.08364915      -0.08292228       0.13305585
Ni       1.32187331       0.79062922       2.10807960        3       1.00000000       0.08054009       0.13499087       0.11997910
Ni       3.77476205       0.70125285       2.16682100        4       1.00000000       0.00479433      -0.10625726       0.23014283
Pt       6.34004429       0.74481285       2.12910306        3       0.00000000      -0.04761549      -0.01581686       0.08798770
Pt       8.99185076       0.81631002       2.12276593        3       0.00000000       0.00091462      -0.01381501       0.02680205
Ni       2.50045723       2.99444718       2.17247324        4       1.00000000      -0.09005816       0.08574139       0.09929988
Ni       5.05108269       2.96833873       2.20766619        4       1.00000000      -0.00127655       0.02835239       0.21153647
Ni       7.70134755       2.96881153       2.17627503        4       1.00000000       0.04468553       0.00171606       0.07419646
Ni      10.21458788       2.97843415       2.16125747        4       1.00000000       0.04258796       0.02475363       0.04035247
Ni       3.79009349       5.06511389       2.17447812        4       1.00000000       0.01978437      -0.09796172       0.02180200
Pt       6.41273317       5.09753501       2.12957787        3       0.00000000       0.06729573      -0.08055990      -0.03735747
Ni       8.93608043       5.06407125       2.19189854        4       1.00000000       0.05557143      -0.09929891       0.08449407
Ni      11.43632711       5.05854599       2.15812811        4       1.00000000      -0.05672751      -0.03577003       0.00057421
Pt       5.12110627       7.31010370       2.11026317        3       0.00000000      -0.00127556      -0.02478047       0.03778798
Ni       7.64067013       7.33416096       2.17853393        4       1.00000000      -0.01793123      -0.05632052       0.15256012
Pt      10.09436887       7.25150623       2.21430204        4       0.00000000       0.02051795       0.00152313       0.05161155
Pt      12.70145238       7.20792840       2.16022804        4       0.00000000       0.01746266      -0.03590372      -0.03600560
Ni       0.01119399       1.52161986       4.31438584        6       1.00000000       0.01089697      -0.01874646      -0.06854049
Pt       2.51404340       1.50648221       4.22326196        5       0.00000000      -0.12107368      -0.04666515      -0.12182544
Pt       5.08750004       1.42395817       4.31670572        6       0.00000000       0.03060783      -0.16397102      -0.16427096
Pt       7.71901189       1.50057080       4.38536302        7       0.00000000       0.04553347      -0.01886037      -0.07108743
Pt       1.23058466       3.76081735       4.31106078        6       0.00000000      -0.02637526      -0.01031934       0.02018855
Ni       3.80792299       3.76349179       4.28624228        6       1.00000000      -0.06527901       0.04863180      -0.13798093
Pt       6.36841514       3.75125929       4.37514508        7       0.00000000      -0.02697378       0.04879955      -0.06148589
Ni       8.93342796       3.72225030       4.33895225        6       1.00000000      -0.01450152       0.09047491      -0.03440814
Ni       2.52656439       5.85512305       4.36152381        7       1.00000000      -0.07095901      -0.02133436      -0.06506847
Ni       5.04669252       5.84303521       4.36730236        7       1.00000000      -0.00876574       0.00844960      -0.10272951
Ni       7.70307993       5.85460685       4.32689994        6       1.00000000       0.12525429      -0.01778000      -0.14267011
Ni      10.18189227       5.86983067       4.34327656        6       1.00000000      -0.03874615      -0.00266279      -0.03176848
Pt       3.75636172       8.00144257       4.38336690        7       0.00000000      -0.03912419      -0.05513240      -0.09451780
Pt       6.39846925       7.99099114       4.32345271        6       0.00000000       0.04188435      -0.11949021      -0.01654043
Ni       8.93333531       8.01848202       4.34549874        6       1.00000000      -0.03419622      -0.04177645      -0.05729937
Ni      11.41792564       7.99226715       4.40766860        7       1.00000000      -0.08004153      -0.05479849      -0.06548333
Pt      -0.06353032       0.04562315       6.50183288        9       0.00000000       0.00397908       0.10973753       0.45791922
Pt       2.59086361       0.00015693       6.51750086        9       0.00000000       0.07507893      -0.02789259       0.34827400
Ni       5.17126881      -0.02528564       6.43219054        8       1.00000000      -0.08487486      -0.04268152       0.03558429
Ni       7.58942068      -0.03041920       6.45897028        9       1.00000000       0.02559139      -0.01094629       0.05370030
Ni       1.23664491       2.27301047       6.44931411        8       1.00000000       0.01552094      -0.05904256      -0.04150931
Pt       3.83931107       2.33401659       6.42111981        8       0.00000000       0.01613806       0.19350105       1.01886162
Ni       6.40756336       2.21069333       6.37630584        8       1.00000000      -0.06015667       0.07472520       0.84797991
Ni       8.92767101       2.26328022       6.46585713        9       1.00000000       0.03099769       0.05270267      -0.00237572
Ni       2.53097312       4.48777697       6.44613265        8       1.00000000       0.01071611      -0.00956826      -0.20926064
Ni       5.09574453       4.48905979       6.45715004        9       1.00000000      -0.09435698      -0.07049518      -0.03046749
Ni       7.64447206       4.38329737       6.47030088        9       1.00000000       0.09668104      -0.04183793      -0.05911248
Ni      10.20481116       4.37097986       6.47678696        9       1.00000000      -0.03923983       0.04210875      -0.16254226
Ni       3.78967895       6.55549734       6.46135921        9       1.00000000       0.01349594       0.01296206      -0.03114073
Ni       6.33475916       6.54057582       6.45476883        9       1.00000000       0.06340800       0.04622512      -0.02316844
Pt       8.96391435       6.51915329       6.47843196        9       0.00000000      -0.02794154       0.02696713       0.04716293
Ni      11.50253557       6.59191727       6.44585233        8       1.00000000      -0.02554191      -0.08780661      -0.19963120
