64
Lattice="10.187788945228114 0.039812632376533576 -0.04556327401013807 5.128373223643666 8.81890119528677 -0.03812234335722546 0.0 0.0 21.51239794336731" Properties=species:S:1:pos:R:3:tags:I:1:initial_magmoms:R:1:forces:R:3 unique_id=0942dce812b04c7e8e6512e2dafeecda stress="0.004933331528994634 -2.7184082559459346e-05 -0.00027178200027856155 -2.7184082559459346e-05 0.004461552143913191 0.00011754829771364464 -0.00027178200027856155 0.00011754829771364464 -0.0014458068868219822" energy=-369.39413992740094 pbc="T T T"
Ni       0.03245117      -0.04628612       0.16809979        2       1.00000000       0.08007886      -0.03416031      -0.27645177
Ni       2.49723530      -0.01588526       0.16947746        2       1.00000000       0.02990944       0.01045502      -0.13307795
Pt       5.11581976       0.00525852       0.11372979        1       0.00000000      -0.10936873       0.10189729      -0.97449534
Ni       7.64998222      -0.01245151       0.11190286        1       1.00000000      -0.03217918      -0.09002972      -0.33676872
Ni       1.27319832       2.21851328       0.08873125        1       1.00000000      -0.04790649       0.05278311       0.34445639
Pt       3.78713066       2.28799378       0.14446300        1       0.00000000      -0.02001723       0.01994305      -0.51348064
Ni       6.37853521       2.27064512       0.06027566        1       1.00000000      -0.03747816       0.05866080       0.21165495
Pt       8.92056604       2.29921039       0.07111326        1       0.00000000       0.04054591       0.13437665      -0.72652259
Ni       2.53734020       4.45225657       0.06276035        1       1.00000000       0.02967481       0.04354745       0.46356617
Ni       5.12848862       4.46330430       0.05476304        1       1.00000000      -0.08467173       0.07874797       0.38411573
Ni       7.62362576       4.46919939       0.04832094        0       1.00000000       0.02128892       0.05951298       0.32189073
Ni      10.22801202       4.46899309       0.03363955        0       1.00000000      -0.00162848       0.05250524       0.42202446
Ni       3.84980311       6.59260569       0.05787321        1       1.00000000       0.03955526      -0.02708877       0.41019619
Ni       6.37797879       6.61099471       0.05460288        1       1.00000000      -0.04080729       0.02433491       0.34594529
Ni       8.89906658       6.58245444       0.11639895        1       1.00000000      -0.09832597      -0.03658202      -0.27619705
Ni      11.52164249       6.59036689       0.00000000        0       1.00000000       0.04760150       0.02418920       0.26020610
Ni       1.30702079       0.73702205       2.14749566        3       1.00000000       0.00659035       0.09690910       0.09545789
Ni       3.75473544       0.76329155       2.15530526        4       1.00000000      -0.16095079       0.00136271       0.05763144
Ni       6.37882757       0.78956465       2.15206274        4       1.00000000       0.00296546       0.05137059       0.04049649
Pt       8.89732120       0.73229724       2.12852195        3       0.00000000       0.04027685       0.00902082      -0.11901829
Ni       2.51625443       2.97315542       2.21272469        4       1.00000000       0.02337144       0.05571200       0.12261786
Ni       5.10828418       3.00410091       2.13442323        3       1.00000000      -0.03292583       0.16490412      -0.06432460
Ni       7.61722194       3.00464342       2.14639914        3       1.00000000       0.00012186       0.03566872       0.08955879
Ni      10.23663909       3.03102230       2.13074814        3       1.00000000       0.07244429       0.07823781       0.06129057
Ni       3.82750174       5.13921545       2.14055636        3       1.00000000      -0.01672516      -0.06363945       0.04237297
Ni       6.35776816       5.16248094       2.07808638        3       1.00000000      -0.06936060       0.00346865      -0.05906573
Ni       8.91783975       5.11232015       2.09893360        3       1.00000000      -0.01809528      -0.19373744      -0.00522704
Ni      11.50677105       5.12391326       2.11435020        3       1.00000000       0.15854794      -0.17449006       0.13628353
Ni       5.14214163       7.28981321       2.10700592        3       1.00000000      -0.02835432      -0.15599575       0.05529055
Ni       7.59932646       7.34677036       2.07225118        3       1.00000000      -0.08045877      -0.04899188       0.00001488
Pt      10.25508533       7.26357765       2.14131210        3       0.00000000       0.06031749      -0.14823776      -0.04363201
Ni      12.76821387       7.30717785       2.06691535        3       1.00000000       0.10830323      -0.23104317       0.01754872
Pt       0.06965473       1.52014628       4.25681041        6       0.00000000       0.09158981      -0.00998403       0.08628039
Ni       2.52853226       1.52678888       4.24229487        5       1.00000000       0.10211684       0.13214789      -0.25861659
Pt       5.09072429       1.49813179       4.16929215        5       0.00000000       0.00027842      -0.04573376      -0.09788016
Ni       7.62744545       1.48696671       4.25102528        6       1.00000000       0.03788321      -0.07477964      -0.20972250
Ni       1.30101004       3.71449111       4.29957334        6       1.00000000       0.09298216       0.02718632      -0.13569081
Ni       3.75877262       3.75190228       4.24001398        5       1.00000000      -0.06195227       0.09935196      -0.23465261
Pt       6.35137904       3.69491178       4.27003356        6       0.00000000       0.00290679      -0.05706659      -0.01091809
Ni       8.95493920       3.74131705       4.21413876        5       1.00000000       0.11755751       0.07164655      -0.26026072
Ni       2.53049753       5.81402726       4.29344662        6       1.00000000      -0.05197994      -0.04911213      -0.20390716
Ni       5.05771119       5.84839768       4.28148953        6       1.00000000      -0.03647915      -0.11049798      -0.18329440
Pt       7.62189600       5.87838650       4.19980971        5       0.00000000      -0.02239117       0.00507772      -0.09642932
Ni      10.25799661       5.83790752       4.26418462        6       1.00000000       0.03579016      -0.04272455      -0.04562467
Pt       3.81964743       7.96176660       4.23145651        5       0.00000000       0.02270538      -0.07684558       0.06017033
Ni       6.35843145       8.06588528       4.21498136        5       1.00000000      -0.07650041      -0.02551961      -0.25159976
Pt       8.88315181       8.09604437       4.17560197        5       0.00000000      -0.05543565       0.05784737      -0.11492928
Ni      11.49538691       8.04027322       4.21817687        5       1.00000000      -0.00516867      -0.14589420      -0.11973366
Pt      -0.02199329      -0.07283760       6.51239794        9       0.00000000      -0.00902484       0.04939881       0.30606013
Pt       2.50136797       0.01103330       6.47170214        9       0.00000000       0.01988511       0.07668363       0.29488611
Pt       5.09417636       0.00345209       6.37603951        8       0.00000000       0.06383771      -0.03883160       1.08424309
Pt       7.61658111      -0.02545313       6.44372322        8       0.00000000      -0.06753012       0.10857818       0.31315685
Ni       1.25655573       2.26859488       6.43414249        8       1.00000000       0.04806802       0.06992767      -0.09320602
Pt       3.78186432       2.34607454       6.35849104        8       0.00000000      -0.11079752       0.06974673       0.51118059
Ni       6.34809687       2.26995976       6.42521938        8       1.00000000      -0.00269375      -0.00141330       0.00596551
Pt       8.88353888       2.33801215       6.32473044        7       0.00000000      -0.10587110      -0.05556703       0.77674657
Ni       2.51134099       4.46108994       6.39909953        8       1.00000000       0.05242101      -0.02034822      -0.36919682
Ni       5.09148231       4.46850376       6.41835454        8       1.00000000      -0.09606027       0.05448612      -0.23739908
Ni       7.57593779       4.42811834       6.42840263        8       1.00000000      -0.05167452      -0.00956913      -0.08197006
Ni      10.25501082       4.42656995       6.36994103        8       1.00000000       0.08571956      -0.02062352      -0.28449862
Ni       3.81566727       6.51225926       6.41990165        8       1.00000000       0.00287381      -0.09312734      -0.26009370
Ni       6.33372100       6.54888888       6.41382742        8       1.00000000      -0.01624304       0.03477685      -0.22253532
Pt       8.94014555       6.49805638       6.46613675        9       0.00000000       0.11726329       0.00258006       0.21565598
Ni      11.50603163       6.56040957       6.36054411        8       1.00000000      -0.00641597       0.06459051      -0.23654421
