64
Lattice="10.195264702075859 -0.031063536267801013 0.06154345215967082 5.070730539498632 8.836216168398769 0.05654978234535343 0.0 0.0 21.55414155006396" Properties=species:S:1:pos:R:3:tags:I:1:initial_magmoms:R:1:forces:R:3 unique_id=a3b49ac3c36a4b138020626d50dcbb1f stress="0.004109229025923854 -0.00013110907672052356 0.0006278660156045103 -0.00013110907672052356 0.004164895238338134 0.0001135650862836606 0.0006278660156045103 0.0001135650862836606 -0.002476192856170666" energy=-371.14198207533093 pbc="T T T"
Ni       0.06977293       0.02444549       0.10769517        1       1.00000000       0.16151832       0.12140275      -0.67441317
Ni       2.54309082      -0.04016692       0.17913412        2       1.00000000       0.00802968      -0.08322026      -0.21527191
Ni       5.05901753      -0.06197234       0.07693059        1       1.00000000      -0.07113456      -0.06546599       0.21782860
Pt       7.66936953      -0.07610950       0.00000000        0       0.00000000       0.03634110      -0.02686059      -0.58205424
Ni       1.23287798       2.22989668       0.08365820        1       1.00000000       0.02436387       0.05023430       0.34846316
Pt       3.75360089       2.20757699       0.17984153        2       0.00000000      -0.02853124       0.03577133      -0.56680126
Pt       6.40607123       2.27876869       0.06086692        1       0.00000000      -0.03077755       0.16023939      -0.30127384
Ni       8.97348844       2.24982065       0.09012573        1       1.00000000       0.00765337       0.10283837       0.11099712
Ni       2.50649373       4.44640123       0.09170008        1       1.00000000      -0.05414765      -0.00249384       0.38461355
Ni       5.06903204       4.45453342       0.17001864        2       1.00000000      -0.16673305      -0.03261513      -0.33953416
Ni       7.69624461       4.44086305       0.09441092        1       1.00000000       0.24816075       0.11863973       0.06457414
Ni      10.19273619       4.39733255       0.13806518        1       1.00000000       0.01486991       0.11764855       0.35594640
Ni       3.81879094       6.57297676       0.06046444        1       1.00000000      -0.03410443      -0.09386053       0.05174322
Ni       6.38887180       6.61950911       0.07043807        1       1.00000000       0.19911842       0.03885865       0.02957947
Ni       8.90980896       6.60688756       0.21172431        2       1.00000000      -0.01516164      -0.06681671       0.04270163
Ni      11.41605973       6.55067243       0.11754521        1       1.00000000      -0.13033519      -0.08444146       0.26022559
Ni       1.33749841       0.78009896       2.12567868        3       1.00000000       0.11813175       0.15161561       0.02300718
Ni       3.79819564       0.68260282       2.18961336        4       1.00000000      -0.01924351      -0.20976001       0.06745496
Pt       6.27533346       0.71877341       2.23812618        4       0.00000000      -0.05947711      -0.05363824       0.03443703
Pt       8.99507711       0.81480867       2.19372818        4       0.00000000      -0.02199184       0.05193117       0.05258144
Ni       2.52276501       2.99091233       2.18514194        4       1.00000000      -0.07403587       0.16976039      -0.00307985
Ni       5.05082779       2.96189628       2.23374702        4       1.00000000      -0.13446719      -0.01837243       0.24572954
Ni       7.69085347       2.97053222       2.19289596        4       1.00000000       0.08810572       0.03410846       0.03337840
Ni      10.23558541       2.97883922       2.18811879        4       1.00000000       0.07941773       0.14318222      -0.01231429
Ni       3.79103538       5.09446580       2.19704151        4       1.00000000      -0.05188378      -0.13887638       0.12705334
Pt       6.42447827       5.12684142       2.16549992        4       0.00000000       0.16877680       0.01477435       0.02107716
Ni       8.96470158       5.15988006       2.20175313        4       1.00000000       0.14825878       0.00266449       0.04406426
Ni      11.42641902       5.09391971       2.20795567        4       1.00000000      -0.14874441      -0.06770472      -0.05045608
Pt       5.12648927       7.34414016       2.13677805        3       0.00000000      -0.03682942      -0.04894421      -0.04018989
Ni       7.70964618       7.36561699       2.20541484        4       1.00000000       0.10407379      -0.06871892       0.16950962
Ni      10.12029033       7.30685069       2.24466753        4       1.00000000      -0.07577740      -0.10075833       0.12623084
Pt      12.65597593       7.22469280       2.26456139        5       0.00000000      -0.12399483      -0.14280377       0.01314128
Ni       0.03403652       1.50197446       4.32654471        7       1.00000000       0.07954846      -0.01131256      -0.11516644
Pt       2.60198295       1.48535380       4.22079007        6       0.00000000       0.03281088      -0.01769671      -0.03841866
Ni       5.10364670       1.42928933       4.35101870        8       1.00000000      -0.11146608      -0.14622863      -0.10056427
Pt       7.64593065       1.44621582       4.42255120        8       0.00000000       0.07113305      -0.04528762      -0.06403211
Pt       1.32765307       3.76482936       4.32618042        7       0.00000000      -0.01671235       0.03302241       0.00573921
Ni       3.83352598       3.74175625       4.30085994        7       1.00000000      -0.02223469       0.11357648      -0.26076325
Pt       6.32791916       3.69757713       4.34831241        7       0.00000000      -0.08602519       0.03547682      -0.02963555
Pt       8.95421129       3.73598302       4.37847936        8       0.00000000       0.05424566       0.15255528      -0.04815064
Ni       2.54374020       5.88791685       4.38535203        8       1.00000000      -0.05461995      -0.03862860       0.02660613
Ni       5.07245413       5.87789198       4.36272314        8       1.00000000      -0.00762531      -0.07065261      -0.19280555
Ni       7.68280644       5.90178825       4.37027359        8       1.00000000       0.11714485       0.02747531      -0.17295796
Ni      10.22523335       5.93473921       4.36425300        8       1.00000000       0.03458897       0.09258599      -0.25022511
Pt       3.77481820       8.02980505       4.39254418        8       0.00000000      -0.00707802      -0.05557168      -0.09184923
Pt       6.42278089       8.03759834       4.33594254        7       0.00000000       0.11881092      -0.12609320      -0.03057856
Ni       8.98345699       8.07266997       4.35440987        8       1.00000000       0.03089577      -0.04586491      -0.20711519
Ni      11.40042198       8.04419037       4.44653304        8       1.00000000      -0.13790714      -0.12087655      -0.06415006
Pt      -0.03127863       0.04578301       6.51550375       10       0.00000000      -0.17397429       0.14506911       0.38754355
Pt       2.60499441      -0.01310601       6.53357743       10       0.00000000       0.12138333      -0.02871545       0.26824001
Ni       5.18792289      -0.01589543       6.45301104       10       1.00000000      -0.02469495      -0.03501221      -0.22572598
Ni       7.61432208      -0.03499193       6.41516192        9       1.00000000      -0.08842749      -0.12416631       0.69905934
Ni       1.26416583       2.26956060       6.47713464       10       1.00000000      -0.01954402      -0.02785766      -0.15684236
Pt       3.87246852       2.24968930       6.42096249        9       0.00000000       0.14476752       0.16402707       0.67834039
Ni       6.42046291       2.19592687       6.43443220        9       1.00000000      -0.13686706       0.05567180       0.54147906
Ni       8.94409246       2.23711787       6.52673222       10       1.00000000      -0.00404965       0.03012192      -0.06772525
Ni       2.53154627       4.47910085       6.48008297       10       1.00000000       0.03612499       0.07223309      -0.16965065
Pt       5.10795856       4.51782682       6.54212107       10       0.00000000      -0.16608565      -0.08338875       0.35866073
Ni       7.67722874       4.40023065       6.52799734       10       1.00000000       0.00072004      -0.02787527      -0.05040211
Ni      10.24087540       4.39380431       6.55414155       11       1.00000000       0.03330736       0.00496205      -0.17106065
Ni       3.78800483       6.62757883       6.49889051       10       1.00000000      -0.14961480       0.04171766      -0.00438001
Ni       6.38257956       6.61880915       6.51100364       10       1.00000000       0.08848620       0.08253334      -0.02264398
Pt       8.98873615       6.55870866       6.51914826       10       0.00000000       0.09707906      -0.01007960      -0.11975415
Ni      11.51361033       6.61578852       6.51746539       10       1.00000000       0.01643029      -0.04403825      -0.35001996
