64
Lattice="10.235087373456691 -0.001624038177884454 0.02659250599737344 5.1161372284095785 8.74938126698999 -0.06382822686228487 0.021712690225155536 -0.07271365694023794 8.726792211092276" Properties=species:S:1:pos:R:3:tags:I:1:initial_magmoms:R:1:forces:R:3 unique_id=43a615f6b24942f5a6e54a4ba697b5ae stress="-0.007052056187138965 -8.285382334212287e-06 6.465931510445029e-06 -8.285382334212287e-06 -0.006960356934209405 1.2183351847610837e-05 6.465931510445029e-06 1.2183351847610837e-05 -0.006038405306868021" energy=-392.78441823935674 pbc="T T T"
Ni       0.04749402      -0.05717965       0.20201605        4       1.00000000       0.09478745      -0.07584977       0.17319845
Ni       2.49888571      -0.03381485       0.23039040        4       1.00000000      -0.02479463      -0.01862872       0.21720459
Pt       5.10979821      -0.03642709       0.15869557        4       0.00000000      -0.01194316       0.09086583      -0.25835953
Ni       7.70413896      -0.06144235       0.22800583        4       1.00000000       0.01558804      -0.01872554       0.19295377
Ni       1.28174609       2.18877562       0.10930150        4       1.00000000       0.01842757      -0.00684504       0.15041860
Pt       3.75506063       2.24910306       0.17454576        4       0.00000000       0.00078742       0.02799997      -0.08171946
Pt       6.41141816       2.26372042       0.09751750        4       0.00000000      -0.00827623       0.05447338      -0.11647645
Pt       9.03269703       2.22762079       0.13545262        4       0.00000000       0.05609322       0.05060149      -0.10538342
Ni       2.56213903       4.41687974       0.02469180        4       1.00000000       0.08563680       0.06996344      -0.08239774
Ni       5.11192644       4.45720898       0.08652111        4       1.00000000      -0.02563639       0.08990341       0.06349115
Ni       7.64949223       4.43864176       0.05529199        4       1.00000000      -0.05270996       0.07950948      -0.02406706
Ni      10.27844990       4.40287997       0.04701105        4       1.00000000       0.10105094       0.06246061      -0.03819112
Ni       3.85431144       6.54448797       0.06264901        4       1.00000000       0.07809691      -0.00944933       0.03201321
Ni       6.38031044       6.55143294       0.07669768        4       1.00000000      -0.01905642      -0.02808940      -0.00625439
Ni       8.90722529       6.52328287       0.12224607        4       1.00000000      -0.12764288      -0.02540278       0.05174137
Ni      11.56456164       6.51740118       0.04104711        4       1.00000000       0.11727000      -0.02967284      -0.05747632
Ni       1.31561382       0.71580819       2.21922856        3       1.00000000       0.01393249      -0.00757552       0.16456001
Ni       3.79498034       0.75567320       2.23849597        3       1.00000000      -0.02026123       0.00928417       0.04087816
Ni       6.40032781       0.76363007       2.24501282        3       1.00000000      -0.03824088       0.05080096       0.04247246
Pt       8.99134454       0.70706015       2.24572067        3       0.00000000       0.02958256      -0.03660912       0.15452179
Ni       2.56042806       2.86343472       2.26629232        3       1.00000000       0.02373808      -0.06151924       0.12052214
Ni       5.09560366       2.92973562       2.23140721        3       1.00000000      -0.07170146       0.03408726      -0.02953484
Ni       7.64845430       2.88739963       2.24004622        3       1.00000000      -0.04015708      -0.08598670       0.01290462
Ni      10.29838446       2.86779462       2.26212180        3       1.00000000       0.08829185      -0.03909869       0.11345545
Ni       3.89536288       5.07863003       2.16380981        3       1.00000000       0.03969212      -0.02671902       0.03759861
Ni       6.34917361       5.10184305       2.14566590        3       1.00000000      -0.02465573      -0.03960446      -0.00347072
Pt       8.88001249       5.01983661       2.18812448        3       0.00000000       0.01654620      -0.06241076       0.00457900
Pt      11.60820765       5.01326164       2.19778544        3       0.00000000       0.02556733      -0.05155404       0.01006633
Ni       5.16159611       7.21630457       2.11343788        3       1.00000000      -0.01478136      -0.07539145       0.03533246
Ni       7.58672069       7.27733717       2.12252942        3       1.00000000      -0.07468108      -0.09636347       0.05663992
Pt      10.23793805       7.24492024       2.14005464        3       0.00000000       0.02734423      -0.12244927       0.07358678
Ni      12.85480503       7.22579048       2.11125102        3       1.00000000       0.11388812      -0.12152303       0.02588667
Ni       0.07876117       1.46154484       4.29411770        2       1.00000000       0.08351942      -0.04264145       0.00195948
Ni       2.52028937       1.47875137       4.26945890        2       1.00000000      -0.01206759       0.00911204       0.00778398
Ni       5.10865941       1.46347485       4.26091041        2       1.00000000      -0.09747795       0.02657300      -0.16292165
Ni       7.68499918       1.45022666       4.31520397        2       1.00000000       0.00369420      -0.03579551      -0.04357891
Ni       1.29988619       3.59479861       4.33560030        2       1.00000000       0.02941637      -0.01820453      -0.01762339
Ni       3.81557095       3.65711626       4.24807228        2       1.00000000      -0.01155801       0.04794761      -0.14883478
Pt       6.39158820       3.63119100       4.29977231        2       0.00000000      -0.01936277      -0.02214035      -0.07914925
Ni       8.99761405       3.63479218       4.29390717        2       1.00000000       0.01205568       0.00771850      -0.08460641
Ni       2.59420847       5.71709264       4.32456632        2       1.00000000       0.04156874      -0.04321043      -0.06361310
Ni       5.13421703       5.76682168       4.29545944        2       1.00000000       0.01425770      -0.05763768      -0.10632631
Ni       7.63616709       5.78885120       4.30288812        2       1.00000000      -0.07595514       0.03979652      -0.05354803
Ni      10.26818265       5.71806492       4.33950414        2       1.00000000       0.02162290      -0.02344963      -0.05389944
Pt       3.92333003       7.90119384       4.23995690        2       0.00000000       0.00923133      -0.01678835       0.06996436
Ni       6.39622227       7.96218444       4.21974126        2       1.00000000      -0.02881121      -0.00456945      -0.06010424
Pt       8.86134592       7.99481666       4.21179135        2       0.00000000      -0.06132567      -0.03333711      -0.01772753
Pt      11.56450892       7.95243624       4.23534621        2       0.00000000       0.05699462      -0.06628580      -0.11717076
Pt       0.03048759      -0.09235034       6.52187429        1       0.00000000      -0.08189839       0.02639313       0.18550486
Pt       2.53739243      -0.03818835       6.52891648        1       0.00000000       0.04826967       0.08380127       0.22279644
Pt       5.13655691      -0.02531710       6.40172949        1       0.00000000      -0.09724221       0.12913006       0.07327485
Pt       7.69411765      -0.09319289       6.56487289        1       0.00000000      -0.00413116       0.01219621       0.22541238
Ni       1.29269725       2.20952389       6.40941369        1       1.00000000       0.00259420       0.06682590      -0.05467658
Pt       3.83322732       2.28329799       6.33644091        1       0.00000000      -0.01467816       0.11429860      -0.03594368
Ni       6.41110256       2.18765238       6.36546048        1       1.00000000      -0.03387289       0.02142218      -0.14071231
Pt       8.98477229       2.24465725       6.33491398        1       0.00000000      -0.01150006       0.03101400       0.00858261
Ni       2.54224631       4.37993616       6.39175338        1       1.00000000      -0.03309980       0.08144545      -0.11843193
Ni       5.13753126       4.38866267       6.43155950        1       1.00000000      -0.03249822       0.10200457      -0.02052804
Ni       7.62637150       4.32704479       6.43273091        1       1.00000000      -0.14472213       0.01345509      -0.07436782
Ni      10.32913393       4.32435559       6.41184347        1       1.00000000       0.11957250       0.01870385      -0.12641912
Ni       3.85209833       6.41599030       6.41583328        1       1.00000000      -0.02064096      -0.05767595      -0.02392447
Ni       6.37967991       6.44376325       6.40397763        1       1.00000000      -0.02505174       0.02165044      -0.11142944
Pt       8.96579299       6.37651953       6.45194497        1       0.00000000      -0.01260224      -0.02782645       0.06080972
Ni      11.55767608       6.43182697       6.42141552        1       1.00000000      -0.01608385       0.01559246      -0.11124596
