64
Lattice="10.503029892141544 0.013294048131833963 0.018985000240256913 5.263027929472072 9.100850047234728 -0.01717255352070414 0.015501187785081883 -0.025140053666847788 9.0319736792733" Properties=species:S:1:pos:R:3:tags:I:1:initial_magmoms:R:1:forces:R:3 unique_id=e197a341c0bd4e279e968fad770d90a8 stress="0.00044491438606943795 3.6009751509270206e-06 -3.351964282968455e-06 3.6009751509270206e-06 0.0004356882990602662 -6.248114364221759e-06 -3.351964282968455e-06 -6.248114364221759e-06 0.00038441460990624315" energy=-409.56952584321755 pbc="T T T"
Pt      -0.01378845       0.03889575       0.02183295        4       0.00000000      -0.07033879       0.00426280      -0.09422427
Pt       2.67707214      -0.00591230       0.09604493        4       0.00000000       0.06172954      -0.07727286       0.30411387
Ni       5.26613083      -0.00173932       0.06067200        4       1.00000000      -0.03491954      -0.01787740       0.08546441
Pt       7.77914687       0.03891452       0.05245286        4       0.00000000      -0.08225595       0.03302235      -0.10351504
Ni       1.31469535       2.31507191       0.04195733        4       1.00000000       0.01517002       0.10916644       0.11509561
Pt       3.94978572       2.27346693      -0.00864959        4       0.00000000       0.00197060      -0.04361030      -0.13501736
Ni       6.56406019       2.26814649       0.06285888        4       1.00000000      -0.05321419       0.00286208       0.16842569
Pt       9.20044953       2.36116276       0.00211277        4       0.00000000       0.02331875       0.16170779      -0.25136919
Ni       2.59045591       4.54207458       0.10935991        4       1.00000000      -0.12482038      -0.05467439       0.10388552
Pt       5.27088367       4.51025157       0.09680418        4       0.00000000       0.06614682      -0.06739357       0.19207839
Ni       7.91786832       4.55389079       0.14325919        4       1.00000000       0.10748054       0.04574199       0.30600356
Ni      10.51508207       4.58278964       0.07080161        4       1.00000000       0.03692111       0.12417305       0.13174678
Pt       3.86686505       6.77149594       0.01035024        4       0.00000000      -0.17601629      -0.03219363      -0.10931748
Pt       6.62840021       6.79046614       0.06950751        4       0.00000000       0.05520829      -0.07087208       0.17996083
Ni       9.24692027       6.79145004       0.13487104        4       1.00000000       0.11563908      -0.19138447       0.23997370
Ni      11.79152504       6.81515594       0.12222983        4       1.00000000      -0.09655082      -0.08748077       0.19672988
Pt       1.26689106       0.77326164       2.33197615        3       0.00000000      -0.06281132      -0.03344375      -0.01094743
Pt       4.00821588       0.76239983       2.28791301        3       0.00000000      -0.02806188       0.03647844       0.00556974
Ni       6.58777929       0.76169770       2.27089003        3       1.00000000       0.04979380      -0.01534868       0.09970735
Ni       9.16681914       0.77104295       2.29869522        3       1.00000000      -0.04500534       0.00354970       0.03015252
Pt       2.64412745       3.08134456       2.28147129        3       0.00000000       0.04810210       0.01734835      -0.10061895
Pt       5.27377397       3.03033040       2.34054727        3       0.00000000       0.00884983       0.09480164       0.05805484
Pt       7.88794699       2.98970393       2.26837716        3       0.00000000       0.07190702      -0.12666697      -0.01527291
Pt      10.49655528       3.06086290       2.28673727        3       0.00000000       0.01176274      -0.04002082      -0.08282259
Ni       3.92930214       5.30349115       2.28335687        3       1.00000000      -0.04607680       0.01976322      -0.00431344
Pt       6.60101837       5.26955435       2.29380425        3       0.00000000       0.02562631      -0.02279145      -0.11011112
Ni       9.22128343       5.30161197       2.24009345        3       1.00000000       0.05317538      -0.05793061       0.00826137
Pt      11.81869518       5.32190629       2.28125363        3       0.00000000       0.03671774       0.02915426       0.10108009
Pt       5.23547047       7.57960096       2.30251851        3       0.00000000       0.03500963      -0.00607792      -0.15137187
Pt       7.91544479       7.55275197       2.28752091        3       0.00000000      -0.09097555       0.02366631      -0.01303810
Pt      10.53001293       7.56317518       2.20150525        3       0.00000000      -0.01233890       0.06940003       0.04239578
Pt      13.14166716       7.60919045       2.30429003        3       0.00000000       0.10986564       0.05439049       0.01127092
Ni       0.01659555       1.50492058       4.53356799        2       1.00000000       0.01516012       0.04116376       0.01254308
Pt       2.55997789       1.60615461       4.53522002        2       0.00000000      -0.02823906       0.07075602       0.10917867
Pt       5.27287514       1.57146492       4.58920036        2       0.00000000       0.02414834       0.03750542       0.15136191
Pt       7.91712078       1.53840973       4.55801682        2       0.00000000       0.02434474       0.08131615      -0.01464087
Ni       1.32704425       3.80492583       4.51161137        2       1.00000000       0.01337289       0.18273560      -0.04363948
Ni       3.91662722       3.80014829       4.48983775        2       1.00000000      -0.16091943       0.08356486      -0.08028835
Ni       6.58128162       3.77442841       4.50331479        2       1.00000000       0.13063282      -0.00585211       0.02386731
Pt       9.30290653       3.78708344       4.54094224        2       0.00000000       0.12924370       0.04037687       0.05839468
Ni       2.62661525       6.01222001       4.48177555        2       1.00000000      -0.13011312      -0.09146148      -0.07093017
Pt       5.18041731       6.00614224       4.46239455        2       0.00000000      -0.07102015      -0.15488971       0.05882235
Pt       7.91398921       6.02199172       4.47523506        2       0.00000000       0.06446658      -0.04784168       0.18738084
Ni      10.55525313       6.02914737       4.50119330        2       1.00000000       0.14145178      -0.00797166       0.00576003
Pt       4.00085480       8.36231416       4.56316547        2       0.00000000       0.04259398       0.02676652      -0.01925797
Ni       6.56220446       8.36078504       4.50188598        2       1.00000000       0.05382149       0.05610585      -0.00365436
Pt       9.22069208       8.33017182       4.50818653        2       0.00000000      -0.07856588      -0.00228981       0.21288852
Pt      11.84342173       8.30635087       4.52456924        2       0.00000000       0.01147529      -0.02299503       0.05687420
Ni      -0.01142865       0.02624210       6.62045374        1       1.00000000      -0.02041761       0.23803319      -0.20168058
Pt       2.60961886       0.06633819       6.65925613        1       0.00000000      -0.07163955       0.15779125      -0.25876425
Ni       5.28837516       0.02269136       6.72958193        1       1.00000000       0.06885284       0.05853189      -0.07860491
Ni       7.88878930       0.01885937       6.66220477        1       1.00000000       0.00717013       0.10999816      -0.14167237
Ni       1.28210194       2.27440203       6.69622415        1       1.00000000      -0.27106142       0.07113014      -0.12148703
Ni       3.95091256       2.26145559       6.63444159        1       1.00000000      -0.11226466       0.01116947      -0.23673939
Ni       6.57937587       2.22937815       6.72360495        1       1.00000000       0.06422108      -0.15819521      -0.00158097
Ni       9.23730404       2.24319113       6.64043958        1       1.00000000       0.19564481      -0.14043644      -0.30287014
Pt       2.59374072       4.47772476       6.65279987        1       0.00000000      -0.04629566      -0.13894848       0.02823352
Pt       5.24687582       4.45566687       6.61552988        1       0.00000000      -0.02123095      -0.11624745      -0.25786824
Pt       7.91958264       4.44607826       6.74326841        1       0.00000000       0.04379776      -0.16496648       0.17396472
Ni      10.53565361       4.51304205       6.71232254        1       1.00000000       0.04280171      -0.05666493      -0.07985631
Ni       3.94041047       6.82214647       6.61785009        1       1.00000000      -0.04405893      -0.06455721      -0.25811228
Pt       6.52292702       6.86404249       6.62357993        1       0.00000000      -0.15847779       0.00380075      -0.37338587
Pt       9.25828392       6.79468052       6.74607859        1       0.00000000       0.03269949      -0.03294266       0.11987995
Pt      11.87857144       6.82939123       6.73700769        1       0.00000000       0.09739547       0.05106514       0.14785265
