64
Lattice="10.3805440039388 -0.008609385192438224 0.0017020160686921995 5.182816055681785 8.896221368695153 -0.02314002406734174 0.0013896903007711977 -0.022618961982356894 8.843940947126901" Properties=species:S:1:pos:R:3:tags:I:1:initial_magmoms:R:1:forces:R:3 unique_id=3fe245c60fbb45708af7325efb58aafe stress="7.222019158313608e-05 6.14064105217382e-07 -1.2026372503310525e-05 6.14064105217382e-07 7.877747667871943e-05 7.619537629739313e-06 -1.2026372503310525e-05 7.619537629739313e-06 6.493846635187428e-05" energy=-400.745321318533 pbc="T T T"
Ni       0.01027992       0.00194316       0.20785392        4       1.00000000       0.03112582       0.00301439       0.16929652
Ni       2.59419027      -0.00034850       0.23795341        4       1.00000000       0.03210794      -0.00867976       0.25679492
Ni       5.17899538      -0.02923990       0.17503939        4       1.00000000      -0.02645954       0.04528034       0.12205916
Ni       7.77969362      -0.07648222       0.21164763        4       1.00000000      -0.03273100      -0.05318479       0.22138354
Ni       1.30147691       2.22212899       0.11527686        4       1.00000000       0.02992113      -0.00257695       0.10370588
Pt       3.80375724       2.17075270       0.09734283        4       0.00000000       0.02209648      -0.01276368      -0.13712237
Pt       6.49420501       2.12873954       0.10002287        4       0.00000000       0.06049853      -0.03922509      -0.11105585
Pt       9.18173183       2.21259695       0.11334213        4       0.00000000       0.06860553       0.01575041      -0.17231630
Ni       2.54729183       4.45892185       0.12601569        4       1.00000000      -0.00697067      -0.02396499       0.03523930
Pt       5.15738667       4.46446337       0.14611684        4       0.00000000       0.08544697      -0.04302918      -0.10886336
Pt       7.86922385       4.50093516       0.08485550        4       0.00000000       0.06841581       0.02529369      -0.15617724
Ni      10.42416984       4.47223641       0.06461430        4       1.00000000       0.05260016       0.02771583       0.00564820
Ni       3.83488799       6.71745725       0.09375792        4       1.00000000      -0.02789806       0.02990791       0.08304001
Pt       6.48683184       6.76654967       0.19069228        4       0.00000000      -0.01209978      -0.00276903      -0.03852355
Ni       9.11043617       6.69463880       0.06206737        4       1.00000000       0.01526676       0.04391981      -0.01591588
Ni      11.68981163       6.66661401       0.05527912        4       1.00000000       0.05490306      -0.01679579      -0.00139712
Ni       1.31383880       0.76738643       2.17524334        3       1.00000000      -0.01133098       0.07229831       0.03949727
Ni       3.87926647       0.75672428       2.22811010        3       1.00000000       0.02028240       0.03327690       0.07081512
Ni       6.47638676       0.76063536       2.25119757        3       1.00000000      -0.03206774       0.06989509       0.08679289
Pt       9.08352903       0.74607341       2.25015365        3       0.00000000      -0.02112241      -0.00553971       0.12184631
Ni       2.56822608       2.92704960       2.21430538        3       1.00000000      -0.03557405      -0.00819742      -0.03834902
Ni       5.17838383       2.90494163       2.26188855        3       1.00000000      -0.07050031      -0.06793921      -0.03501776
Ni       7.79996743       2.96708303       2.23694080        3       1.00000000       0.04514771       0.01945078      -0.13445788
Ni      10.39479857       2.94103301       2.26910795        3       1.00000000       0.00973378      -0.03755383       0.02949486
Pt       3.85380172       5.17911744       2.23540845        3       0.00000000      -0.05200586      -0.00445773       0.08468668
Ni       6.53970638       5.18253017       2.23664649        3       1.00000000       0.05730118      -0.00069912      -0.02590404
Ni       9.04808286       5.15709313       2.25016519        3       1.00000000      -0.04762937      -0.04325706       0.04013270
Pt      11.62660472       5.11187808       2.18571022        3       0.00000000      -0.04163239      -0.03060861       0.04591802
Ni       5.17119156       7.41945053       2.19034463        3       1.00000000      -0.10575653      -0.00197143       0.06827711
Ni       7.79037894       7.40775314       2.21082216        3       1.00000000       0.03102089      -0.02330818       0.07798273
Pt      10.34780684       7.41582487       2.11086916        3       0.00000000      -0.00921721      -0.03499375       0.08216382
Ni      12.96281296       7.39758993       2.16852049        3       1.00000000      -0.04008700      -0.04490034       0.09299229
Ni       0.00703091       1.55053164       4.35522396        2       1.00000000       0.03742579       0.02434012      -0.07633626
Pt       2.58989737       1.58255586       4.33478510        2       0.00000000      -0.02113593       0.00938184      -0.01719258
Ni       5.19004597       1.50415954       4.36258002        2       1.00000000      -0.02551363      -0.00197346      -0.09629928
Ni       7.79256090       1.48443865       4.35689117        2       1.00000000       0.01559621      -0.03933399      -0.09195402
Ni       1.26621483       3.67850469       4.37164845        2       1.00000000      -0.04209189       0.00072284      -0.06208150
Ni       3.87325231       3.68672113       4.35279067        2       1.00000000      -0.02151579       0.02773076      -0.11301059
Pt       6.55025486       3.62512116       4.30119768        2       0.00000000       0.03849455      -0.05436093      -0.14322868
Ni       9.09342321       3.67124690       4.30927851        2       1.00000000       0.01612641      -0.05755115      -0.24954734
Ni       2.56979946       5.88370549       4.39902415        2       1.00000000      -0.02680498      -0.04107303      -0.02339167
Pt       5.18735114       5.87974072       4.33580824        2       0.00000000       0.02292729       0.01685965      -0.08157589
Ni       7.80797462       5.86372858       4.33896526        2       1.00000000       0.01865865      -0.01406524      -0.14292472
Pt      10.36033420       5.81709002       4.44529622        2       0.00000000      -0.03059169       0.02725410      -0.01275903
Pt       3.86938868       8.14846868       4.35725796        2       0.00000000       0.00966753      -0.00656902       0.07724059
Pt       6.47983404       8.18158887       4.25176042        2       0.00000000      -0.04245051       0.07472983       0.01673662
Pt       9.06300386       8.14221290       4.33892876        2       0.00000000      -0.02251593       0.02837447       0.09018011
Pt      11.68034863       8.16418857       4.31445982        2       0.00000000      -0.02638301       0.02099766       0.05254237
Pt       0.00955664       0.00528359       6.63121481        1       0.00000000       0.00122569       0.02253800       0.17017954
Pt       2.61287134       0.04358914       6.66269537        1       0.00000000      -0.01309631       0.08660506       0.25258367
Pt       5.19324807      -0.00886556       6.62056968        1       0.00000000      -0.00503008       0.03864477       0.10012007
Pt       7.77161157      -0.05027776       6.65262413        1       0.00000000       0.01404158      -0.01541689       0.24014897
Ni       1.28259447       2.25139989       6.52972877        1       1.00000000      -0.08923567       0.05290488      -0.08659014
Ni       3.88782066       2.22203255       6.45932389        1       1.00000000      -0.01348024       0.02604346      -0.17212912
Ni       6.49981862       2.19791418       6.45418051        1       1.00000000       0.05460860      -0.05836348      -0.16220145
Pt       9.08608750       2.30334374       6.41282239        1       0.00000000      -0.02070889       0.00019802      -0.10751693
Pt       2.51323647       4.43203151       6.53354727        1       0.00000000      -0.03198731      -0.00180655       0.02457655
Pt       5.18072099       4.34124929       6.48004888        1       0.00000000       0.01105312      -0.05491848       0.07628668
Ni       7.82254997       4.43682467       6.44284464        1       1.00000000       0.04916539       0.02828399      -0.20562881
Ni      10.36146779       4.44405449       6.54740429        1       1.00000000      -0.05458149       0.01753449      -0.02899321
Ni       3.85929514       6.63010888       6.54182747        1       1.00000000       0.00598072      -0.06755467      -0.02526750
Pt       6.54991304       6.60244046       6.49850288        1       0.00000000       0.08513244       0.01932518       0.03396632
Ni       9.11501035       6.59312485       6.54616958        1       1.00000000       0.01923249      -0.01119807      -0.03831639
Ni      11.65958768       6.62238942       6.55079733        1       1.00000000      -0.02360439       0.02232805      -0.06028335
