64
Lattice="10.306180686652725 0.009028077041157639 0.007321583380510781 5.160908887391328 8.892740361459602 0.007907830507514084 0.005978047797164348 0.004004146596861402 8.789154366346603" Properties=species:S:1:pos:R:3:tags:I:1:initial_magmoms:R:1:forces:R:3 unique_id=5b247d7dcf014fcd802aead0d3afbe8a stress="0.00020736815044948564 3.903801931490898e-06 -1.3806415603114723e-05 3.903801931490898e-06 0.00021106801558738036 -2.713026565458613e-06 -1.3806415603114723e-05 -2.713026565458613e-06 0.00020717253181010836" energy=-396.97168807104015 pbc="T T T"
Ni       0.00321240       0.02323361       0.18133988        4       1.00000000       0.02555933       0.06562652       0.24190556
Ni       2.57501385       0.01038839       0.21570505        4       1.00000000       0.02453389       0.02387447       0.39405659
Ni       5.15161600      -0.00310417       0.16722102        4       1.00000000      -0.03837571       0.13535135       0.26136905
Ni       7.73556321      -0.03600556       0.18980040        4       1.00000000      -0.02745425      -0.14891104       0.35431017
Ni       1.25996026       2.23164678       0.10994619        4       1.00000000      -0.10789254       0.04959820       0.19141726
Pt       3.80797799       2.24124395       0.19641129        4       0.00000000      -0.05228012       0.06499248       0.15503068
Pt       6.47003982       2.18199943       0.12113793        4       0.00000000       0.07605334      -0.01956768      -0.05625057
Ni       9.06595660       2.23400349       0.15128033        4       1.00000000       0.13529441       0.05976718       0.12779463
Ni       2.57637805       4.47446427       0.07865194        4       1.00000000       0.05145379       0.07073143      -0.00523363
Ni       5.12837440       4.46973173       0.20254746        4       1.00000000       0.02004151      -0.00103526       0.36850793
Pt       7.80977350       4.46276729       0.11364126        4       0.00000000       0.12199795       0.00738356      -0.12036717
Ni      10.34438598       4.44951649       0.08699872        4       1.00000000       0.12789541      -0.03053265       0.12308016
Ni       3.83494632       6.66861296       0.11821191        4       1.00000000      -0.08481432      -0.01743448       0.18475580
Pt       6.42028664       6.71861431       0.20567337        4       0.00000000      -0.06512976       0.01976796       0.11865204
Ni       9.04791510       6.68873062       0.08737937        4       1.00000000      -0.00934640       0.02897894       0.01904521
Ni      11.62468232       6.67411103       0.07560242        4       1.00000000       0.12189304      -0.02649583      -0.01369571
Ni       1.30093391       0.77110653       2.15777968        3       1.00000000      -0.03093444       0.15857509      -0.12013164
Ni       3.85835091       0.75859310       2.21349090        3       1.00000000       0.06139192       0.06135318       0.04952856
Ni       6.43422522       0.77652917       2.23058354        3       1.00000000      -0.03726441       0.13375883       0.12951635
Pt       9.02575328       0.79416237       2.18444119        3       0.00000000      -0.02541413       0.13377726       0.14286914
Ni       2.57129384       2.97384768       2.22235205        3       1.00000000      -0.01612429       0.09850942      -0.07255337
Ni       5.14916425       2.97843878       2.24784125        3       1.00000000      -0.08523834      -0.02335137       0.05666841
Ni       7.74873090       2.98485427       2.24193495        3       1.00000000       0.10995704       0.06005275      -0.03590981
Ni      10.31322082       2.97103144       2.21697482        3       1.00000000       0.04199628       0.06433424       0.06469812
Ni       3.88139205       5.17482884       2.18242350        3       1.00000000      -0.05513003      -0.08923455      -0.11273839
Ni       6.45225623       5.17376096       2.22264789        3       1.00000000       0.11744597      -0.03558427      -0.08380502
Ni       9.00387315       5.17090077       2.24202902        3       1.00000000      -0.00143292      -0.09311126       0.12914486
Pt      11.64268924       5.13773267       2.18340332        3       0.00000000       0.03826890      -0.03478416       0.03370301
Ni       5.12814203       7.40194201       2.19529665        3       1.00000000      -0.18545444      -0.03470155      -0.13220083
Ni       7.73820465       7.41050809       2.20930441        3       1.00000000       0.03139768      -0.11913571      -0.02829249
Pt      10.29877269       7.42122819       2.12148520        3       0.00000000       0.02899256      -0.14089785      -0.05444813
Ni      12.91747739       7.39566253       2.17509628        3       1.00000000       0.04433725      -0.13477368      -0.02902492
Ni      -0.01067841       1.55820921       4.34758472        2       1.00000000      -0.03670271       0.16177265      -0.10850841
Pt       2.54347256       1.58739515       4.26284827        2       0.00000000      -0.00080948      -0.00655610       0.01072568
Ni       5.17319566       1.51571977       4.33384048        2       1.00000000      -0.06913300       0.01474480      -0.14650852
Ni       7.74825488       1.51663458       4.35508352        2       1.00000000       0.07331965      -0.05243560      -0.08869696
Ni       1.29044037       3.70349874       4.39558333        2       1.00000000      -0.03315509      -0.00984614      -0.05103045
Ni       3.83870130       3.73015493       4.32136116        2       1.00000000      -0.08594102      -0.02311369      -0.20385345
Pt       6.49756674       3.65532102       4.31239241        2       0.00000000      -0.02888722      -0.02617445      -0.00050765
Ni       9.03822589       3.69230898       4.33899463        2       1.00000000       0.05450952      -0.11273208      -0.30781900
Ni       2.57313461       5.87351167       4.39875631        2       1.00000000      -0.04583544      -0.10373123      -0.06522206
Pt       5.11181735       5.86872253       4.26777292        2       0.00000000       0.02806511      -0.04626742      -0.02163730
Ni       7.76096665       5.88322857       4.34500376        2       1.00000000       0.00160398      -0.08777840      -0.24011363
Pt      10.31192003       5.82994820       4.43689740        2       0.00000000      -0.02806826      -0.01354440      -0.06774575
Pt       3.85998377       8.15812963       4.33086243        2       0.00000000      -0.07161734      -0.03450318       0.12233898
Pt       6.44248175       8.16946368       4.24288080        2       0.00000000      -0.07054771      -0.00340121      -0.04845976
Pt       9.01663335       8.15009368       4.33266283        2       0.00000000      -0.07687854       0.02993857       0.07428157
Pt      11.61754912       8.17184129       4.30984712        2       0.00000000       0.04241596       0.01339501       0.02801321
Pt       0.00394717       0.02474767       6.57828917        1       0.00000000       0.01768753       0.04308678       0.10604891
Pt       2.57820382       0.01111478       6.60844969        1       0.00000000      -0.02758976       0.02870013       0.22505296
Pt       5.16763582      -0.03790686       6.58323150        1       0.00000000       0.03601516      -0.13378192       0.06417461
Pt       7.72270053      -0.01778424       6.60134286        1       0.00000000      -0.02718393      -0.04805315       0.17361653
Ni       1.27709600       2.29726513       6.51101686        1       1.00000000      -0.04415831       0.19422007      -0.16325851
Pt       3.83839293       2.27859092       6.46185920        1       0.00000000      -0.10356979       0.05836890      -0.26583538
Ni       6.46331026       2.23876539       6.44761776        1       1.00000000      -0.00717003      -0.01858577      -0.24198645
Pt       9.03251755       2.33717506       6.50505613        1       0.00000000      -0.00443889       0.08171088       0.02121773
Ni       2.52742351       4.48062666       6.50201732        1       1.00000000      -0.11935575       0.04950889      -0.23297604
Pt       5.13554664       4.45064793       6.57391528        1       0.00000000      -0.02864476       0.04050870       0.16385472
Ni       7.77504812       4.46042013       6.44241461        1       1.00000000       0.08146891       0.07374775      -0.30133558
Ni      10.34247062       4.46468634       6.53829642        1       1.00000000       0.11302021       0.01015230      -0.02224121
Ni       3.82221217       6.63281988       6.53351565        1       1.00000000      -0.10537470      -0.08913345      -0.13407226
Pt       6.49907443       6.62108887       6.48398780        1       0.00000000       0.06402666       0.01975457      -0.30898613
Ni       9.06204890       6.60707614       6.54003437        1       1.00000000       0.09033461      -0.18387293      -0.12290932
Ni      11.61540137       6.61090606       6.54479214        1       1.00000000       0.05637024      -0.11298044      -0.12702294
