64
Lattice="10.341976656057211 -0.010743599998412377 0.025215793412817968 5.161684097501884 8.9087258885987 -0.00810256570271428 0.020588609106945745 -0.019526011214666787 8.817910050311475" Properties=species:S:1:pos:R:3:tags:I:1:initial_magmoms:R:1:forces:R:3 unique_id=80ed3afb350f4d589e2b42f0ddf8e4ac stress="0.00027046472894983603 3.881573241729484e-06 -1.844900601579419e-05 3.881573241729484e-06 0.00027276275803021777 7.921904930218939e-06 -1.844900601579419e-05 7.921904930218939e-06 0.0002598808686109372" energy=-399.42695135288443 pbc="T T T"
Ni      -0.01809051       0.02170991       0.20349547        4       1.00000000      -0.06874454       0.09741919       0.32754012
Ni       2.58689748      -0.00099226       0.21453878        4       1.00000000       0.02022438      -0.00853948       0.39919589
Ni       5.17227013      -0.01992186       0.17479108        4       1.00000000      -0.00394606       0.14865843       0.23968667
Ni       7.78234024      -0.04338942       0.13288776        4       1.00000000       0.08891680      -0.11186154       0.21645826
Ni       1.27663807       2.21516794       0.17778335        4       1.00000000      -0.04572737      -0.10348670       0.32501079
Pt       3.82006718       2.22274133       0.11816684        4       0.00000000      -0.03235468       0.02739429      -0.13296871
Pt       6.49198260       2.15873136       0.20462435        4       0.00000000       0.07385130      -0.10755456       0.16523475
Ni       9.06692304       2.18066824       0.16398847        4       1.00000000       0.00308098      -0.19460786       0.11337722
Ni       2.56821273       4.46505008       0.05624757        4       1.00000000      -0.01656173       0.00193107      -0.02418667
Ni       5.16245529       4.45081272       0.15810910        4       1.00000000       0.18957246      -0.09813450       0.20255114
Pt       7.82594227       4.45738428       0.11448110        4       0.00000000       0.16395574      -0.03008493      -0.09986250
Ni      10.36399935       4.45512516       0.07252984        4       1.00000000       0.09946962      -0.01306500       0.00609894
Ni       3.84184750       6.70839764       0.16865573        4       1.00000000      -0.03501244       0.15095676       0.22384192
Pt       6.43944899       6.72824593       0.20227962        4       0.00000000      -0.04474122       0.03536144       0.14198727
Ni       9.06777182       6.68743820       0.08210968        4       1.00000000       0.00775842       0.02031120       0.00739030
Ni      11.64381434       6.68252824       0.07041167        4       1.00000000       0.11998945       0.07412806      -0.06559899
Ni       1.29583197       0.72257621       2.17077093        3       1.00000000      -0.02784929       0.01774215      -0.02638871
Ni       3.87724690       0.75192962       2.21265913        3       1.00000000       0.06037009       0.04309863       0.03180008
Ni       6.49430066       0.73563168       2.26047661        3       1.00000000       0.08442615       0.03126810       0.15680395
Ni       9.02913524       0.71396227       2.20839208        3       1.00000000      -0.14682106       0.01526999      -0.05904309
Ni       2.59425637       2.94419873       2.20823171        3       1.00000000      -0.06311918       0.05538603      -0.00908455
Ni       5.16808933       2.93420814       2.25032356        3       1.00000000      -0.07531268      -0.16280146       0.03753996
Ni       7.76480639       2.93990041       2.25283859        3       1.00000000       0.07243510      -0.11047582      -0.07025634
Pt      10.29314477       2.89630878       2.21840964        3       0.00000000      -0.07449693       0.01050712       0.09233789
Pt       3.89862039       5.17250784       2.16227444        3       0.00000000      -0.03196716      -0.06800123       0.02329213
Ni       6.50181988       5.17636189       2.22820186        3       1.00000000       0.13409221       0.01057780      -0.05378382
Ni       9.01752255       5.18994064       2.26328856        3       1.00000000      -0.03484506      -0.00486708       0.16843716
Pt      11.62621492       5.19601356       2.18237825        3       0.00000000      -0.06832286       0.01716998      -0.07184198
Ni       5.14856453       7.46347477       2.18753865        3       1.00000000      -0.11567161       0.06863862      -0.06713658
Ni       7.75661037       7.41644553       2.21167962        3       1.00000000       0.03497364      -0.07866729      -0.00736677
Pt      10.31321314       7.43756790       2.13409868        3       0.00000000       0.00128058      -0.04977429      -0.02736401
Ni      12.94073395       7.44889303       2.18413240        3       1.00000000      -0.04994517       0.04156451      -0.08763420
Ni      -0.01857263       1.51030664       4.35386495        2       1.00000000       0.01609915       0.11172330      -0.04127931
Pt       2.64486375       1.53275324       4.29867815        2       0.00000000      -0.03608955       0.04027378      -0.03678023
Ni       5.18653321       1.48632217       4.34743844        2       1.00000000       0.07142420      -0.03575591      -0.21069779
Ni       7.78504037       1.48240990       4.34345354        2       1.00000000       0.08179489       0.05733564      -0.23182553
Pt       1.27168947       3.77941652       4.39750149        2       0.00000000       0.00435155      -0.02609268       0.02263323
Ni       3.88488452       3.69312128       4.37505161        2       1.00000000       0.03857575       0.03688733      -0.16958080
Pt       6.52706689       3.66438224       4.28067011        2       0.00000000      -0.02987907      -0.07089602       0.04806182
Ni       9.05553698       3.72178122       4.38736122        2       1.00000000       0.03703525       0.06678847      -0.17511028
Ni       2.56394805       5.91862742       4.39087617        2       1.00000000      -0.01119196       0.07210481      -0.12193763
Pt       5.15809784       5.89414324       4.31466031        2       0.00000000       0.04509471       0.04246944       0.06122234
Ni       7.82355787       5.87312206       4.35796293        2       1.00000000       0.06766236      -0.09314214      -0.19727572
Ni      10.31687004       5.89776758       4.43447039        2       1.00000000      -0.07126785       0.02162971      -0.10055674
Pt       3.85357044       8.21401459       4.27749625        2       0.00000000       0.02081094       0.04606712      -0.02264583
Pt       6.46429307       8.17717362       4.25828236        2       0.00000000       0.00360527       0.05290222       0.02415601
Pt       9.05816080       8.08952079       4.34553312        2       0.00000000      -0.05478648       0.02230655       0.08591640
Pt      11.65482426       8.14475015       4.36788732        2       0.00000000      -0.00880029      -0.00567145      -0.05972967
Pt      -0.02609180      -0.00315601       6.59998572        1       0.00000000      -0.03044056       0.01343351       0.18586716
Pt       2.63953097      -0.00763513       6.62914847        1       0.00000000       0.00874542       0.01355206       0.23121310
Pt       5.22662692      -0.09012720       6.61833434        1       0.00000000       0.02780214      -0.26111520       0.14041618
Ni       7.75767348      -0.02985556       6.57310063        1       1.00000000       0.02829337       0.04072322      -0.12162516
Pt       1.33667181       2.30691436       6.60806397        1       0.00000000       0.04009859       0.14107140       0.22235257
Ni       3.88829819       2.22639725       6.47352738        1       1.00000000       0.02468281      -0.07852233      -0.28899733
Pt       6.47618445       2.17765255       6.48533857        1       0.00000000      -0.01543748      -0.01676667      -0.22908143
Pt       9.05211689       2.28077166       6.53511369        1       0.00000000       0.06389198       0.13748482      -0.01958584
Ni       2.56025347       4.46224858       6.53504782        1       1.00000000      -0.14185487       0.11705123      -0.19366650
Pt       5.11379612       4.38665438       6.57510300        1       0.00000000      -0.12867482      -0.01992954       0.04300436
Ni       7.81552699       4.45391035       6.46454966        1       1.00000000       0.05245199       0.02860082      -0.29897969
Ni      10.33807181       4.50692722       6.54835843        1       1.00000000      -0.07567043       0.18713579      -0.14727712
Pt       3.75569031       6.65556027       6.58723017        1       0.00000000      -0.14564939       0.07092793       0.15153070
Pt       6.54397690       6.60169858       6.50189070        1       0.00000000       0.02664417      -0.05157188      -0.19365280
Ni       9.10112076       6.59438083       6.53955924        1       1.00000000       0.04241656      -0.15961794      -0.19635382
Ni      11.60627699       6.60628096       6.55181313        1       1.00000000      -0.17069623      -0.22684900      -0.23580218
