64
Lattice="10.144990149118481 0.021213107394224894 -0.04330258386486751 5.090866164455905 8.75208683819829 -0.07166154080743557 -0.03535641167100064 -0.04715011481112104 8.675545326798638" Properties=species:S:1:pos:R:3:tags:I:1:initial_magmoms:R:1:forces:R:3 unique_id=0118624f3bd1451ba8320b2d559d3936 stress="-6.837402024253286e-05 -3.653081615396035e-06 1.7418545504042533e-05 -3.653081615396035e-06 -5.7953109228604804e-05 1.7718716799733554e-06 1.7418545504042533e-05 1.7718716799733554e-06 -2.1724305108210273e-05" energy=-390.13198838649834 pbc="T T T"
Ni       0.03806254      -0.05010463       0.18143237        4       1.00000000       0.06813342      -0.07864067       0.29031847
Ni       2.50120328      -0.04248715       0.10747825        4       1.00000000      -0.06374947      -0.09006339       0.16828864
Ni       5.06021270      -0.04259554       0.16353479        4       1.00000000      -0.09205175      -0.09844588       0.30832500
Ni       7.59855913      -0.05672836       0.14755755        4       1.00000000      -0.05628129      -0.08860297       0.30590274
Ni       1.26785718       2.19272085       0.09304247        4       1.00000000      -0.00466010       0.01882296       0.23970056
Pt       3.71613510       2.15844730       0.15864591        4       0.00000000      -0.13148926      -0.03641298       0.26123346
Pt       6.35319079       2.15930604       0.06353165        4       0.00000000       0.01992396      -0.03706004      -0.02944440
Pt       8.95702706       2.25323444       0.07517654        4       0.00000000       0.04498985       0.05058797       0.18916628
Ni       2.48543956       4.41174337       0.06891190        4       1.00000000      -0.08700034       0.05306612       0.17514727
Pt       5.06805731       4.48039577       0.04702166        4       0.00000000      -0.08217035       0.14347016      -0.09891715
Ni       7.64534213       4.44640862       0.05276652        4       1.00000000       0.00917914       0.12316475       0.23086924
Ni      10.18393774       4.43608868       0.03813090        4       1.00000000       0.05474487       0.17991443       0.19681824
Ni       3.78328832       6.59679271       0.05391625        4       1.00000000      -0.08349425       0.07715948       0.15365217
Ni       6.37454899       6.60787610       0.04319878        4       1.00000000       0.00229907       0.03190624       0.07688225
Ni       8.86235775       6.55143627       0.09200791        4       1.00000000      -0.10347315      -0.05816637       0.23983716
Ni      11.44520840       6.55288628      -0.00513438        4       1.00000000       0.01501918      -0.07254822       0.00942248
Ni       1.29760116       0.72523785       2.17843924        3       1.00000000       0.04248390       0.03131326       0.07899202
Ni       3.74312516       0.71021553       2.16737152        3       1.00000000      -0.18529832      -0.07370634      -0.04825186
Ni       6.33798151       0.72298836       2.15980676        3       1.00000000       0.07939083      -0.06693619       0.04634736
Pt       8.89150098       0.72901525       2.17164258        3       0.00000000       0.10286791       0.15584683      -0.08448202
Ni       2.49250351       2.93449243       2.21736627        3       1.00000000      -0.00296939       0.04103444       0.12128302
Ni       5.05334299       2.95206027       2.17026084        3       1.00000000      -0.10952050       0.19410635      -0.10727452
Ni       7.61433283       2.96996910       2.16930089        3       1.00000000       0.10862419       0.04063423      -0.06679720
Ni      10.19587371       2.97166147       2.17857478        3       1.00000000       0.07187744       0.04741090       0.09799220
Ni       3.77715198       5.10413594       2.17627183        3       1.00000000      -0.03992248       0.00703895       0.10095417
Ni       6.36484077       5.14032721       2.13528966        3       1.00000000       0.03303563       0.10781107      -0.03966510
Ni       8.86915817       5.07544762       2.12309577        3       1.00000000       0.01954591      -0.05338666       0.10471393
Ni      11.43564678       5.07289438       2.11339241        3       1.00000000       0.06337950      -0.10064203       0.13467987
Ni       5.11447869       7.23269977       2.09548966        3       1.00000000       0.02052571      -0.14580910       0.01481500
Ni       7.56185473       7.27497115       2.07843670        3       1.00000000      -0.06788624      -0.05380934       0.01288335
Pt      10.18219606       7.24063158       2.07831127        3       0.00000000       0.05405249      -0.19968986       0.09818265
Ni      12.69754396       7.24018811       2.06464836        3       1.00000000       0.05270817      -0.19016903       0.06168315
Ni       0.04404947       1.47067450       4.27252499        2       1.00000000       0.08152773       0.04028156      -0.06992527
Ni       2.44716886       1.46883201       4.24964491        2       1.00000000      -0.03500869       0.07555007      -0.12416168
Pt       5.06740258       1.45637453       4.18065798        2       0.00000000      -0.13033497       0.02318007       0.04098398
Ni       7.60645653       1.45948919       4.23951390        2       1.00000000       0.04237245      -0.01860877      -0.08073890
Ni       1.26150951       3.62958122       4.28584632        2       1.00000000       0.03270893       0.02345162      -0.05572227
Ni       3.73857303       3.69413604       4.23121261        2       1.00000000      -0.05412192       0.07496125      -0.17182124
Pt       6.36688171       3.70341546       4.23823826        2       0.00000000       0.02200885      -0.04183070      -0.09406651
Ni       8.91848001       3.68687257       4.19353582        2       1.00000000       0.12046637       0.08919433      -0.18375545
Ni       2.51027226       5.75919996       4.27033606        2       1.00000000      -0.09336362      -0.08373657      -0.14999126
Ni       5.06637179       5.81029871       4.25281734        2       1.00000000       0.03295089      -0.06375768      -0.19660504
Ni       7.58808040       5.81379545       4.21364634        2       1.00000000       0.02972211       0.05698820      -0.19404114
Ni      10.17522940       5.76612537       4.23417005        2       1.00000000       0.04861102      -0.08176062      -0.06197134
Pt       3.81607878       7.91613952       4.21027332        2       0.00000000      -0.03370764      -0.08051396       0.13920430
Ni       6.33536813       7.98544340       4.19979445        2       1.00000000      -0.10950605      -0.04532730      -0.20124400
Pt       8.79652923       7.97546028       4.18034598        2       0.00000000      -0.04331869      -0.03953190       0.12426551
Ni      11.41954074       7.95553401       4.19451725        2       1.00000000       0.00989447      -0.11621814       0.01762229
Pt       0.07666806      -0.06294486       6.46494365        1       0.00000000       0.18062593      -0.01643520       0.13671580
Ni       2.50697852      -0.02786064       6.41950850        1       1.00000000       0.05150193       0.02504587      -0.12265996
Pt       5.03037718      -0.03411695       6.46744132        1       0.00000000       0.06234730       0.02723770       0.11598330
Pt       7.59315231      -0.06323946       6.42975765        1       0.00000000      -0.00339674      -0.05626639       0.13260501
Ni       1.25142161       2.19951799       6.38097726        1       1.00000000       0.00731467       0.14051856      -0.19120453
Pt       3.72020773       2.25060394       6.32955421        1       0.00000000      -0.01199247       0.20873896      -0.27918504
Ni       6.32033381       2.21441698       6.31682193        1       1.00000000      -0.02726837       0.05366801      -0.26385009
Pt       8.87862809       2.26527229       6.25730973        1       0.00000000       0.02518850       0.14388742      -0.43825401
Ni       2.49149918       4.39444748       6.36100179        1       1.00000000      -0.02687087       0.12676084      -0.17440988
Ni       5.05533517       4.40261988       6.29452703        1       1.00000000      -0.06011415       0.08186413      -0.26240461
Ni       7.55502957       4.36444373       6.37394075        1       1.00000000      -0.13369574      -0.04124873      -0.05227196
Ni      10.19358957       4.36688580       6.33413518        1       1.00000000       0.20957820      -0.00539422      -0.17239491
Ni       3.79775080       6.45404785       6.37111046        1       1.00000000       0.03994640      -0.14058294      -0.08266692
Ni       6.31412727       6.48836534       6.34668126        1       1.00000000      -0.03315764      -0.10326044      -0.21382887
Pt       8.83357835       6.44271333       6.38984750        1       0.00000000       0.02459855      -0.11097882       0.10484807
Ni      11.42923172       6.47704161       6.32375122        1       1.00000000       0.02167894      -0.00507525      -0.21831179
