64
Lattice="10.311478587302895 0.0037824655562267284 -0.03490850847434408 5.159015004912077 8.829251284069336 -0.10382441145081871 0.0 0.0 21.562880169494385" Properties=species:S:1:pos:R:3:tags:I:1:initial_magmoms:R:1:forces:R:3 unique_id=b34074630e244cb39f299896a6ab1805 energy=-374.29169049330545 stress="0.005805662972482205 7.340218356410482e-05 -0.00017245407233260017 7.340218356410482e-05 0.004505888624129217 -0.00015902082487440772 -0.00017245407233260017 -0.00015902082487440772 -0.0017359789909479721" pbc="T T T"
Ni       0.01366356      -0.07055082       0.21098361        2       1.00000000       0.08950333      -0.03831725      -0.09687737
Ni       2.54088747      -0.05672842       0.21702974        2       1.00000000      -0.00860133      -0.04323416      -0.04111279
Pt       5.15436345      -0.07098817       0.15000091        2       0.00000000      -0.05893527       0.00568819      -0.94593224
Ni       7.74786012      -0.06105126       0.17554279        2       1.00000000      -0.07556112      -0.07497023      -0.22297421
Pt       1.27780377       2.20451788       0.10963571        1       0.00000000      -0.05292247      -0.06708655       0.09220545
Pt       3.83570608       2.22074791       0.18539013        2       0.00000000       0.02255395      -0.02321125      -0.54702877
Pt       6.46518257       2.22249280       0.08889034        1       0.00000000      -0.06236648      -0.01652120      -0.22653028
Pt       9.03096244       2.24951854       0.10427604        1       0.00000000       0.07163549       0.10808549      -0.57731077
Ni       2.56605817       4.46296140       0.04462881        0       1.00000000       0.04629889       0.04346358       0.19816523
Pt       5.15189590       4.53305505       0.06129805        1       0.00000000      -0.02134629       0.13200178       0.03679647
Ni       7.73500544       4.46737861       0.03117750        0       1.00000000      -0.05703063       0.09452944       0.13916380
Ni      10.31846905       4.46061342       0.01105733        0       1.00000000       0.00182628       0.04972234       0.21380241
Ni       3.84588420       6.65154723       0.05376669        1       1.00000000      -0.01728893       0.10056447       0.36472631
Ni       6.45810787       6.65682199       0.05724219        1       1.00000000       0.01460105       0.08978501       0.37407378
Ni       8.98816054       6.58630869       0.08900005        1       1.00000000      -0.11336000       0.05491932      -0.13738044
Ni      11.63795159       6.58281009       0.00000000        0       1.00000000       0.06299491       0.03385550       0.26312057
Ni       1.30718830       0.70267658       2.25963779        5       1.00000000       0.02877775       0.01216703       0.29346154
Ni       3.79742483       0.72743963       2.23459056        4       1.00000000      -0.23245486      -0.04759362       0.10978879
Ni       6.46511207       0.73501061       2.23379079        4       1.00000000       0.09251023       0.01600934       0.15965381
Pt       9.03371836       0.71249762       2.22067604        4       0.00000000       0.12339701       0.10503215      -0.06346726
Ni       2.57659656       2.90319349       2.28763627        5       1.00000000       0.05202461      -0.14549715       0.31461775
Ni       5.14292334       2.95645685       2.22406694        4       1.00000000      -0.04098215       0.13902065       0.14922637
Ni       7.70783415       2.92509178       2.22781572        4       1.00000000      -0.04040720      -0.08585291       0.14792538
Ni      10.33462915       2.91140701       2.24996491        4       1.00000000       0.11828129      -0.10901711       0.35115106
Ni       3.87086669       5.13516086       2.18503166        4       1.00000000       0.01457537      -0.04068281       0.12229856
Ni       6.42968222       5.15734445       2.16169968        4       1.00000000       0.00132830       0.04752561       0.07133620
Pt       8.95535389       5.08873105       2.17229333        4       0.00000000       0.01257552      -0.12363551       0.06031238
Pt      11.67011951       5.07842703       2.16825676        4       0.00000000       0.07378879      -0.22532350       0.08569198
Ni       5.18093803       7.30978223       2.11421835        3       1.00000000       0.01461998      -0.09585719       0.01414573
Ni       7.65759046       7.35194191       2.10996594        3       1.00000000      -0.15904209      -0.03365855       0.09229307
Pt      10.34728622       7.32653180       2.17688272        4       0.00000000       0.09030672      -0.00133726      -0.01795576
Ni      12.90994133       7.31950780       2.09015669        3       1.00000000       0.11185327      -0.10384542       0.02757580
Ni       0.04089415       1.46903633       4.34945338        7       1.00000000       0.13695362       0.02238440      -0.20658782
Ni       2.50172913       1.46960021       4.31595469        7       1.00000000      -0.08250627       0.04044472      -0.24155499
Pt       5.15005006       1.44562723       4.24582325        6       0.00000000      -0.09930904      -0.04817952      -0.15448125
Ni       7.72659900       1.44003566       4.32345406        7       1.00000000       0.02321215      -0.06984668      -0.25644110
Ni       1.27905818       3.63211122       4.37195156        8       1.00000000       0.03785541      -0.01896530      -0.06293825
Ni       3.78998743       3.67226243       4.29862459        7       1.00000000      -0.15739701       0.05073174      -0.30073210
Pt       6.50872208       3.65297338       4.31981158        7       0.00000000       0.08427674      -0.03060715      -0.08785266
Ni       9.06023632       3.66603125       4.29737224        7       1.00000000       0.20275881       0.02929653      -0.16770446
Ni       2.53661556       5.80981777       4.36521694        8       1.00000000      -0.02504742      -0.09146858      -0.01884606
Pt       5.13999638       5.84260102       4.30622602        7       0.00000000       0.03584802      -0.00270821      -0.08922588
Ni       7.71744747       5.83451869       4.30611586        7       1.00000000      -0.04535750       0.01411224      -0.12964897
Ni      10.33916893       5.79826942       4.33183534        7       1.00000000       0.09706400      -0.05025472      -0.01872206
Pt       3.82763872       8.04086274       4.24505884        6       0.00000000      -0.05706772       0.03718041       0.00491848
Ni       6.42457077       8.06892031       4.23086743        6       1.00000000      -0.15493439       0.09875920      -0.32103513
Pt       8.92792848       8.01696482       4.20920133        6       0.00000000      -0.18226757       0.05062370      -0.05870547
Ni      11.60959537       8.00790507       4.24903494        6       1.00000000       0.01852556      -0.11213916      -0.10595203
Pt      -0.00984000      -0.09439922       6.56288017       11       0.00000000       0.02882720       0.13858768       0.18532158
Pt       2.53390359      -0.05176048       6.54862507       10       0.00000000       0.01132490       0.15400087       0.25430354
Pt       5.15888408      -0.07111523       6.45391592       10       0.00000000       0.03925334       0.00152864       0.94872128
Pt       7.70933300      -0.09664272       6.53899600       10       0.00000000      -0.08985288       0.14073973       0.31906471
Ni       1.26475310       2.21277688       6.40178717        9       1.00000000       0.02725523       0.09949205      -0.05204174
Pt       3.81716641       2.27708901       6.42248131        9       0.00000000      -0.09364492       0.11635481       0.43561564
Ni       6.43368602       2.19624480       6.42144603        9       1.00000000       0.00406351       0.00741255       0.19400194
Pt       9.01833516       2.25183081       6.35901473        9       0.00000000       0.01767189      -0.08792121       0.49550697
Ni       2.52592382       4.40851291       6.44534237        9       1.00000000       0.02342856      -0.00614752      -0.38869169
Ni       5.14584904       4.39780205       6.40551361        9       1.00000000      -0.06132015       0.01090977       0.09483575
Ni       7.68273699       4.36490779       6.46313779       10       1.00000000      -0.06709502      -0.02888530      -0.09838802
Ni      10.35603631       4.36418962       6.42026528        9       1.00000000       0.14647243      -0.05688211      -0.32760481
Ni       3.83326616       6.49975608       6.46647016       10       1.00000000      -0.03938950      -0.12690883      -0.25068012
Ni       6.41667432       6.51544520       6.45487880       10       1.00000000       0.03447264      -0.01734296      -0.20166661
Pt       9.00820325       6.43544355       6.45760992       10       0.00000000       0.08644795      -0.06638001       0.08418097
Ni      11.61352535       6.49720734       6.40927746        9       1.00000000      -0.00367651       0.04535001      -0.28193222
