64
Lattice="10.198213883948815 0.05206215565379977 -0.02007405445471914 5.144194091346376 8.854845476330945 -0.09659192196665989 0.0 0.0 21.59814508832559" Properties=species:S:1:pos:R:3:tags:I:1:initial_magmoms:R:1:forces:R:3 unique_id=5bfa8e546876481b885cd68a2879b5df energy=-370.21286618696746 stress="0.003966564992806936 0.00011060321135809075 1.9138952090041452e-05 0.00011060321135809075 0.0039247733093956145 -0.0008324459458977483 1.9138952090041452e-05 -0.0008324459458977483 -0.0030756266416138997" pbc="T T T"
Ni       0.02071391       0.00707489       0.22690802        2       1.00000000       0.16564295       0.00798863      -0.52761719
Ni       2.57122937       0.02960353       0.25476456        3       1.00000000       0.03745688      -0.02106378      -0.34728959
Ni       5.07795572      -0.00178571       0.11568675        1       1.00000000      -0.04607467       0.04321657       0.19870099
Ni       7.65403358      -0.00112226       0.08469710        1       1.00000000      -0.06027604       0.05772217      -0.03346609
Ni       1.30844352       2.19983633       0.11494283        1       1.00000000       0.08524447      -0.04599966       0.26343390
Ni       3.80591537       2.21167375       0.22814375        2       1.00000000       0.07121864      -0.02144569      -0.31587009
Pt       6.38391727       2.26554151       0.15534635        2       0.00000000      -0.03138019       0.06121900      -0.88945384
Ni       8.96364029       2.25309633       0.06781262        1       1.00000000      -0.05754040      -0.00284727       0.10366393
Ni       2.59016817       4.39880302       0.07281580        1       1.00000000      -0.00918897      -0.08049533       0.20194867
Ni       5.07260973       4.43278535       0.08068714        1       1.00000000      -0.07417249      -0.05590415       0.05283431
Ni       7.72553661       4.43667089       0.06934133        1       1.00000000       0.14210986      -0.01490661       0.09288931
Ni      10.21842345       4.45200877       0.04019861        0       1.00000000       0.00648550       0.03904885       0.17297793
Ni       3.85147974       6.60337405       0.03470012        0       1.00000000       0.06465997      -0.09857684       0.04880419
Pt       6.40922643       6.66439076       0.01089394        0       0.00000000       0.06513112       0.15885104      -0.30242404
Ni       8.96513858       6.63910063       0.11376942        1       1.00000000      -0.06622531      -0.10680592      -0.26267652
Ni      11.50572646       6.65909164       0.00000000        0       1.00000000      -0.09375653      -0.10631517       0.06217914
Ni       1.31556926       0.70991094       2.19761841        5       1.00000000       0.01570407      -0.00710488      -0.00424160
Ni       3.78243557       0.75945305       2.21040320        5       1.00000000       0.00309729      -0.01157283       0.15416757
Pt       6.31409764       0.78524047       2.30984241        6       0.00000000      -0.10584361       0.06646122       0.18846345
Pt       8.95529538       0.77012343       2.20945042        5       0.00000000      -0.04617266      -0.00051295       0.06172893
Ni       2.58927279       2.90910375       2.16925561        5       1.00000000      -0.02656810      -0.03907213      -0.04970919
Ni       5.04718267       2.97073324       2.21035003        5       1.00000000      -0.04445894       0.02199611       0.10279096
Ni       7.68768799       2.99251762       2.21303007        5       1.00000000       0.06440528       0.03720183       0.12352490
Pt      10.21760004       2.97748370       2.20535419        5       0.00000000       0.04708744      -0.06106825       0.09039170
Ni       3.86929617       5.11448229       2.15830929        5       1.00000000       0.02536055      -0.05837114      -0.09515107
Pt       6.40111147       5.16557563       2.18813051        5       0.00000000       0.03238287      -0.04009752      -0.03243707
Ni       8.92418479       5.16854358       2.18410236        5       1.00000000       0.00392841      -0.04184700       0.08532550
Pt      11.52379233       5.14500173       2.17923560        5       0.00000000       0.00173837      -0.06648533       0.04053262
Ni       5.15252317       7.35447358       2.15019788        5       1.00000000       0.00707710      -0.05297814       0.01476909
Ni       7.67143745       7.39825466       2.15107083        5       1.00000000      -0.04816499      -0.01638728       0.09994581
Pt      10.13942068       7.38642144       2.17740880        5       0.00000000      -0.07402647      -0.02446314       0.11997560
Pt      12.81793727       7.35220576       2.09589979        4       0.00000000       0.02934714      -0.00843630      -0.03447656
Ni      -0.02587622       1.48853673       4.41647213        9       1.00000000      -0.02843171       0.03688075       0.01698519
Pt       2.52685956       1.45938113       4.29426061        8       0.00000000      -0.05153376       0.02616862       0.02150866
Ni       5.09285818       1.41467451       4.38176516        9       1.00000000      -0.17027799       0.02872379       0.03389221
Ni       7.68789077       1.47184570       4.36645223        9       1.00000000       0.11062251       0.10119948      -0.00701331
Ni       1.23773601       3.67914680       4.41245830        9       1.00000000      -0.03082026       0.05260440       0.04043480
Pt       3.80432843       3.74068782       4.31477470        8       0.00000000      -0.06372718       0.05644511      -0.00593313
Pt       6.44940844       3.69380121       4.33338277        8       0.00000000       0.02948876       0.01212100      -0.00201701
Ni       8.97321554       3.69913063       4.38039789        9       1.00000000       0.06465313       0.08670195      -0.00791422
Ni       2.51778934       5.86427741       4.39074617        9       1.00000000      -0.19631392       0.05265019       0.01014353
Ni       5.10314115       5.87126829       4.35532162        9       1.00000000      -0.02562243       0.00186991      -0.12710580
Ni       7.72868194       5.86521957       4.31876049        8       1.00000000       0.24727629      -0.00467591      -0.16412797
Ni      10.23650023       5.87432282       4.32765896        8       1.00000000      -0.02341348      -0.02971101      -0.04794168
Pt       3.78853657       8.03729989       4.35016670        9       0.00000000      -0.05457419      -0.01723530       0.06837600
Pt       6.42627074       8.01627968       4.23057314        7       0.00000000       0.05607443       0.03193808      -0.06798106
Ni       8.99849604       8.07789970       4.30573662        8       1.00000000      -0.06524075       0.02347005      -0.02899799
Ni      11.46285842       8.09794019       4.35342053        9       1.00000000      -0.13668497      -0.01452239       0.03033763
Pt      -0.07916962      -0.01418558       6.59814509       13       0.00000000      -0.01585449       0.03921566       0.34293238
Pt       2.55164304      -0.04781735       6.58902143       13       0.00000000       0.06693084      -0.07217302       0.33671120
Ni       5.13188168      -0.05966257       6.49346142       12       1.00000000      -0.05819163       0.05307383      -0.05334314
Ni       7.58832425      -0.05829392       6.51330942       12       1.00000000      -0.00974358      -0.06373285       0.03893483
Ni       1.22697498       2.22727049       6.49244731       12       1.00000000       0.06026596       0.00711094      -0.16894553
Pt       3.80826312       2.25555647       6.56832316       13       0.00000000       0.14824276       0.08806184       0.28092275
Pt       6.44092174       2.15785598       6.42808707       11       0.00000000      -0.05766493      -0.03566154       0.96308704
Ni       8.94644639       2.25858238       6.45968963       12       1.00000000      -0.00548452       0.09649355      -0.15869221
Ni       2.51112421       4.43803597       6.47445550       12       1.00000000      -0.05422429       0.06220457      -0.22156938
Ni       5.10764061       4.46259293       6.48131213       12       1.00000000       0.03213765      -0.02141851      -0.08746261
Ni       7.68345603       4.40597249       6.46445979       12       1.00000000       0.07819304      -0.04570253      -0.10287257
Ni      10.23085090       4.38030423       6.43542245       11       1.00000000       0.01112531       0.06306812      -0.22259206
Ni       3.81288821       6.54610622       6.44624705       11       1.00000000       0.02402149      -0.04440220      -0.15494840
Ni       6.36738003       6.54580531       6.34683687       10       1.00000000       0.03517351      -0.00676617       0.27459211
Pt       9.00234235       6.53936940       6.43165235       11       0.00000000       0.00035068      -0.04640951       0.02669705
Ni      11.52853225       6.62777847       6.40785245       11       1.00000000      -0.00098084      -0.02853903      -0.24033297
