64
Lattice="10.36768095917735 -0.022584011180232066 0.06259776566627108 5.164282152187244 8.924522254369734 0.023749730947945566 0.0 0.0 21.6369359533884" Properties=species:S:1:pos:R:3:tags:I:1:initial_magmoms:R:1:forces:R:3 unique_id=ad05733d91f64b1db66264626f8dd261 energy=-378.6722197876875 stress="0.0056669401108797 -0.00031019088594935756 0.0005093202440138042 -0.00031019088594935756 0.005769695856128082 3.573388296674286e-05 0.0005093202440138042 3.573388296674286e-05 -0.0012609835910315243" pbc="T T T"
Ni       0.01416436      -0.00144920       0.10307407        1       1.00000000       0.09258702       0.04822284      -0.01275446
Ni       2.59561316      -0.00102018       0.04960041        0       1.00000000      -0.02817556       0.03189317       0.47927565
Ni       5.18063141      -0.03497796       0.11088673        1       1.00000000      -0.04455428       0.05989536      -0.30058148
Ni       7.77713975      -0.07142248       0.15150536        2       1.00000000      -0.04230509      -0.13817705      -0.01062683
Ni       1.29986424       2.23263329       0.09844703        1       1.00000000      -0.00464907      -0.03609776       0.25639384
Pt       3.79765938       2.17625307       0.06150086        1       0.00000000      -0.02855941       0.04168228       0.14801092
Pt       6.47513437       2.13068533       0.08014163        1       0.00000000       0.09200178      -0.04936716      -0.09542226
Pt       9.15921847       2.20765469       0.11369031        1       0.00000000       0.07494095       0.07930868      -0.49174611
Ni       2.54650682       4.48230655       0.00000000        0       1.00000000      -0.02196200      -0.02853333       0.23173924
Pt       5.13253679       4.47603802       0.09657144        1       0.00000000       0.11150400      -0.07663408      -0.82130298
Pt       7.81192873       4.48534875       0.10150198        1       0.00000000      -0.07406789      -0.02908636      -0.75058079
Ni      10.41023134       4.47017474       0.05471435        1       1.00000000       0.08343778      -0.00931396       0.21187882
Ni       3.83085496       6.72736428       0.03699606        0       1.00000000      -0.05468516       0.10187370       0.42966825
Pt       6.47465971       6.78975598       0.16142695        2       0.00000000      -0.00576996      -0.02371869      -0.53444918
Ni       9.09244263       6.71599851       0.04916861        0       1.00000000      -0.01661132       0.06459149       0.22832526
Ni      11.66939177       6.67731040       0.05320420        1       1.00000000       0.12446950       0.05066440       0.34035285
Ni       1.33696286       0.76440091       2.14829739        3       1.00000000       0.12253860       0.15388988      -0.03033538
Ni       3.85953024       0.75399049       2.18086108        4       1.00000000      -0.20621752       0.06862563       0.18272354
Ni       6.49526660       0.74343013       2.20400735        4       1.00000000       0.03724208       0.09024982       0.20774610
Pt       9.09420462       0.72004279       2.24351508        4       0.00000000       0.05023959       0.14363255       0.08786023
Ni       2.58108165       2.92516506       2.20651158        4       1.00000000      -0.02829310      -0.16252039       0.33514140
Ni       5.18247062       2.94037986       2.20973481        4       1.00000000      -0.09207253      -0.03290313       0.15439013
Ni       7.77136707       2.93491275       2.23809380        4       1.00000000       0.03934182      -0.12061434       0.15515125
Ni      10.41134839       2.92803617       2.25983370        5       1.00000000       0.12740568      -0.14487152       0.32801061
Pt       3.87206784       5.20677105       2.22249957        4       0.00000000      -0.04841618      -0.10960241      -0.01401900
Ni       6.48340910       5.20513893       2.21625573        4       1.00000000       0.00422251       0.04340525       0.21482355
Pt       9.04431852       5.16736351       2.27985353        5       0.00000000      -0.07870337      -0.12651609       0.08158135
Pt      11.67599129       5.12864630       2.19659419        4       0.00000000      -0.09985097      -0.10574699       0.08078020
Ni       5.18079885       7.45139219       2.17912038        4       1.00000000      -0.07508150       0.04205904       0.12084008
Ni       7.76420958       7.46472133       2.20251899        4       1.00000000       0.05997372       0.17384770       0.10158125
Pt      10.36356848       7.47755638       2.12797331        3       0.00000000       0.04151007      -0.04453546      -0.02450537
Ni      12.96546330       7.42212384       2.19611210        4       1.00000000       0.02108273      -0.00882627      -0.02128885
Ni       0.04826488       1.54494807       4.30903590        6       1.00000000       0.12975912       0.18749869      -0.38192229
Ni       2.59783161       1.53479506       4.33762818        6       1.00000000      -0.05675894       0.15855375      -0.37532633
Pt       5.15922995       1.52636851       4.32924500        6       0.00000000      -0.07919252       0.06787336      -0.24557760
Ni       7.81082137       1.49213498       4.37150708        7       1.00000000       0.00716050      -0.02413615      -0.30660161
Ni       1.33717447       3.68672048       4.34571289        6       1.00000000       0.08542024      -0.14234329      -0.30745356
Ni       3.82810624       3.69518537       4.35935345        7       1.00000000      -0.29746168      -0.04581510      -0.19460609
Pt       6.55937636       3.68769447       4.28234689        6       0.00000000       0.12724930      -0.00013691      -0.33708633
Ni       9.12348278       3.66204710       4.35617621        7       1.00000000       0.19064253      -0.27553899      -0.38100427
Ni       2.59567401       5.89731905       4.40636013        7       1.00000000      -0.01288300      -0.20363774       0.07440292
Pt       5.17803358       5.92616315       4.33496860        6       0.00000000       0.07848844      -0.01367596      -0.00901876
Ni       7.79532439       5.93277410       4.36392512        7       1.00000000      -0.07133883       0.06569625      -0.29074306
Pt      10.39402994       5.83813899       4.50262823        8       0.00000000       0.03396883      -0.13123417       0.16292862
Pt       3.89177786       8.18768568       4.33659275        6       0.00000000      -0.07135695       0.08094448       0.03110454
Pt       6.49777609       8.25714052       4.27380704        6       0.00000000      -0.06664334       0.35821066      -0.22541874
Pt       9.03825179       8.16452492       4.38461880        7       0.00000000      -0.09492293      -0.03449544      -0.13999455
Pt      11.68623565       8.14994484       4.36665783        7       0.00000000       0.00443802      -0.01087398      -0.19537024
Pt       0.05949878      -0.00899746       6.57772225       10       0.00000000       0.00631909       0.23322525       0.29519702
Ni       2.63760180      -0.00083163       6.55510909       10       1.00000000      -0.06582490       0.08364152      -0.15338090
Pt       5.15124090      -0.02702399       6.62577067       10       0.00000000       0.02869005       0.09033219       0.30349373
Pt       7.77307743      -0.07060943       6.63693595       10       0.00000000      -0.16080524       0.07777923       0.35931221
Pt       1.40872940       2.28893342       6.49814714        9       0.00000000       0.00897737       0.03237555      -0.21365768
Ni       3.90174137       2.21542546       6.47417837        9       1.00000000      -0.05790268      -0.04208874      -0.00029432
Ni       6.49711173       2.20709030       6.49604824        9       1.00000000       0.00389786      -0.07605383       0.01573771
Pt       9.11016672       2.23315394       6.45504649        9       0.00000000       0.08253823      -0.07953774       0.51331018
Ni       2.59259584       4.48935780       6.51729837        9       1.00000000      -0.03543613       0.10584748      -0.39159915
Pt       5.11195356       4.39097109       6.48749568        9       0.00000000       0.01073810      -0.05443196       0.62952674
Pt       7.86187297       4.47419543       6.47667444        9       0.00000000      -0.01900385       0.05224150       0.59947093
Ni      10.43252542       4.46389071       6.59047852       10       1.00000000       0.07688544      -0.09821671      -0.11427499
Ni       3.86137242       6.65766155       6.55029191       10       1.00000000      -0.08390752      -0.09628552      -0.20064906
Pt       6.54759115       6.69953792       6.51216032        9       0.00000000       0.06984300      -0.18824559       0.52802860
Ni       9.12117318       6.66917290       6.59195414       10       1.00000000       0.04703185      -0.00785488      -0.06750136
Ni      11.69122344       6.61155024       6.60484811       10       1.00000000       0.04886760      -0.01639404      -0.24969412
