64
Lattice="9.838399171785165 -3.238913987471201e-14 -2.8118804869547462e-15 4.91919958589261 8.504125559541748 -0.0021908471681530246 0.0 0.0 21.152919409108605" Properties=species:S:1:pos:R:3:tags:I:1:initial_magmoms:R:1:forces:R:3 unique_id=7b72e09cf94d4fcbb5fe34603b444d86 energy=-355.7721571851392 stress="0.0031977523239284933 2.3073801077935568e-17 -7.730959920132746e-17 2.3073801077935568e-17 0.002888320848759049 -2.2800832748728114e-05 -7.730959920132746e-17 -2.2800832748728114e-05 -0.0015558048265910457" pbc="T T T"
Ni       0.00238500      -0.00515042       0.03602615        0       1.00000000       0.00062196      -0.02975660       0.09605788
Ni       2.45721479      -0.00515042       0.03602615        0       1.00000000      -0.00062196      -0.02975660       0.09605788
Ni       4.92077541       0.00497887       0.03549590        0       1.00000000       0.00478548       0.01569423       0.05691755
Ni       7.37722355       0.00497887       0.03549590        0       1.00000000      -0.00478548       0.01569423       0.05691755
Ni       1.22979990       2.05406712       0.04219583        0       1.00000000       0.00000000       0.08212619      -0.10943408
Ni       3.72440197       2.07039976       0.03325285        0       1.00000000       0.02360296       0.03141232      -0.01762436
Ni       6.14899948       2.11660714       0.03505672        0       1.00000000      -0.00000000      -0.05086519       0.03159242
Ni       8.57359700       2.07039976       0.03325285        0       1.00000000      -0.02360296       0.03141232      -0.01762436
Pt       2.52780065       4.25393730       0.00000000        0       0.00000000      -0.01474223       0.00939515      -0.47146301
Ni       4.97965202       4.25404991       0.03588030        0       1.00000000      -0.09947672      -0.00811131       0.03684260
Ni       7.31834694       4.25404991       0.03588030        0       1.00000000       0.09947672      -0.00811131       0.03684260
Pt       9.77019832       4.25393730       0.00000000        0       0.00000000       0.01474223       0.00939515      -0.47146301
Ni       3.72518192       6.43214585       0.03595978        0       1.00000000       0.00403969      -0.00819618       0.04193069
Ni       6.14899948       6.38705217       0.03629239        0       1.00000000       0.00000000       0.06267195       0.09839922
Ni       8.57281704       6.43214585       0.03595978        0       1.00000000      -0.00403969      -0.00819618       0.04193069
Ni      11.06819907       6.44929430       0.03344686        0       1.00000000      -0.00000000      -0.07580128      -0.02383897
Ni       1.22979990       0.68956430       2.06312019        1       1.00000000       0.00000000      -0.02792437       0.10281480
Ni       3.69520727       0.69644479       2.06000126        1       1.00000000       0.03918146      -0.04838565       0.06364892
Ni       6.14899948       0.70800776       2.05719071        1       1.00000000      -0.00000000       0.00281159       0.04815326
Ni       8.60279169       0.69644479       2.06000126        1       1.00000000      -0.03918146      -0.04838565       0.06364892
Ni       2.48781021       2.78781093       2.05572749        1       1.00000000       0.08242731      -0.02632974      -0.10449869
Ni       4.92957293       2.82988701       2.05662678        1       1.00000000       0.03705181      -0.00418769       0.01861077
Ni       7.36842603       2.82988701       2.05662678        1       1.00000000      -0.03705181      -0.00418769       0.01861077
Ni       9.81018876       2.78781093       2.05572749        1       1.00000000      -0.08242731      -0.02632974      -0.10449869
Ni       3.72763932       4.98136743       2.10160266        1       1.00000000      -0.03661575      -0.02459088       0.01214854
Ni       6.14899948       4.96481668       2.06619489        1       1.00000000       0.00000000       0.00237017       0.11529677
Ni       8.57035964       4.98136743       2.10160266        1       1.00000000       0.03661575      -0.02459088       0.01214854
Ni      11.06819907       5.01248338       2.07520641        1       1.00000000      -0.00000000       0.08411154      -0.06292892
Ni       4.92479601       7.09177611       2.06214785        1       1.00000000       0.00862242       0.01980159       0.10586674
Ni       7.37320296       7.09177611       2.06214785        1       1.00000000      -0.00862242       0.01980159       0.10586674
Ni       9.83273879       7.10132636       2.05880910        1       1.00000000      -0.01342339       0.03528898       0.03347989
Ni      12.30365934       7.10132636       2.05880910        1       1.00000000       0.01342339       0.03528898       0.03347989
Ni      -0.02565283       1.37123215       4.10758684        2       1.00000000      -0.03013584      -0.03829632      -0.06798949
Ni       2.48525262       1.37123215       4.10758684        2       1.00000000       0.03013584      -0.03829632      -0.06798949
Ni       4.92690086       1.41134937       4.10350124        2       1.00000000       0.03512326      -0.02187243      -0.06496763
Ni       7.37109811       1.41134937       4.10350124        2       1.00000000      -0.03512326      -0.02187243      -0.06496763
Pt       1.22979990       3.52823842       4.07299327        2       0.00000000       0.00000000      -0.00943020       0.07211468
Ni       3.74572420       3.53677948       4.09723988        2       1.00000000       0.03981403      -0.02964461      -0.07575491
Ni       6.14899948       3.54151678       4.10374329        2       1.00000000       0.00000000      -0.02007587      -0.07328826
Ni       8.55227476       3.53677948       4.09723988        2       1.00000000      -0.03981403      -0.02964461      -0.07575491
Ni       2.48341617       5.71843494       4.09837059        2       1.00000000      -0.01277863       0.02703760      -0.09021021
Ni       4.92807722       5.67402684       4.10938921        2       1.00000000       0.01417698       0.01785624      -0.01908824
Ni       7.36992175       5.67402684       4.10938921        2       1.00000000      -0.01417698       0.01785624      -0.01908824
Ni       9.81458280       5.71843494       4.09837059        2       1.00000000       0.01277863       0.02703760      -0.09021021
Ni       3.69001010       7.79566133       4.10350958        2       1.00000000      -0.00271685       0.00891455      -0.04757009
Ni       6.14899948       7.78665106       4.10529114        2       1.00000000       0.00000000      -0.01661756      -0.01046753
Ni       8.60798886       7.79566133       4.10350958        2       1.00000000       0.00271685       0.00891455      -0.04757009
Ni      11.06819907       7.80500971       4.10167244        2       1.00000000       0.00000000       0.04979654      -0.06182940
Ni      -0.00205588      -0.00771831       6.13054487        3       1.00000000      -0.00105867      -0.02533139      -0.04118777
Ni       2.46165567      -0.00771831       6.13054487        3       1.00000000       0.00105867      -0.02533139      -0.04118777
Ni       4.91967149      -0.00072776       6.12732839        3       1.00000000       0.00175863       0.00738618      -0.08464204
Ni       7.37832747      -0.00072776       6.12732839        3       1.00000000      -0.00175863       0.00738618      -0.08464204
Ni       1.22979990       2.09236488       6.15291941        4       1.00000000       0.00000000       0.00175730       0.09933491
Ni       3.69745414       2.11878589       6.12380867        3       1.00000000       0.00318249       0.01868850      -0.03560416
Ni       6.14899948       2.12368975       6.12676187        3       1.00000000      -0.00000000      -0.00929860      -0.08349966
Ni       8.60054482       2.11878589       6.12380867        3       1.00000000      -0.00318249       0.01868850      -0.03560416
Ni       2.49107057       4.26773322       6.05724112        3       1.00000000       0.06791829       0.04023893       0.66430719
Ni       4.92918699       4.25096897       6.12385812        3       1.00000000      -0.00373394       0.00178810      -0.02851147
Ni       7.36881197       4.25096897       6.12385812        3       1.00000000       0.00373394       0.00178810      -0.02851147
Ni       9.80692840       4.26773322       6.05724112        3       1.00000000      -0.06791829       0.04023893       0.66430719
Ni       3.69432488       6.38471381       6.12367582        3       1.00000000       0.01232442       0.00343866      -0.02282818
Ni       6.14899948       6.37671310       6.12839864        3       1.00000000       0.00000000       0.00946727      -0.03291019
Ni       8.60367409       6.38471381       6.12367582        3       1.00000000      -0.01232442       0.00343866      -0.02282818
Ni      11.06819907       6.38943825       6.11800756        3       1.00000000      -0.00000000      -0.02957592      -0.02525011
