64
Lattice="10.315832220917079 -0.003502697855944387 0.05007490167524362 5.154882685133516 8.88523742612926 0.025896273875012858 0.040885986008128525 0.0008097061247715406 8.822611505591501" Properties=species:S:1:pos:R:3:tags:I:1:initial_magmoms:R:1:forces:R:3 unique_id=8add240378dc415ca7a6cf30f1521d40 stress="0.0002822168973909481 4.671845378011063e-06 -2.9077176894632144e-05 4.671845378011063e-06 0.0002900315467896583 6.505049984872767e-06 -2.9077176894632144e-05 6.505049984872767e-06 0.000271585926967223" energy=-398.43480472690464 pbc="T T T"
Ni       0.01644124      -0.00053420       0.17400062        4       1.00000000       0.07078182       0.06418658       0.32715820
Ni       2.58115226       0.00960823       0.21168232        4       1.00000000       0.02027700       0.04938435       0.43243541
Ni       5.15756447      -0.01226476       0.17710858        4       1.00000000      -0.04692816       0.12088409       0.21919658
Ni       7.73690385      -0.05665141       0.22131947        4       1.00000000       0.00416211      -0.09283654       0.38559002
Ni       1.30320837       2.22885371       0.11226792        4       1.00000000       0.04869532       0.01437263       0.25022973
Pt       3.80198843       2.22853933       0.20059644        4       0.00000000      -0.02728152       0.07816946       0.09867333
Pt       6.43272921       2.17054150       0.14228872        4       0.00000000       0.04810576      -0.07450868      -0.05671434
Pt       9.11807254       2.22334872       0.16258807        4       0.00000000       0.15310571       0.00582529       0.09714261
Ni       2.56509432       4.46653016       0.06553028        4       1.00000000       0.00494802       0.05314639      -0.06027834
Ni       5.14167775       4.45492282       0.18415724        4       1.00000000       0.09653947      -0.06020110       0.21098722
Pt       7.74749879       4.47971253       0.07446369        4       0.00000000       0.07486501       0.09326348      -0.19795492
Ni      10.37116745       4.46633893       0.10810772        4       1.00000000       0.13465635       0.08520041       0.08020807
Ni       3.83112349       6.67998755       0.10510886        4       1.00000000      -0.06706321       0.08300113       0.11717085
Pt       6.42097637       6.73087642       0.22355568        4       0.00000000      -0.02825820       0.05834959       0.19221137
Ni       9.05760673       6.69338106       0.11296149        4       1.00000000       0.01468869       0.06985513       0.06552389
Ni      11.62741892       6.66537636       0.11701983        4       1.00000000       0.12467038       0.00872954       0.02877217
Ni       1.33133790       0.75166188       2.23779585        3       1.00000000       0.05046498       0.05917229       0.12858536
Ni       3.84558933       0.77179904       2.25831037        3       1.00000000      -0.07326562       0.16002463       0.10158273
Ni       6.44854087       0.77297375       2.26724831        3       1.00000000      -0.03817429       0.11375801       0.13245778
Pt       9.05145316       0.73873117       2.28786066        3       0.00000000       0.03741256       0.21657330      -0.05764536
Ni       2.56487184       2.91177533       2.29035279        3       1.00000000      -0.04768026      -0.11987572       0.20326683
Ni       5.16578838       2.93156652       2.28511158        3       1.00000000      -0.10447613      -0.13104232       0.06586581
Ni       7.72495166       2.93854505       2.28989197        3       1.00000000       0.05274013      -0.07715668      -0.10155700
Ni      10.36979613       2.92817968       2.30994524        3       1.00000000       0.11734767      -0.09692149       0.14182390
Pt       3.90212897       5.16480899       2.20009596        3       0.00000000      -0.07563586      -0.06255660      -0.04084188
Ni       6.45467475       5.17179944       2.25729874        3       1.00000000       0.06163726      -0.03327814      -0.09500385
Pt       8.98646690       5.15153656       2.30262600        3       0.00000000      -0.11830688      -0.10399403      -0.13555569
Pt      11.63540068       5.12421943       2.24350495        3       0.00000000       0.00579019      -0.08689303       0.05808655
Ni       5.18448417       7.42939672       2.25633320        3       1.00000000       0.05665952       0.05811435       0.08346397
Ni       7.70822010       7.44646181       2.27407355        3       1.00000000      -0.12787497       0.05268152       0.07607441
Pt      10.31877004       7.45534498       2.18084516        3       0.00000000      -0.00787113      -0.03858089      -0.07792799
Ni      12.91806377       7.39864347       2.24344630        3       1.00000000       0.04695575      -0.09899897       0.00673011
Ni       0.07841343       1.52964082       4.35243447        2       1.00000000       0.16315808       0.07919403      -0.11871268
Ni       2.55367692       1.52430316       4.34164428        2       1.00000000      -0.08765231       0.04440197      -0.17151031
Ni       5.16255414       1.50469227       4.36586703        2       1.00000000      -0.14305385       0.00366224      -0.16608607
Ni       7.76325304       1.50029674       4.39997925        2       1.00000000       0.05773697      -0.05685377      -0.09262035
Ni       1.33057408       3.65124770       4.41315074        2       1.00000000       0.05323176      -0.08584772      -0.07785087
Ni       3.83528034       3.68556533       4.36138293        2       1.00000000      -0.10249256      -0.07608401      -0.19980534
Pt       6.50454349       3.64377322       4.36337784        2       0.00000000      -0.04167094      -0.05630073      -0.03402982
Ni       9.06253171       3.67728060       4.39614999        2       1.00000000       0.09079955      -0.18141456      -0.27040089
Ni       2.59345640       5.87454152       4.44415904        2       1.00000000       0.01146919      -0.11312351      -0.02116501
Pt       5.18329027       5.90881574       4.35042543        2       0.00000000       0.11379987      -0.04166378       0.09676231
Ni       7.76325359       5.90671357       4.41283726        2       1.00000000      -0.02395958       0.00390740      -0.11565804
Pt      10.34299980       5.83478919       4.53251620        2       0.00000000       0.05974220      -0.03629312       0.01958425
Pt       3.92107883       8.15523727       4.37500958        2       0.00000000      -0.02291779      -0.03203390       0.18527543
Ni       6.46934840       8.18674003       4.35613808        2       1.00000000      -0.04855028       0.12560389      -0.13210423
Pt       8.96388953       8.17639860       4.36414035        2       0.00000000      -0.09869356       0.09006743       0.10485895
Pt      11.63408439       8.16685491       4.37630008        2       0.00000000       0.03621820       0.04627487       0.03671466
Pt       0.03172085       0.02035282       6.56958835        1       0.00000000      -0.01350809       0.04143603       0.13983566
Pt       2.59086114       0.01663215       6.59580873        1       0.00000000      -0.04505989       0.04288503       0.17832076
Pt       5.18392730      -0.04751583       6.61741589        1       0.00000000      -0.01898174      -0.11270659       0.01959911
Pt       7.75329491      -0.03879753       6.65067141        1       0.00000000      -0.10737414      -0.06549374       0.20897413
Ni       1.30468546       2.28682916       6.51716722        1       1.00000000      -0.07371720       0.18430651      -0.21924811
Pt       3.83892872       2.26314707       6.45244061        1       0.00000000      -0.10920893       0.07933978      -0.23422296
Ni       6.48393381       2.22399226       6.49791253        1       1.00000000      -0.04888267      -0.04786966      -0.25747651
Pt       9.06337777       2.31275873       6.46571690        1       0.00000000      -0.04583087       0.07026169      -0.33680041
Ni       2.54743610       4.46807430       6.53118138        1       1.00000000      -0.15709089       0.03613200      -0.27225355
Pt       5.15519533       4.43721435       6.60997113        1       0.00000000      -0.06468061       0.02531769       0.07598199
Ni       7.79765064       4.44885401       6.47729879        1       1.00000000       0.08613822       0.05024988      -0.47368416
Ni      10.37302210       4.44569886       6.60181862        1       1.00000000       0.10197033      -0.03637439      -0.04886929
Ni       3.84308794       6.62423076       6.56954668        1       1.00000000      -0.11185050      -0.09964994      -0.14371930
Pt       6.52713075       6.62421516       6.51697898        1       0.00000000       0.03375360      -0.00482462      -0.18618316
Ni       9.07827967       6.60154145       6.59875314        1       1.00000000       0.04714276      -0.13683852      -0.08728322
Ni      11.64202842       6.59188696       6.61428897        1       1.00000000       0.04832823      -0.10751587      -0.08598051
