64
Lattice="10.169971937138703 0.014068202083638027 -0.012162444472059865 5.097169388959353 8.791899205238547 -0.027172551167622794 0.0 0.0 21.507286644067733" Properties=species:S:1:pos:R:3:tags:I:1:initial_magmoms:R:1:forces:R:3 unique_id=3577aa36abfb4f2eadfda98a5dabc6b7 energy=-370.44643903592385 stress="0.004542499111567471 3.334708978370073e-05 -2.0660453274427753e-05 3.334708978370073e-05 0.004209785706361269 -0.00027548032886120724 -2.0660453274427753e-05 -0.00027548032886120724 -0.0023535006742521417" pbc="T T T"
Ni       0.00542917       0.02658523       0.17140172        2       1.00000000       0.12845453       0.03109744      -0.45700345
Ni       2.53916385       0.00484368       0.18576988        2       1.00000000      -0.00414740       0.02445132      -0.22444159
Ni       5.08594490      -0.02257184       0.06285655        1       1.00000000      -0.02437114       0.06239496       0.12441867
Ni       7.62833931      -0.00708992       0.12859734        1       1.00000000      -0.04069709       0.06754607      -0.54325572
Ni       1.23308509       2.20771086       0.09227574        1       1.00000000      -0.01466934       0.02251206       0.35454191
Pt       3.75506057       2.20682519       0.16198260        2       0.00000000      -0.02250081       0.02454203      -0.61433585
Pt       6.41025238       2.21193946       0.06769245        1       0.00000000       0.01973179      -0.01563038      -0.13526532
Ni       8.94250367       2.24446619       0.11759554        1       1.00000000       0.00523869       0.14929749      -0.18117906
Ni       2.53207638       4.42015826       0.03832572        0       1.00000000      -0.01882850      -0.01158867       0.18551201
Ni       5.06003965       4.41338049       0.04862840        0       1.00000000      -0.11512542      -0.04072290       0.10062113
Ni       7.68592606       4.40012976       0.05319556        1       1.00000000       0.17704553       0.03605954       0.11079518
Ni      10.16601950       4.39240113       0.04022467        0       1.00000000      -0.04969243      -0.00813790       0.23357074
Ni       3.80735179       6.57344646       0.03152585        0       1.00000000       0.06268786      -0.06648336       0.03862605
Pt       6.35932835       6.62291597       0.00000000        0       0.00000000       0.04877103       0.16480715      -0.33030978
Ni       8.91890288       6.58240384       0.10722920        1       1.00000000      -0.07519273      -0.12974085      -0.22393906
Ni      11.44153123       6.59052463       0.00096093        0       1.00000000      -0.09070265      -0.08078852       0.09271190
Ni       1.31007960       0.76677665       2.15862082        4       1.00000000       0.05454523       0.16695056       0.09421090
Ni       3.76825956       0.73675122       2.19385751        4       1.00000000      -0.10814969      -0.03096642       0.15939299
Ni       6.34252149       0.76290596       2.17115184        4       1.00000000      -0.03331754       0.05181381       0.11261296
Pt       8.93290020       0.81807291       2.16324280        4       0.00000000      -0.00813611       0.01077191       0.15390535
Ni       2.52973372       2.89846502       2.23128652        4       1.00000000       0.00323878      -0.08955158       0.24378003
Ni       5.06628757       2.93512481       2.19235386        4       1.00000000      -0.05432871       0.03976639       0.14291838
Ni       7.66055775       2.95647682       2.18169982        4       1.00000000       0.05003462       0.07690958       0.19723561
Ni      10.17878521       2.93792261       2.16634461        4       1.00000000       0.05246993      -0.03143641       0.18394741
Ni       3.82866170       5.07605153       2.16162924        4       1.00000000      -0.01446215      -0.17291399       0.05300765
Pt       6.36541191       5.12509026       2.16633636        4       0.00000000      -0.02049767       0.02476459      -0.06938595
Ni       8.89588357       5.09350144       2.15873944        4       1.00000000       0.00536855      -0.10467862       0.10469887
Pt      11.43498348       5.04263442       2.16547334        4       0.00000000       0.00114289      -0.09156467       0.08172321
Ni       5.10771938       7.32597502       2.13858117        3       1.00000000      -0.01991634      -0.01174601       0.05077638
Ni       7.63205281       7.34920657       2.14122003        3       1.00000000      -0.02157612      -0.01807460       0.06451683
Pt      10.10993553       7.35628564       2.16275587        4       0.00000000      -0.03902531       0.00116295       0.07036573
Pt      12.73679515       7.29630443       2.09760183        3       0.00000000       0.05938798      -0.08020625       0.04192771
Ni       0.02798689       1.51959383       4.30153170        6       1.00000000       0.08343142       0.08232391      -0.06706313
Ni       2.50295981       1.50552143       4.26046089        6       1.00000000      -0.05512169       0.05872348      -0.14707816
Pt       5.07494187       1.40465712       4.23590494        5       0.00000000      -0.05993043      -0.09806771       0.04972549
Ni       7.64081266       1.48030194       4.28845464        6       1.00000000       0.11823551      -0.00770199      -0.15975868
Ni       1.27180687       3.64546577       4.33822754        6       1.00000000       0.02343573      -0.04740174       0.00055350
Ni       3.76612913       3.70775648       4.26579602        6       1.00000000      -0.05857825       0.01233321      -0.21478982
Pt       6.38096184       3.68559011       4.34009355        6       0.00000000       0.00575704       0.01297071       0.02253015
Ni       8.94769580       3.69560985       4.26388886        6       1.00000000       0.12653261       0.02667886      -0.17841494
Ni       2.52417050       5.79560848       4.34664070        6       1.00000000      -0.07947926      -0.09253282      -0.05642442
Ni       5.05118918       5.82347992       4.31926156        6       1.00000000      -0.08282765      -0.04932016      -0.14059627
Ni       7.68018020       5.84356351       4.28575863        6       1.00000000       0.18862988      -0.00601386      -0.21382241
Ni      10.19098861       5.82456674       4.29880155        6       1.00000000       0.04618716      -0.13548211      -0.07218884
Pt       3.79010632       8.00254248       4.29359143        6       0.00000000      -0.03258977      -0.01698605       0.13080146
Pt       6.41716433       8.03621855       4.19456015        5       0.00000000       0.04402722       0.06577450      -0.00804378
Ni       8.92602101       8.02702416       4.27624714        6       1.00000000      -0.04263359      -0.05301150      -0.10825840
Ni      11.41094871       8.00550923       4.29152752        6       1.00000000      -0.01554820      -0.16327299      -0.05978921
Pt      -0.00515440      -0.04166697       6.50728664        9       0.00000000      -0.12324091       0.06961248       0.42719390
Pt       2.57998345       0.00037024       6.47257397        9       0.00000000       0.10221302       0.06943375       0.25846765
Ni       5.08023326      -0.02553844       6.42416175        8       1.00000000      -0.10189942       0.01734987      -0.04425215
Pt       7.51878693      -0.03883265       6.47329003        9       0.00000000       0.06352414       0.12848742       0.38530601
Ni       1.26900567       2.24579993       6.40603351        8       1.00000000       0.06786607       0.02773363      -0.20250000
Pt       3.81141288       2.29480783       6.37161422        8       0.00000000      -0.09799131       0.19315494       0.58197629
Ni       6.34606318       2.21482018       6.36407311        8       1.00000000      -0.00432131       0.03485243       0.39503297
Pt       8.89796876       2.29476874       6.41200892        8       0.00000000      -0.06462827      -0.08876035       0.06330158
Ni       2.51638345       4.42981452       6.39624447        8       1.00000000       0.02165276      -0.00648693      -0.29459310
Ni       5.08252339       4.43973129       6.41885519        8       1.00000000      -0.06046368       0.04744400      -0.10541817
Ni       7.60138503       4.41239213       6.42549588        8       1.00000000      -0.02009155       0.03825858      -0.00095290
Ni      10.22998565       4.39637090       6.39225703        8       1.00000000       0.09202373      -0.01595646      -0.28362977
Ni       3.80335227       6.49656824       6.41157293        8       1.00000000      -0.03140744      -0.02923407      -0.17123726
Ni       6.34027190       6.51801633       6.31197808        7       1.00000000       0.03651496       0.01096298       0.18170790
Pt       8.95163719       6.50971692       6.40105268        8       0.00000000      -0.04410814      -0.00232689       0.00579356
Ni      11.46230936       6.53780883       6.38323257        8       1.00000000       0.06204937      -0.05415586      -0.19028089
