64
Lattice="10.311877321709343 -0.007799208263254851 0.012286954918917457 5.149184348369291 8.921812772984849 0.007041404636416484 0.0 0.0 21.538305049627635" Properties=species:S:1:pos:R:3:tags:I:1:initial_magmoms:R:1:forces:R:3 unique_id=d86085bb20944aee92352f7003c00dbc energy=-375.80145589464996 stress="0.00573555820226283 0.0002230399855390725 0.000260043202046069 0.0002230399855390725 0.0059336867905686284 3.5977379538882816e-05 0.000260043202046069 3.5977379538882816e-05 -0.0017747263896707392" pbc="T T T"
Ni      -0.01859646       0.02602712       0.12985002        1       1.00000000      -0.04266040       0.01156380       0.01063848
Ni       2.57616368       0.00129492       0.14083250        1       1.00000000      -0.01466362       0.03209336      -0.12459259
Ni       5.15895346      -0.01187913       0.09742004        1       1.00000000       0.00570714       0.22876565      -0.38119943
Ni       7.75838458      -0.04242446       0.05344812        1       1.00000000       0.03635841      -0.06213640       0.41716640
Ni       1.26768984       2.22511597       0.01968885        0       1.00000000       0.01976563      -0.07520727       0.29250132
Pt       3.80716502       2.23745161       0.12611647        1       0.00000000       0.03993112       0.00663729      -0.55273165
Pt       6.47320358       2.16941724       0.13198428        1       0.00000000      -0.01366663      -0.05804054      -0.46188853
Ni       9.04226080       2.18645939       0.08514934        1       1.00000000      -0.08499141      -0.12722145      -0.05665182
Ni       2.57700907       4.47921187       0.00636874        0       1.00000000       0.13177390       0.00443329       0.20573981
Ni       5.12371758       4.47443692       0.12267048        1       1.00000000      -0.03961217       0.02869513       0.08367034
Pt       7.80050783       4.46711596       0.04378876        0       0.00000000      -0.00935753      -0.04455185       0.04174963
Ni      10.34100510       4.46322386       0.00000000        0       1.00000000       0.05093794       0.02220085       0.18271310
Ni       3.83073549       6.69582298       0.12615179        1       1.00000000      -0.03360929      -0.01960554       0.10248333
Pt       6.41184787       6.73512693       0.13160680        1       0.00000000      -0.09917067       0.03578291      -0.47826819
Ni       9.04051028       6.69937900       0.01683332        0       1.00000000      -0.08911841      -0.01685131       0.14431685
Ni      11.61959511       6.69496576       0.00160908        0       1.00000000       0.16175806       0.06062908       0.17218081
Ni       1.28552337       0.72771150       2.08671390        2       1.00000000      -0.04832893      -0.02662693      -0.04887580
Ni       3.86677715       0.75121846       2.13688241        2       1.00000000       0.10415173       0.01564958       0.12767267
Ni       6.47555919       0.74945471       2.17861962        3       1.00000000       0.10034180       0.11166112       0.21388044
Ni       9.00177422       0.71681969       2.11936644        2       1.00000000      -0.10255600      -0.01309318       0.02765346
Ni       2.59344772       2.98600232       2.15054088        3       1.00000000       0.04723046       0.13305192       0.08812379
Ni       5.13944584       2.98856452       2.17979442        3       1.00000000      -0.12190232       0.03172285       0.18502816
Ni       7.73673085       2.95571184       2.17903181        3       1.00000000       0.03114166      -0.05761808       0.16841335
Pt      10.27813859       2.91145049       2.12461676        2       0.00000000       0.04532250       0.03345026       0.02387158
Ni       3.90875275       5.20670802       2.14876581        2       1.00000000       0.16360598      -0.02271237       0.13826380
Ni       6.42462190       5.20497911       2.16838508        3       1.00000000      -0.05930163       0.06518169       0.13382245
Ni       8.98894906       5.20216424       2.17154484        3       1.00000000      -0.09072024      -0.04977083       0.18272071
Pt      11.67583610       5.20361345       2.08661502        2       0.00000000       0.09785329      -0.02323514       0.00178237
Ni       5.11253084       7.42769525       2.13116845        2       1.00000000      -0.13112246      -0.10295264       0.00789294
Ni       7.72685309       7.42932689       2.13729740        2       1.00000000       0.05866300      -0.08815488       0.04011099
Pt      10.29444852       7.45179266       2.05239859        2       0.00000000       0.04598171      -0.07707689      -0.10350622
Ni      12.92576944       7.44497025       2.10545962        2       1.00000000       0.03715754       0.05456327      -0.04357726
Ni      -0.02593420       1.50792669       4.27428726        5       1.00000000      -0.04262750      -0.05072200      -0.21374789
Pt       2.58223270       1.51713643       4.17810702        4       0.00000000      -0.04652913      -0.01455060      -0.08272238
Ni       5.17356790       1.51153715       4.24610950        4       1.00000000      -0.00131069       0.10505891      -0.38180172
Ni       7.76741746       1.50411715       4.24786695        4       1.00000000       0.08926804       0.06556478      -0.35557702
Pt       1.30071730       3.72107729       4.36215681        6       0.00000000       0.00933226      -0.07884723       0.02628949
Ni       3.88362335       3.76385488       4.24502092        4       1.00000000       0.05896561       0.07030276      -0.31171900
Pt       6.46423594       3.73600098       4.18869028        4       0.00000000      -0.06529819      -0.00056286       0.02515976
Ni       9.00280355       3.69901694       4.29202962        5       1.00000000      -0.06890258      -0.09291221      -0.29495103
Ni       2.60825493       5.91981728       4.28808862        5       1.00000000       0.11368796      -0.01469073      -0.20140570
Ni       5.12779302       5.91718632       4.24063442        4       1.00000000      -0.09397998      -0.02559838      -0.36700155
Ni       7.73563292       5.90070806       4.26385131        5       1.00000000      -0.06824367      -0.02899946      -0.33367157
Pt      10.27586172       5.89869567       4.36516439        6       0.00000000       0.03030426       0.03729712      -0.09936746
Pt       3.86001950       8.19053618       4.20441906        4       0.00000000       0.00196407       0.04438328      -0.04098671
Pt       6.41441488       8.13879775       4.16860399        4       0.00000000      -0.04949957      -0.07720748      -0.16565265
Pt       9.00856718       8.16495132       4.26293158        5       0.00000000      -0.09446179       0.02129697      -0.00604767
Pt      11.63850868       8.20411650       4.27683515        5       0.00000000       0.03495470       0.03552933       0.00710757
Pt      -0.02371746       0.03936143       6.50287114        8       0.00000000       0.03243205       0.02792332       0.09678778
Pt       2.58310173      -0.00031767       6.53830505        8       0.00000000       0.03802418      -0.04344256       0.38818835
Pt       5.21049658      -0.09184931       6.52493975        8       0.00000000      -0.09726697       0.14355085       0.44809991
Ni       7.74032190      -0.01273116       6.47044522        8       1.00000000       0.02890452       0.08767474      -0.10843628
Ni       1.28135267       2.27808790       6.46633126        8       1.00000000      -0.01698385      -0.05101384      -0.04726241
Pt       3.81665830       2.27759545       6.39770206        7       0.00000000       0.21812812      -0.09804943       0.52941887
Pt       6.49284191       2.20558902       6.38512799        7       0.00000000      -0.06360783      -0.04396357       0.50950275
Pt       9.07570589       2.31158386       6.44430771        7       0.00000000      -0.00394785       0.08903466      -0.00322032
Ni       2.51729908       4.47394125       6.45607954        8       1.00000000      -0.02716609       0.07728304      -0.08578380
Pt       5.13560546       4.47069179       6.45954197        8       0.00000000      -0.04774534       0.04896591       0.13122882
Ni       7.79314078       4.47617214       6.36981518        7       1.00000000       0.09621377       0.05262218      -0.02798328
Ni      10.32562913       4.48162413       6.48499829        8       1.00000000      -0.03190162       0.05253272      -0.06521473
Pt       3.75195990       6.68153236       6.48129407        8       0.00000000       0.12173384      -0.09796120      -0.05221768
Pt       6.50629566       6.63715981       6.39357073        7       0.00000000      -0.12436199      -0.04072038       0.45315277
Ni       9.05063702       6.62466620       6.47714628        8       1.00000000      -0.06224040      -0.07334387      -0.01230657
Ni      11.58263481       6.63638126       6.48199642        8       1.00000000      -0.06473851      -0.13766150      -0.09896394
