64
Lattice="10.021626964103469 -0.01216314000933049 0.017719950000143987 5.000279893813862 8.705859162354587 0.03174283738486009 0.0 0.0 21.33595668148196" Properties=species:S:1:pos:R:3:tags:I:1:initial_magmoms:R:1:forces:R:3 unique_id=8c6635fdb8b94d42875709b3a0bace29 stress="0.004311067040822892 -5.631828162917889e-05 1.2463033087361826e-05 -5.631828162917889e-05 0.004564534831308797 0.0002771130170199952 1.2463033087361826e-05 0.0002771130170199952 -0.001940353003977031" energy=-364.74080029784625 pbc="T T T"
Ni      -0.01367352      -0.05027117       0.04433246        0       1.00000000       0.02707893       0.06955451       0.08473468
Ni       2.50016784      -0.07447412       0.05971936        1       1.00000000      -0.05116838       0.07776289       0.13864929
Ni       4.98350588      -0.02061999       0.01968086        0       1.00000000      -0.07892432      -0.06351417      -0.00109443
Ni       7.55834934       0.03396304       0.00960756        0       1.00000000       0.02573743      -0.02181309       0.02987490
Pt       1.17289615       2.12501492       0.12398329        1       0.00000000       0.06723738      -0.00782766      -0.64633621
Pt       3.82629067       2.12296526       0.13450400        1       0.00000000      -0.09810811       0.10356997      -0.66370163
Ni       6.31614369       2.18637654       0.01254574        0       1.00000000      -0.05919247       0.07934087      -0.03426148
Ni       8.73014985       2.16149675       0.02167254        0       1.00000000       0.08199416      -0.03602384       0.01798001
Pt       2.53045531       4.39139322       0.04811908        0       0.00000000      -0.02258200      -0.04243868      -0.24932399
Ni       5.06297896       4.37806357       0.12361938        1       1.00000000       0.02207974      -0.04056698      -0.38482445
Ni       7.52901870       4.37113823       0.01857290        0       1.00000000      -0.03068179       0.08055205       0.10174504
Ni       9.94194781       4.34935500       0.07639246        1       1.00000000      -0.02387018       0.01014066       0.17376537
Ni       3.82165019       6.56849744       0.03895487        0       1.00000000      -0.02165994      -0.07647841       0.10531267
Ni       6.26666158       6.55818065       0.04632015        0       1.00000000       0.00705030      -0.04094177       0.09408874
Ni       8.69974545       6.52681023       0.07208845        1       1.00000000      -0.04284095      -0.04899291       0.22060926
Pt      11.19930801       6.57588388       0.00000000        0       0.00000000      -0.04598711      -0.09347325      -0.19473775
Ni       1.25867455       0.70306544       2.14991788        2       1.00000000       0.02502162       0.12068808      -0.01232374
Ni       3.70133925       0.67974547       2.18253581        3       1.00000000      -0.03638636       0.00410713       0.10236288
Pt       6.20872084       0.71103366       2.12720431        2       0.00000000      -0.07702094      -0.00102607      -0.13014249
Ni       8.83851496       0.72168761       2.12216472        2       1.00000000       0.05386814       0.03698170       0.05038424
Ni       2.49806063       2.90902234       2.21184299        3       1.00000000       0.01100946       0.05813983       0.15941405
Ni       4.98377066       2.92933425       2.20143233        3       1.00000000      -0.05780438       0.00361520       0.19220356
Pt       7.58528647       2.91443451       2.14866314        2       0.00000000       0.08155735      -0.00709544       0.00855356
Ni      10.04897471       2.92183007       2.20962485        3       1.00000000       0.14759477       0.03680545       0.08187227
Ni       3.75201975       5.05464185       2.17978575        3       1.00000000      -0.06832864      -0.08169156       0.12854843
Pt       6.26163943       5.14646344       2.16380796        3       0.00000000       0.08064633       0.08499703       0.06445962
Ni       8.81354273       5.11791291       2.14917345        2       1.00000000       0.07861169       0.04833833       0.14796454
Ni      11.23075925       5.04270111       2.19911690        3       1.00000000       0.02262474       0.02007044       0.07654899
Ni       5.03088464       7.29757027       2.11229809        2       1.00000000       0.01589394       0.02229475       0.03657773
Ni       7.54391247       7.28188669       2.12321970        2       1.00000000       0.05323887       0.01212010       0.11111790
Ni       9.94923550       7.22449214       2.18604012        3       1.00000000       0.06842967      -0.04786386       0.11320095
Pt      12.57006668       7.21165451       2.20617364        3       0.00000000       0.00674780      -0.10859155      -0.10587852
Ni      -0.05468649       1.47360381       4.15891664        5       1.00000000      -0.03302321       0.02470187      -0.07336676
Ni       2.52135660       1.46530314       4.13534221        4       1.00000000       0.00920761       0.06771743      -0.08223797
Ni       5.04238658       1.43524963       4.20114991        5       1.00000000      -0.06296765       0.02301826       0.06994332
Ni       7.53323605       1.44229643       4.27896990        6       1.00000000      -0.01817166      -0.02206530      -0.04628501
Ni       1.24415360       3.68130789       4.17449528        5       1.00000000      -0.00404844       0.02926215      -0.05021824
Ni       3.74329308       3.65696442       4.17301045        5       1.00000000      -0.02421541      -0.02508448      -0.04020188
Ni       6.28644666       3.61231728       4.25186993        6       1.00000000       0.00063230      -0.01811745       0.06380396
Ni       8.79351463       3.64341956       4.27523921        6       1.00000000       0.09105664       0.02229658       0.00551692
Ni       2.49763352       5.80372868       4.25341485        6       1.00000000      -0.01707558      -0.05402393      -0.06079004
Ni       4.97047186       5.82381042       4.22728782        5       1.00000000      -0.11420402      -0.00130390      -0.01481376
Ni       7.56057788       5.78941922       4.27817520        6       1.00000000       0.08025147      -0.00326162       0.05631368
Ni      10.01562160       5.80382349       4.24590051        5       1.00000000       0.00029600      -0.00978557      -0.13222954
Ni       3.72692390       8.00452840       4.28368289        6       1.00000000      -0.01793906       0.02243200      -0.03290290
Pt       6.26479513       7.98530784       4.24444752        5       0.00000000       0.03848499      -0.00633534       0.13872720
Ni       8.80831070       7.97281919       4.26087581        6       1.00000000       0.02148232      -0.02825508      -0.05477642
Ni      11.26175065       7.97517650       4.29828831        6       1.00000000      -0.01253041      -0.02828001      -0.06878479
Ni      -0.04674645      -0.01932650       6.30325455        8       1.00000000      -0.06340903       0.08232822      -0.14259310
Ni       2.52964628      -0.04862516       6.30567104        8       1.00000000       0.06460322       0.07400195      -0.04004225
Ni       5.05800917      -0.05009978       6.27372773        8       1.00000000       0.02659676      -0.06003372      -0.15280915
Ni       7.52014208       0.00420994       6.28018781        8       1.00000000      -0.05536951      -0.05960325      -0.16745419
Pt       1.18057046       2.19053335       6.20252056        7       0.00000000      -0.04831191      -0.00414081       0.60197651
Pt       3.79886254       2.12667708       6.21337164        7       0.00000000       0.01413305       0.00831995       0.71790427
Ni       6.33041738       2.15249127       6.28259809        8       1.00000000      -0.14395809       0.02959676      -0.09542490
Ni       8.71534567       2.17623275       6.28906552        8       1.00000000       0.10593955      -0.04202095      -0.18233658
Ni       2.47684359       4.41830228       6.19727766        7       1.00000000      -0.00209332      -0.03088921       0.19899106
Pt       5.05482721       4.42186412       6.31336965        8       0.00000000      -0.05370258      -0.05763539       0.22121060
Ni       7.57334244       4.35875590       6.29546387        8       1.00000000      -0.00532578       0.05758453      -0.08518871
Ni       9.99369388       4.40221886       6.29208818        8       1.00000000       0.04574058       0.01408300      -0.23541250
Ni       3.73091440       6.58519774       6.28908416        8       1.00000000      -0.05203637      -0.04942368      -0.15623471
Ni       6.29425869       6.56366002       6.33595668        8       1.00000000       0.02685932      -0.08496181      -0.01810793
Ni       8.77691698       6.53089378       6.30734289        8       1.00000000       0.08060442      -0.01269897      -0.26679233
Ni      11.27029413       6.53660999       6.20208021        7       1.00000000      -0.03937293      -0.00816200       0.30727214
