64
Lattice="9.965042142293788 0.0062379229809521874 -0.003811540180190756 4.9879232709152515 8.653521641027702 0.015990887264956635 0.0 0.0 21.406552041063037" Properties=species:S:1:pos:R:3:tags:I:1:initial_magmoms:R:1:forces:R:3 unique_id=63944da2ce314392a7e775f9e0d0abfa energy=-362.28728684343486 stress="0.0014470797406766836 9.793449641110877e-05 1.6592321866635696e-05 9.793449641110877e-05 0.0015874515088745537 0.00017776021433919356 1.6592321866635696e-05 0.00017776021433919356 -0.004778342665859029" pbc="T T T"
Ni       0.05571723       0.00122702       0.12380187        1       1.00000000      -0.05258884      -0.02901630      -0.06446883
Ni       2.48891411      -0.01200194       0.24326663        2       1.00000000       0.03337315      -0.05283485      -0.56449070
Ni       4.93075390      -0.00256894       0.12406596        1       1.00000000       0.02493640       0.00767599       0.09526392
Pt       7.47746909       0.04822837       0.00000000        0       0.00000000      -0.02211233       0.14703032      -0.37695541
Ni       1.22959905       2.11950335       0.13288880        1       1.00000000       0.13637516       0.04556545      -0.03259510
Ni       3.72318662       2.09328875       0.19500602        2       1.00000000      -0.11593833      -0.00365446      -0.51893425
Ni       6.20400809       2.20521510       0.06813247        1       1.00000000       0.01846816      -0.03459054      -0.08696336
Ni       8.77305328       2.20254449       0.08352463        1       1.00000000      -0.08299449      -0.04163600      -0.15943306
Pt       2.51688620       4.30626789       0.03331767        0       0.00000000       0.10952861      -0.11466066      -0.31751650
Ni       5.04607388       4.36382271       0.09668402        1       1.00000000      -0.06815200       0.03389565       0.02069895
Ni       7.47830776       4.37124292       0.08344403        1       1.00000000       0.00839518       0.05520275       0.07276251
Ni       9.90809877       4.32945893       0.08798899        1       1.00000000       0.03069895       0.02056899       0.04184656
Ni       3.81270672       6.49228717       0.09878023        1       1.00000000       0.00717082       0.00274349      -0.05081062
Ni       6.25370648       6.49997207       0.13006897        1       1.00000000       0.11295607       0.00844887       0.03930686
Ni       8.70646922       6.50055226       0.12488162        1       1.00000000      -0.06099407       0.02085132       0.13165786
Ni      11.15083991       6.50556485       0.08472745        1       1.00000000       0.00252387       0.01405478      -0.06081689
Ni       1.25976119       0.72562418       2.13725221        3       1.00000000       0.01106680      -0.01752164       0.11557864
Ni       3.71462742       0.67972577       2.19621116        4       1.00000000       0.01578565      -0.02447685       0.21422180
Ni       6.18293625       0.71354763       2.19025656        4       1.00000000      -0.03116550       0.01373670       0.09734656
Ni       8.77281642       0.72740372       2.14853085        3       1.00000000       0.02104688       0.01099323      -0.00332961
Ni       2.45574615       2.83205095       2.20112149        4       1.00000000      -0.02495233      -0.00115828       0.16023531
Pt       4.93611382       2.89533901       2.19902156        4       0.00000000       0.02947211       0.04092290       0.01742114
Pt       7.52639635       2.90782116       2.17874554        4       0.00000000      -0.01205636       0.00102318      -0.04606898
Ni       9.99163919       2.86415070       2.12963734        3       1.00000000       0.00453612      -0.01864035       0.00950812
Ni       3.77765926       5.07446535       2.20108684        4       1.00000000      -0.03604230       0.02402707       0.07784856
Ni       6.23632357       5.11399481       2.17931566        4       1.00000000      -0.00159447      -0.02228679       0.09333488
Ni       8.68180255       5.11177767       2.17612266        4       1.00000000      -0.00471151       0.02961247       0.07461516
Pt      11.15291687       5.02480710       2.22357009        4       0.00000000      -0.05075897       0.07580533      -0.03522350
Ni       5.02777859       7.20561871       2.12691562        3       1.00000000       0.03433456       0.00842507       0.01508557
Ni       7.49844128       7.19652984       2.15332599        4       1.00000000       0.01115780      -0.03143624       0.09849876
Ni       9.91006858       7.24800482       2.18085963        4       1.00000000       0.01666767       0.00101341       0.10337117
Pt      12.48365867       7.24777273       2.22063281        4       0.00000000      -0.03089435      -0.04479253      -0.08286140
Pt      -0.03243111       1.49616233       4.26542284        6       0.00000000       0.00997391      -0.04320433       0.03371568
Ni       2.52737293       1.47530750       4.21914476        5       1.00000000       0.04401447      -0.03346961      -0.04458417
Ni       5.00181244       1.41748982       4.26427512        6       1.00000000      -0.04088058      -0.05697646      -0.00275214
Ni       7.42236796       1.44875433       4.27074149        6       1.00000000      -0.02434505       0.01727610      -0.12542406
Ni       1.25613294       3.63387974       4.30488625        6       1.00000000      -0.02583612      -0.03309992      -0.03130964
Ni       3.72425962       3.65682747       4.25336934        6       1.00000000      -0.02668809      -0.01354592      -0.05022113
Ni       6.23009677       3.63393032       4.31636361        6       1.00000000      -0.01747602      -0.01057584       0.00216377
Ni       8.71290385       3.67707134       4.30298796        6       1.00000000       0.00189393       0.02507035      -0.03496676
Ni       2.49758147       5.78924409       4.31019923        6       1.00000000      -0.02682032       0.08186228      -0.12578906
Ni       4.96017190       5.72792006       4.26799572        6       1.00000000       0.01621677      -0.02042936      -0.10105933
Ni       7.50100312       5.73610459       4.27292820        6       1.00000000       0.00003302      -0.00599334      -0.03088484
Ni       9.95136708       5.79433017       4.30710558        6       1.00000000      -0.00050680       0.00027811      -0.04864456
Ni       3.71259897       7.91492840       4.31014592        6       1.00000000       0.05069684      -0.01070726      -0.11371323
Pt       6.23959267       7.86556821       4.21606500        5       0.00000000       0.00803551      -0.03339283       0.05404880
Ni       8.77624823       7.92391243       4.25218154        6       1.00000000      -0.04166587      -0.00957867       0.00549811
Ni      11.18659090       7.93956595       4.28841244        6       1.00000000      -0.06719405      -0.02488988      -0.11528140
Ni      -0.06812749      -0.00959317       6.35134772        9       1.00000000      -0.01714763      -0.03600544       0.04424020
Pt       2.48771167      -0.04105704       6.40655204        9       0.00000000       0.16337673       0.14023667       0.38108581
Ni       5.04737569      -0.02087621       6.30459941        8       1.00000000      -0.08892080       0.04739523      -0.10137942
Ni       7.46325542       0.00819532       6.17726359        7       1.00000000       0.03014695       0.04342508       0.63588514
Ni       1.20747978       2.22170536       6.34698754        8       1.00000000       0.14436126       0.01202398       0.09203446
Pt       3.78403793       2.24131957       6.33860854        8       0.00000000      -0.11829524      -0.08299314       0.31054064
Ni       6.28579744       2.18251864       6.29631797        8       1.00000000      -0.02434913      -0.01184771       0.04857476
Ni       8.68534787       2.20445368       6.33403498        8       1.00000000      -0.03373396      -0.01790394       0.02948575
Ni       2.47111828       4.39486757       6.19927705        7       1.00000000       0.06496602      -0.04539708       0.67065997
Ni       5.01501414       4.38561170       6.30559618        8       1.00000000      -0.03878947      -0.06159325      -0.03510610
Ni       7.47742942       4.33616936       6.31238758        8       1.00000000       0.02059111       0.01819148      -0.02980130
Ni       9.95743950       4.34950906       6.30870432        8       1.00000000       0.00389435      -0.01695448      -0.05670303
Ni       3.73005270       6.49436493       6.30856315        8       1.00000000      -0.03258055       0.00166561      -0.09198809
Ni       6.20564905       6.43204426       6.34647282        8       1.00000000       0.05871870       0.03318471      -0.06883771
Ni       8.75414485       6.44508338       6.31946733        8       1.00000000      -0.06650387       0.02452571      -0.10930151
Ni      11.21229990       6.50471897       6.29892153        8       1.00000000       0.04127589      -0.00146833      -0.06831975
