64
Lattice="9.824219056593137 0.009391859300328273 -0.008631638214370073 4.920243117039423 8.522111064303344 -3.381953804285687e-15 -0.0070477030898382295 0.004068993276083498 8.390348456011127" Properties=species:S:1:pos:R:3:tags:I:1:initial_magmoms:R:1:forces:R:3 unique_id=f3731c2559454041ab94c4de7328cc0b stress="-0.00030088211054563746 5.653486084209072e-07 8.195589669331194e-07 5.653486084209072e-07 -0.0003002293022023317 -4.731725903054605e-07 8.195589669331194e-07 -4.731725903054605e-07 -0.0002532466890166618" energy=-376.8495813856667 pbc="T T T"
Ni      -0.00072231       0.00413449       0.11337275        4       1.00000000       0.01213231       0.00238736       0.01793507
Ni       2.45636700       0.00189882       0.20659299        4       1.00000000       0.00874564       0.01100879       0.31706951
Ni       4.91481938       0.00313139       0.10923711        4       1.00000000      -0.01632791       0.00942692       0.04205535
Ni       7.36487801       0.00971830       0.10160196        4       1.00000000      -0.00680847      -0.00444315       0.01655081
Ni       1.22454336       2.13371325       0.11397453        4       1.00000000      -0.00347411       0.00200578       0.04158426
Ni       3.68666064       2.13282990       0.20659299        4       1.00000000      -0.00516107      -0.01307834       0.31706951
Ni       6.14379988       2.13625000       0.10470422        4       1.00000000      -0.01633244       0.00683668       0.03358243
Ni       8.59704641       2.13848745       0.09648676        4       1.00000000      -0.00794445       0.00412908       0.01710308
Ni       2.45617983       4.25961383       0.11337275        4       1.00000000       0.00399864      -0.01170057       0.01793507
Ni       4.91844110       4.26248526       0.11187816        4       1.00000000      -0.01456156      -0.00930142       0.02504729
Ni       7.37168900       4.26606443       0.09867751        4       1.00000000      -0.00689811       0.00398263       0.02175780
Ni       9.82690342       4.26866228       0.09648676        4       1.00000000      -0.00754812       0.00481556       0.01710308
Ni       3.68883665       6.39236023       0.20396796        4       1.00000000      -0.00724485       0.00418281       0.27772605
Ni       6.14816470       6.39242903       0.11187816        4       1.00000000       0.00077449       0.01726139       0.02504729
Ni       8.60221785       6.39435482       0.10470422        4       1.00000000      -0.01408696       0.01072596       0.03358243
Ni      11.05438739       6.40013600       0.10160196        4       1.00000000       0.00044365       0.00811789       0.01655081
Ni       1.21623111       0.71853288       2.13002760        3       1.00000000      -0.01585086       0.01884447       0.03736394
Ni       3.69267183       0.70873862       2.14075419        3       1.00000000       0.01347942      -0.00778235       0.09055156
Ni       6.14182030       0.71725653       2.11529167        3       1.00000000       0.01365665       0.00542844      -0.00578655
Ni       8.59323577       0.72130891       2.11148778        3       1.00000000      -0.01007233       0.01264721      -0.02756072
Ni       2.44596939       2.84850206       2.13002760        3       1.00000000      -0.02424522       0.00430501       0.03736394
Ni       4.92533348       2.85029512       2.13118271        3       1.00000000       0.02859609       0.00561600       0.04988769
Ni       7.37145391       2.84796319       2.11812257        3       1.00000000       0.01665798       0.00666140      -0.00245297
Ni       9.82130471       2.85177815       2.11629944        3       1.00000000      -0.02749293       0.01587305      -0.00296122
Ni       3.68635655       4.96515080       2.12655520        3       1.00000000      -0.00802342      -0.00117979       0.00176362
Ni       6.14551874       4.97399417       2.11696149        3       1.00000000       0.01487513      -0.00858816      -0.01051027
Ni       8.59968316       4.97531865       2.11812257        3       1.00000000       0.00256004      -0.01775693      -0.00245297
Ni      11.05231072       4.98055167       2.11148778        3       1.00000000      -0.01598897       0.00239929      -0.02756072
Ni       4.92359622       7.10811278       2.12655520        3       1.00000000      -0.00298998       0.00753838       0.00176362
Ni       7.37460344       7.09255512       2.13118271        3       1.00000000       0.00943444      -0.02757294       0.04988769
Ni       9.83011245       7.10556593       2.11529167        3       1.00000000       0.00212716      -0.01454123      -0.00578655
Ni      12.27551896       7.11624426       2.12416240        3       1.00000000      -0.01754647       0.01013046       0.01436944
Ni      -0.01090680       1.43003276       4.15482717        2       1.00000000      -0.01060131       0.01997541      -0.07675183
Ni       2.43577303       1.43440948       4.10914929        2       1.00000000       0.04256990      -0.02457774       0.12827057
Ni       4.93812985       1.41530644       4.12529275        2       1.00000000      -0.01753694       0.03597453       0.07207603
Ni       7.37165178       1.43317207       4.14827089        2       1.00000000       0.02044325       0.01180087      -0.09947232
Ni       1.21622347       3.55548472       4.15482717        2       1.00000000      -0.02259987      -0.00080670      -0.07675183
Ni       3.68478965       3.58512226       4.11614127        2       1.00000000      -0.00083643      -0.05475732       0.08809119
Ni       6.15054328       3.55473655       4.15386405        2       1.00000000       0.02677833      -0.00442848      -0.06204012
Ni       8.59639271       3.55898142       4.15576979        2       1.00000000       0.00128756      -0.00074338      -0.08907914
Ni       2.43253239       5.67618756       4.12383075        2       1.00000000       0.04168050       0.04238828       0.01289949
Ni       4.93325916       5.67389256       4.11947414        2       1.00000000      -0.06234102       0.03599261       0.00722228
Ni       7.37714416       5.67927159       4.15386405        2       1.00000000       0.01722434      -0.02097647      -0.06204012
Ni       9.82502714       5.68254285       4.14827089        2       1.00000000       0.00000178      -0.02360481      -0.09947232
Ni       3.68090825       7.83843797       4.12383075        2       1.00000000      -0.01586908      -0.05729051       0.01289949
Ni       6.11795255       7.79948402       4.11614127        2       1.00000000       0.04700302       0.02810303       0.08809119
Ni       8.62373827       7.79896748       4.12529275        2       1.00000000      -0.03992333      -0.00279983       0.07207603
Ni      11.06207676       7.81682544       4.14851334        2       1.00000000       0.01182814      -0.00682898      -0.06078558
Ni      -0.04927271       0.05201138       6.18112258        1       1.00000000      -0.04289513       0.06220113      -0.13589193
Pt       2.42587905      -0.05008028       6.22822452        1       0.00000000      -0.07667124      -0.13355752       0.03077767
Ni       4.96456054      -0.02558667       6.17939669        1       1.00000000       0.02355310      -0.01359839      -0.10513136
Ni       7.34491872       0.05249221       6.17676795        1       1.00000000      -0.01410356       0.03623778      -0.11099555
Ni       1.16423783       2.16853066       6.18496800        1       1.00000000      -0.01445670       0.00834658      -0.10112709
Pt       3.71643188       2.18522279       6.22822452        1       0.00000000       0.07732859       0.13317801       0.03077767
Ni       6.20249627       2.14324381       6.18072398        1       1.00000000       0.04514687       0.02814669      -0.08962053
Ni       8.58957521       2.15317967       6.17842397        1       1.00000000       0.01282804       0.04222503      -0.07968584
Ni       2.39044202       4.27772126       6.18112258        1       1.00000000      -0.07531532       0.00604771      -0.13589193
Ni       4.97694803       4.27858907       6.17961931        1       1.00000000       0.06278642      -0.02766894      -0.13198968
Ni       7.38528486       4.25821486       6.18061711        1       1.00000000       0.07966958      -0.04599725      -0.07101747
Ni       9.81044399       4.26778642       6.17842397        1       1.00000000      -0.03015393      -0.03222192      -0.07968584
Pt       3.67545982       6.40008335       6.23045359        1       0.00000000      -0.00082726       0.00047762       0.02127530
Ni       6.16347186       6.33370863       6.17961931        1       1.00000000       0.05535521      -0.04054017      -0.13198968
Ni       8.62550922       6.34002535       6.18072398        1       1.00000000      -0.00180231      -0.05317169      -0.08962053
Ni      11.00736445       6.39603429       6.17676795        1       1.00000000      -0.03843462      -0.00590485      -0.11099555
