64
Lattice="10.759345224524079 0.005339774813551695 0.002026036765350466 5.38429699290106 9.306670448031545 0.000900600701833847 0.0016542520917425152 -0.00010598840593093678 9.388230226565742" Properties=species:S:1:pos:R:3:tags:I:1:initial_magmoms:R:1:forces:R:3 unique_id=0f3f2b9c1f064bf3964d87e71c5f53c9 stress="-8.257146054115039e-05 -4.034471731857748e-07 3.392800620821131e-06 -4.034471731857748e-07 -8.314111179421463e-05 4.871623096082112e-06 3.392800620821131e-06 4.871623096082112e-06 -4.44747523322131e-05" energy=-427.6646065495458 pbc="T T T"
Ni      -0.00606622      -0.00060850       0.08312910        4       1.00000000       0.00672856       0.00396736       0.26412595
Pt       2.68600183       0.03336635       0.01016947        4       0.00000000       0.03264449       0.05526025      -0.13008088
Pt       5.38423541       0.03918457       0.00166105        4       0.00000000      -0.05230966       0.06817603      -0.17198711
Ni       8.07401701       0.00811391       0.08347665        4       1.00000000      -0.00790728       0.02031473       0.28394443
Pt       1.36339405       2.29635699       0.08626288        4       0.00000000      -0.00714538      -0.06594328       0.08511388
Ni       4.04037790       2.32094397       0.02429291        4       1.00000000       0.02032664      -0.04809479       0.08964804
Pt       6.70763981       2.29937003       0.00929074        4       0.00000000      -0.00790436      -0.04549910      -0.13468214
Pt       9.41009330       2.26565576       0.09238912        4       0.00000000      -0.02168863      -0.19824865       0.02482683
Pt       2.71170777       4.62401480       0.09097790        4       0.00000000       0.04619457      -0.03466900       0.09088428
Pt       5.36500311       4.62098873       0.08551609        4       0.00000000      -0.03327475      -0.03998239       0.06490294
Pt       8.06682293       4.64347256       0.08911310        4       0.00000000      -0.02449762      -0.05485323       0.07309574
Pt      10.76554669       4.64841698       0.09412214        4       0.00000000       0.01403674      -0.04707717       0.09488252
Pt       4.03885463       7.04222094       0.09319142        4       0.00000000       0.01790961       0.19801047       0.06778648
Pt       6.70974169       7.02115548       0.08636962        4       0.00000000      -0.03193401       0.11910134       0.03066318
Pt       9.41859544       6.99915042       0.08381246        4       0.00000000      -0.01564809       0.06884626       0.10328071
Pt      12.12580541       7.02134166       0.09229695        4       0.00000000       0.03406803       0.11354828       0.08216772
Pt       1.33951476       0.75830825       2.36589149        3       0.00000000       0.05219362      -0.02706430       0.10045804
Pt       4.03468011       0.78670846       2.34809770        3       0.00000000       0.02939514      -0.00265765       0.06072491
Pt       6.73237906       0.77527743       2.33864017        3       0.00000000      -0.04949800       0.01856446       0.02417659
Pt       9.41731153       0.76256939       2.31461294        3       0.00000000      -0.00624331      -0.02971435      -0.03201501
Pt       2.70512977       3.08569970       2.34963013        3       0.00000000       0.04403390      -0.08399407       0.06689209
Pt       5.37312729       3.08604337       2.34818765        3       0.00000000       0.00102187      -0.10405433       0.06518225
Pt       8.06339025       3.09507047       2.36842837        3       0.00000000      -0.04812202      -0.05764001       0.05901913
Pt      10.76496421       3.09496034       2.36850564        3       0.00000000       0.01136404      -0.06138033       0.06854827
Pt       4.04128186       5.43544078       2.37057198        3       0.00000000       0.02642288       0.01378642       0.10845341
Pt       6.72253295       5.43241545       2.36985839        3       0.00000000      -0.02608716      -0.02133642       0.06660485
Pt       9.41445672       5.43603744       2.37501791        3       0.00000000      -0.02205584       0.02431519       0.06627465
Pt      12.11261761       5.43366899       2.37201109        3       0.00000000       0.02741755       0.00431908       0.07889733
Pt       5.39160853       7.77581209       2.37090446        3       0.00000000       0.05679308       0.00733156       0.14586706
Pt       8.06397065       7.77424326       2.39913573        3       0.00000000       0.00066957       0.09521002       0.18511021
Pt      10.75990223       7.77185816       2.37379045        3       0.00000000      -0.04329943       0.10043436       0.11615462
Pt      13.45747808       7.77806332       2.34991552        3       0.00000000      -0.02654026       0.02896661       0.12276589
Pt       0.02509125       1.51212229       4.67447069        2       0.00000000       0.04562785      -0.10862970      -0.08599917
Pt       2.69534759       1.51034564       4.73005129        2       0.00000000      -0.00613927      -0.06305832       0.00593809
Pt       5.37003040       1.54878316       4.78134912        2       0.00000000      -0.03077551      -0.00535721       0.26741961
Pt       8.05583753       1.55099549       4.70228728        2       0.00000000       0.00109400      -0.06149972      -0.06161619
Pt       1.35285933       3.86292688       4.67269151        2       0.00000000       0.02599554      -0.08985963      -0.09037636
Pt       4.03946936       3.85232588       4.69105777        2       0.00000000      -0.01610824      -0.08494200      -0.10542573
Pt       6.72203913       3.86417428       4.70078505        2       0.00000000      -0.02696847      -0.03195410      -0.07890024
Pt       9.41437374       3.87726346       4.67139299        2       0.00000000      -0.00178482      -0.04357397      -0.08910714
Pt       2.70030985       6.20811058       4.67663679        2       0.00000000       0.03400785       0.03807048      -0.05801049
Pt       5.40145848       6.23034307       4.68038181        2       0.00000000       0.00950394       0.02120523      -0.03058384
Pt       8.05615937       6.24296847       4.67465381        2       0.00000000      -0.03007023       0.06377095      -0.07421270
Pt      10.75595193       6.21958763       4.67287706        2       0.00000000      -0.02744347       0.06044626      -0.07535090
Pt       4.07181914       8.53967271       4.67287587        2       0.00000000       0.02655453       0.04667788      -0.03750780
Ni       6.73295155       8.53725914       4.69887486        2       1.00000000      -0.01099774       0.03915251       0.00759284
Pt       9.38433272       8.55784387       4.73726360        2       0.00000000      -0.05097373       0.04566726       0.04490407
Pt      12.09633690       8.55204612       4.70268002        2       0.00000000      -0.01438175       0.04624185      -0.03750394
Pt       0.03652430      -0.00099542       7.00310817        1       0.00000000       0.03115082       0.03269685       0.03038015
Ni       2.70591996       0.01370010       6.94445500        1       1.00000000       0.09919758       0.07732766      -0.33525477
Ni       5.36958408       0.03088475       6.94783567        1       1.00000000      -0.08377309       0.17428981      -0.32968842
Pt       8.02047397       0.03661000       7.02212915        1       0.00000000      -0.15516284       0.11305338       0.08911178
Pt       1.40619867       2.28573143       6.95271869        1       0.00000000       0.16456628      -0.10051737      -0.01463652
Ni       4.05210858       2.30414619       6.99616545        1       1.00000000       0.09022978      -0.16677366      -0.15318571
Ni       6.70312136       2.31360196       6.95508281        1       1.00000000      -0.11511597      -0.08523439      -0.30891581
Pt       9.39204821       2.31780001       6.95530238        1       0.00000000       0.01718071      -0.02486155      -0.08617280
Pt       2.71378978       4.61733480       6.95315811        1       0.00000000       0.04104129      -0.07734903      -0.07759982
Pt       5.38205987       4.58478053       6.94777088        1       0.00000000       0.00182393      -0.21227403      -0.07322118
Pt       8.05391251       4.63746040       6.94623487        1       0.00000000      -0.02185993       0.02017043      -0.09323784
Pt      10.76206188       4.65773392       6.95151643        1       0.00000000      -0.00048439      -0.00372290      -0.09721666
Pt       4.04121177       6.98974693       6.95518834        1       0.00000000      -0.00071753       0.03323895      -0.07505285
Pt       6.74821507       7.02342296       6.92952601        1       0.00000000       0.04335841       0.08365902      -0.11280089
Pt       9.41567056       7.04986956       6.94646693        1       0.00000000       0.00572312       0.17704736      -0.01939153
Pt      12.09091807       7.01846510       6.95510748        1       0.00000000      -0.04136318       0.06894832      -0.06606408
