64
Lattice="10.131757030162582 -0.011770314470871575 0.0017904697035961376 5.055685123739042 8.74405478024656 -0.009080003370519773 0.0014619123912408807 -0.00940474478793626 8.667156708348775" Properties=species:S:1:pos:R:3:tags:I:1:initial_magmoms:R:1:forces:R:3 unique_id=90a3fd388f4a4a9ba3b4ac159c1bc716 stress="-0.002071462714919259 -9.448226174242483e-08 -6.550564855076141e-06 -9.448226174242483e-08 -0.0020612798968707713 -2.074085591257548e-06 -6.550564855076141e-06 -2.074085591257548e-06 -0.0018267693591688047" energy=-390.2666638109195 pbc="T T T"
Ni       0.03699531       0.00666921       0.17348886        4       1.00000000       0.08497356       0.10545876       0.11584458
Ni       2.51959090      -0.03508122       0.20888092        4       1.00000000      -0.00492574      -0.02871783       0.13227624
Ni       5.07523420      -0.02253300       0.09170043        4       1.00000000      -0.02648999      -0.01323633      -0.02240851
Ni       7.56500647      -0.01581774       0.17872555        4       1.00000000      -0.00362205       0.03821918       0.11906850
Ni       1.26713108       2.20630993       0.12718837        4       1.00000000       0.01200285       0.05969950       0.09806172
Pt       3.78642024       2.18719352       0.19364021        4       0.00000000      -0.00936854      -0.02713589      -0.05298206
Ni       6.32274635       2.19322062       0.11906112        4       1.00000000      -0.00268876       0.06367838       0.10762958
Pt       8.86657360       2.24149106      -0.00860105        4       0.00000000       0.01324848       0.01615617      -0.26694336
Ni       2.49942850       4.40048024       0.10642013        4       1.00000000      -0.01653051       0.00186548       0.05280400
Ni       5.05773379       4.38816173       0.06912683        4       1.00000000      -0.01939980      -0.01560973      -0.00225919
Ni       7.59664392       4.39714126       0.06092423        4       1.00000000       0.04227900       0.03183979      -0.02230780
Ni      10.15534672       4.40667822       0.10561060        4       1.00000000       0.00063073       0.06089606       0.03441052
Ni       3.79559215       6.51612683       0.04102498        4       1.00000000       0.02588660      -0.04990548      -0.05066533
Ni       6.34534150       6.55303616       0.03376930        4       1.00000000       0.00896288       0.02477406      -0.11718455
Ni       8.82577437       6.52741157       0.15880278        4       1.00000000      -0.09200483      -0.03014151       0.11075244
Ni      11.37124078       6.51889455       0.03521663        4       1.00000000      -0.04629808       0.00562214      -0.10693785
Ni       1.32557094       0.77959724       2.19788639        3       1.00000000      -0.02296817       0.05631598       0.09561499
Ni       3.75107217       0.71777198       2.20540964        3       1.00000000      -0.03324052      -0.01946318       0.04866188
Ni       6.30296778       0.76130300       2.14103853        3       1.00000000      -0.02293491      -0.01389070       0.01698645
Pt       8.87387475       0.81380665       2.21028370        3       0.00000000       0.00209060       0.02120394      -0.00648619
Ni       2.51125892       2.92291766       2.21174776        3       1.00000000       0.02810229       0.00137315       0.03666877
Ni       5.05836395       2.90535775       2.19719636        3       1.00000000      -0.00736070      -0.00750170       0.02623626
Ni       7.59887205       2.91432234       2.18926579        3       1.00000000       0.03006252       0.00377550      -0.01725297
Ni      10.15999728       2.95121576       2.17601737        3       1.00000000      -0.00563205       0.00666968      -0.04601814
Ni       3.77201027       5.01856277       2.17153788        3       1.00000000       0.02950108      -0.04541085      -0.00577512
Pt       6.37502794       5.05794905       2.13094542        3       0.00000000       0.02561975      -0.00064934      -0.03800059
Ni       8.89009585       5.04113169       2.18479024        3       1.00000000       0.02817412      -0.05843439       0.03821345
Ni      11.37741299       5.03115059       2.14824211        3       1.00000000      -0.00779612      -0.01315469       0.00092319
Pt       5.12465105       7.27938632       2.14818547        3       0.00000000      -0.03066711       0.00795364       0.02618671
Ni       7.59880674       7.30447266       2.19259694        3       1.00000000      -0.01828358      -0.00497394       0.09244173
Pt      10.05492171       7.26806716       2.18579972        3       0.00000000       0.01128004      -0.00385589      -0.00442100
Pt      12.62296064       7.18880679       2.13999813        3       0.00000000       0.03478345      -0.03957143       0.01399009
Ni       0.02397412       1.47413084       4.31151084        2       1.00000000       0.05672173      -0.04838852      -0.02972952
Ni       2.49791890       1.43118198       4.24833256        2       1.00000000       0.02330867      -0.02735591       0.02406564
Pt       5.06198739       1.38126926       4.24240240        2       0.00000000       0.00400888      -0.05045456       0.01400144
Ni       7.61623859       1.46989162       4.31666901        2       1.00000000      -0.03664314      -0.04408238      -0.04099935
Pt       1.26182555       3.64780018       4.29849750        2       0.00000000       0.02431231      -0.03457324       0.00951108
Ni       3.78759044       3.69652158       4.25490718        2       1.00000000       0.03417098       0.01391468      -0.08363899
Pt       6.35969354       3.65875462       4.35731605        2       0.00000000       0.01064812      -0.01128209      -0.00898480
Ni       8.87603644       3.65583746       4.29129559        2       1.00000000       0.01621238       0.05542238      -0.15140409
Ni       2.52331418       5.79651226       4.33039209        2       1.00000000       0.02291719      -0.02891976      -0.08189495
Ni       5.05650756       5.80723444       4.34203763        2       1.00000000       0.01160444       0.00984892      -0.09020206
Ni       7.61567811       5.84679791       4.28822601        2       1.00000000       0.05192210      -0.00419647      -0.05163419
Ni      10.12293187       5.80512301       4.28880166        2       1.00000000      -0.02603840      -0.05168177      -0.03255274
Pt       3.78298615       7.97375085       4.33026520        2       0.00000000      -0.02077986       0.05188250       0.04817961
Ni       6.37443545       7.99593253       4.27442061        2       1.00000000       0.00125860       0.01836657       0.03413263
Ni       8.82927358       7.96805872       4.28081245        2       1.00000000      -0.04398824      -0.05016032       0.04935965
Ni      11.35189995       7.94045044       4.31848109        2       1.00000000      -0.01873224      -0.07217613       0.00502679
Pt      -0.00030285       0.00867452       6.47689327        1       0.00000000      -0.03070578       0.01334118       0.15667031
Pt       2.55849746      -0.01486073       6.42604138        1       0.00000000       0.00211068       0.02302988       0.14913221
Ni       5.06491974      -0.03053822       6.40574383        1       1.00000000      -0.06709662      -0.02448465      -0.06805383
Pt       7.50557302      -0.00778744       6.47938494        1       0.00000000      -0.08622504       0.00508449       0.15971093
Ni       1.23638868       2.23023615       6.41510090        1       1.00000000       0.00661017      -0.00608255       0.03807981
Pt       3.80378489       2.28719678       6.35183198        1       0.00000000      -0.03406628       0.10526995       0.02041018
Ni       6.35493226       2.21384082       6.43879364        1       1.00000000      -0.01770078       0.04904068       0.07782633
Ni       8.86203373       2.23666484       6.26159583        1       1.00000000      -0.00800878       0.01740785      -0.27697511
Ni       2.51528792       4.43032023       6.41618096        1       1.00000000      -0.01137665       0.05979646       0.02421842
Ni       5.07015855       4.43211090       6.41663758        1       1.00000000       0.00269501       0.10143057      -0.00616060
Ni       7.60046960       4.33674833       6.42200132        1       1.00000000       0.04328016      -0.02824583      -0.03309858
Ni      10.14462606       4.32084892       6.41670231        1       1.00000000       0.00908902      -0.07199854       0.01675076
Ni       3.79064742       6.47707615       6.40328022        1       1.00000000      -0.00652516      -0.00890299      -0.04573226
Ni       6.30667908       6.48567904       6.37274106        1       1.00000000       0.04750266       0.01713321      -0.18184782
Pt       8.90132103       6.45638376       6.42091034        1       0.00000000       0.02411379      -0.04844832       0.10470324
Ni      11.41446476       6.48828834       6.37636341        1       1.00000000       0.00801357      -0.06338384      -0.15599860
