64
Lattice="10.400889844713246 -0.042751551735648964 0.021398684014255168 5.1634209925023455 8.985479374578603 -0.026117635209036004 0.0 0.0 21.67621208335587" Properties=species:S:1:pos:R:3:tags:I:1:initial_magmoms:R:1:forces:R:3 unique_id=42f0f7096e2b4797891291c8fc6ee315 energy=-381.1600465009579 stress="0.006051931301465017 -0.0003531070053943181 0.0001834106395646019 -0.0003531070053943181 0.006227897953987923 -0.0003195979159020766 0.0001834106395646019 -0.0003195979159020766 -0.001025777713797884" pbc="T T T"
Ni       0.04805560      -0.00022865       0.13757731        1       1.00000000       0.18523844      -0.01267746       0.00911396
Ni       2.55924711      -0.00250196       0.16344704        2       1.00000000      -0.13460060       0.06399168       0.11548630
Pt       5.10444158      -0.04394709       0.11155947        1       0.00000000      -0.13580377       0.13823530      -0.86651951
Pt       7.86553729      -0.10222791       0.14511810        1       0.00000000       0.02141758      -0.12746510      -0.81149967
Ni       1.30043467       2.24939236       0.06242280        1       1.00000000      -0.01483924      -0.00945914       0.57907864
Pt       3.79565555       2.28804545       0.09168867        1       0.00000000       0.04397782      -0.00626281       0.21226092
Pt       6.46859994       2.28973265       0.13880052        1       0.00000000       0.00911933       0.12225234      -0.63956807
Pt       9.19700920       2.24751505       0.13422302        1       0.00000000      -0.07016318       0.09364467      -0.40486866
Ni       2.58661291       4.47611085       0.03537607        0       1.00000000       0.06397084      -0.01067791       0.41008756
Ni       5.14289700       4.50593021       0.13471338        1       1.00000000      -0.09570641       0.14287053       0.25978291
Pt       7.82871947       4.53700603       0.08546233        1       0.00000000      -0.04645363       0.03657341       0.12608510
Ni      10.40959978       4.44558625       0.04555266        0       1.00000000       0.10449405      -0.08543891       0.36371225
Ni       3.88979444       6.69777754       0.12925662        1       1.00000000       0.03489783      -0.15960785       0.25936829
Pt       6.44759092       6.76725278       0.15639769        2       0.00000000      -0.07829514       0.03126234      -0.24772158
Ni       9.05811180       6.70367736       0.03560615        0       1.00000000      -0.08346337       0.05173063       0.21562682
Pt      11.68842382       6.60567380       0.00000000        0       0.00000000       0.17918884       0.09238034      -0.18731090
Ni       1.33709657       0.74806728       2.18326370        3       1.00000000       0.21854842       0.10109708      -0.03736579
Ni       3.84567041       0.76074978       2.22729663        3       1.00000000      -0.12782930       0.09505243       0.21678273
Pt       6.45076251       0.77346068       2.28743675        4       0.00000000      -0.12237710       0.12801268       0.10268876
Pt       9.22474207       0.70513442       2.26612486        4       0.00000000       0.21319510       0.04523045       0.07226200
Ni       2.59915082       2.97076155       2.21294012        3       1.00000000       0.04792649      -0.03162816       0.18783703
Ni       5.14273708       3.02577704       2.24441295        3       1.00000000      -0.24203664       0.19293326       0.25157621
Ni       7.81482660       3.02815852       2.24291671        3       1.00000000       0.11045132       0.18812361       0.23736089
Ni      10.41840790       2.95727900       2.25247855        4       1.00000000       0.14429062       0.00838076       0.24365375
Ni       3.91786687       5.22313051       2.20953608        3       1.00000000       0.13805521      -0.06525849       0.15888641
Ni       6.46569407       5.22590853       2.23081162        3       1.00000000      -0.11115225       0.06747163       0.23401986
Ni       9.05004706       5.17673651       2.23591794        3       1.00000000      -0.10535929      -0.20304003       0.24329071
Pt      11.73667149       5.11740206       2.21021740        3       0.00000000       0.12111741      -0.17012349       0.06585636
Ni       5.17246155       7.43261641       2.19030505        3       1.00000000      -0.09892788      -0.23344113       0.15590685
Ni       7.74945733       7.45911922       2.19085872        3       1.00000000      -0.01416011      -0.06814448       0.08579090
Pt      10.29888922       7.38324488       2.19118366        3       0.00000000      -0.06698470      -0.30024327      -0.10902525
Ni      13.01583771       7.38735135       2.21095775        3       1.00000000       0.06729711      -0.24230185       0.17159012
Ni       0.02828846       1.50615022       4.39285852        6       1.00000000       0.12059732      -0.06171003      -0.22677630
Pt       2.63111843       1.52865763       4.36028838        6       0.00000000       0.01441531      -0.02746489      -0.20159274
Ni       5.17510550       1.50514872       4.40707082        6       1.00000000      -0.05390089       0.19643325      -0.27088437
Pt       7.84532018       1.52621599       4.36936772        6       0.00000000       0.10585587       0.04296173      -0.12982336
Pt       1.29726006       3.72051472       4.44257917        6       0.00000000      -0.02536988      -0.00378670      -0.00392510
Ni       3.89896568       3.74732938       4.38435849        6       1.00000000       0.04333782       0.13577725      -0.31627682
Pt       6.47173049       3.79359823       4.30175087        5       0.00000000      -0.08179881       0.12564021      -0.23419184
Ni       9.08653345       3.72289315       4.38883009        6       1.00000000      -0.08779455       0.05056867      -0.38822433
Ni       2.61383288       5.92643601       4.38689904        6       1.00000000       0.12676349      -0.25402990      -0.26237513
Ni       5.16254210       5.93011714       4.34938351        5       1.00000000      -0.10394538      -0.08575122      -0.43456816
Ni       7.78809200       5.91929352       4.37717465        6       1.00000000      -0.07042255      -0.02235015      -0.37679046
Pt      10.32629815       5.87299755       4.47271941        7       0.00000000      -0.12023859      -0.04901980      -0.12185452
Pt       3.89924226       8.13998042       4.30700053        5       0.00000000       0.04787578      -0.17558470      -0.13419141
Pt       6.46404158       8.17594601       4.26741059        5       0.00000000      -0.07432810      -0.01261123      -0.30684668
Pt       9.03457865       8.18602354       4.33929525        5       0.00000000      -0.07923210      -0.05569882      -0.15521514
Pt      11.69231915       8.13468402       4.36218164        6       0.00000000       0.08056220      -0.15935981      -0.23361001
Pt       0.03673584       0.02258688       6.63819936        9       0.00000000       0.02061918       0.09018348       0.09718821
Pt       2.62178855       0.02169658       6.67621208       10       0.00000000       0.00681948       0.04499923       0.14718597
Pt       5.18847576      -0.08121448       6.55947635        9       0.00000000       0.02851493       0.11697470       0.86398823
Pt       7.80806884      -0.07265253       6.59289452        9       0.00000000       0.02606862       0.18664030       0.94127963
Ni       1.33112616       2.27708785       6.60202766        9       1.00000000       0.05519280       0.08315367      -0.25891262
Ni       3.86600535       2.24324431       6.53888393        8       1.00000000      -0.02450182       0.00535870      -0.06850679
Pt       6.47815315       2.24136081       6.54652903        8       0.00000000      -0.00698182      -0.04453253       0.60568268
Pt       9.18579861       2.31695544       6.54134813        8       0.00000000       0.07931934       0.15384286       0.54534977
Ni       2.54981910       4.44469623       6.59004981        9       1.00000000      -0.09349305      -0.03183903      -0.36367910
Pt       5.12335437       4.42570352       6.59595797        9       0.00000000      -0.15500624       0.06057464      -0.06327289
Ni       7.83564170       4.47455305       6.52782987        8       1.00000000       0.11503961       0.09223263      -0.20129289
Ni      10.41577549       4.47285852       6.61720765        9       1.00000000       0.05426625       0.07442431      -0.26223600
Pt       3.81455485       6.64708971       6.59200626        9       0.00000000      -0.00265468      -0.08752654       0.00438067
Pt       6.54859366       6.65110860       6.52306625        8       0.00000000      -0.09442908      -0.09048593       0.22416138
Ni       9.10662931       6.64665149       6.60333071        9       1.00000000      -0.05278136      -0.05018926      -0.22451247
Ni      11.65963078       6.62690747       6.52780954        8       1.00000000       0.04659712      -0.12129813       0.13611667
