64
Lattice="10.331232192238705 -0.017533490478118793 0.037875922197202046 5.150431647948292 8.936431467672081 0.021386807754295224 0.030925560973499994 0.002308794768436441 8.817512933466034" Properties=species:S:1:pos:R:3:tags:I:1:initial_magmoms:R:1:forces:R:3 unique_id=427afae86df54082a8e90e9a9a2f73ae stress="0.0002532112522312807 5.003076976027604e-06 -2.8652345561947786e-05 5.003076976027604e-06 0.0002577804193041808 5.60619383097811e-06 -2.8652345561947786e-05 5.60619383097811e-06 0.0002484632629242631" energy=-398.8175904043892 pbc="T T T"
Ni      -0.01417193       0.03267647       0.20398406        4       1.00000000      -0.06066728       0.13942530       0.30837408
Ni       2.58069589       0.00194363       0.21932049        4       1.00000000      -0.00610237       0.03575963       0.42660292
Ni       5.16977577      -0.01759323       0.18239516        4       1.00000000       0.00693125       0.16107307       0.28867194
Ni       7.77445354      -0.04412354       0.14330968        4       1.00000000       0.11905107      -0.06842711       0.23727203
Ni       1.25383970       2.23693137       0.11894044        4       1.00000000      -0.13762980       0.00270790       0.25026917
Pt       3.81101241       2.23327486       0.20917408        4       0.00000000      -0.03623975       0.04845965       0.16628861
Pt       6.49277383       2.16648107       0.22479664        4       0.00000000       0.12358835      -0.07560601       0.20636455
Ni       9.08259401       2.19822081       0.21327915        4       1.00000000       0.11985519      -0.09251176       0.24333950
Ni       2.55740521       4.47542171       0.07364064        4       1.00000000      -0.02463010      -0.00818973      -0.02988887
Ni       5.15703588       4.46381253       0.18201646        4       1.00000000       0.19351767      -0.10088162       0.23172693
Pt       7.82079945       4.46675058       0.14222531        4       0.00000000       0.16681727      -0.02540739      -0.10871765
Ni      10.34990463       4.44224959       0.10778153        4       1.00000000       0.07494120      -0.11710959       0.06991301
Ni       3.83323757       6.73140412       0.19105297        4       1.00000000      -0.03211910       0.16329690       0.21849886
Pt       6.43075304       6.74956689       0.22843109        4       0.00000000      -0.03381241       0.04712630       0.14677817
Ni       9.05383833       6.70575311       0.11554679        4       1.00000000       0.01823777       0.03067629       0.07791616
Ni      11.62960947       6.69753837       0.10506366        4       1.00000000       0.13179591       0.05444822      -0.01960788
Ni       1.27149289       0.76687038       2.16695185        3       1.00000000      -0.14695532       0.15406779      -0.12092097
Ni       3.87597960       0.74675729       2.22507070        3       1.00000000       0.08121401       0.01424817      -0.01522841
Ni       6.49414029       0.74474763       2.27239004        3       1.00000000       0.13164077       0.06635920       0.13823666
Ni       9.04699215       0.75604463       2.21999553        3       1.00000000      -0.04338200       0.12962877      -0.02892870
Ni       2.55470886       2.95970736       2.22500641        3       1.00000000      -0.16848420       0.04431013      -0.08235768
Ni       5.17204633       2.95144657       2.27249492        3       1.00000000      -0.05322318      -0.14978562       0.03173346
Ni       7.80170139       2.94837273       2.26930045        3       1.00000000       0.26864479      -0.11225194      -0.06431770
Ni      10.30659052       2.91929237       2.23653432        3       1.00000000      -0.05737559      -0.09803735       0.03153681
Pt       3.88659302       5.19227863       2.18285728        3       0.00000000      -0.07349366      -0.07183693       0.00223440
Ni       6.49485456       5.19492002       2.24712265        3       1.00000000       0.13423450       0.00449998      -0.08068602
Ni       9.01121243       5.18070844       2.27377903        3       1.00000000      -0.04574535      -0.09102772       0.14122515
Pt      11.59426397       5.15836137       2.18423975        3       0.00000000      -0.10092147      -0.06388831      -0.02672333
Ni       5.13800438       7.49606627       2.20926320        3       1.00000000      -0.14560363       0.11043478      -0.11484475
Ni       7.74329389       7.44460684       2.23903791        3       1.00000000       0.03691086      -0.06728538      -0.01854171
Pt      10.30760559       7.45915413       2.15697480        3       0.00000000       0.02975059      -0.09386695      -0.03077505
Ni      12.92823834       7.46964567       2.22034183        3       1.00000000      -0.02559229       0.05001651      -0.07485683
Ni      -0.01941027       1.53315343       4.33513818        2       1.00000000      -0.07197897       0.09248178      -0.24595839
Pt       2.59670324       1.52710742       4.27113687        2       0.00000000       0.05344499       0.03708178      -0.04042500
Ni       5.19125709       1.50358436       4.34784159        2       1.00000000       0.02035449       0.04334647      -0.15924066
Ni       7.79502066       1.50064594       4.35255434        2       1.00000000       0.12056946       0.07969754      -0.23224189
Pt       1.28394401       3.71340734       4.42493708        2       0.00000000      -0.03190483      -0.06350814      -0.06265881
Ni       3.88247115       3.72915492       4.36582417        2       1.00000000       0.01077490      -0.02394466      -0.14329096
Pt       6.52444214       3.68337915       4.29307316        2       0.00000000      -0.01271072      -0.08841902       0.02920906
Ni       9.03998409       3.69016220       4.38383974        2       1.00000000       0.04193127      -0.09079476      -0.30483204
Ni       2.57237278       5.93771865       4.40233241        2       1.00000000      -0.05245349      -0.00311137      -0.14266968
Pt       5.15466501       5.92551277       4.32868864        2       0.00000000       0.00684268       0.02872472       0.04645769
Ni       7.77575913       5.90638566       4.37700890        2       1.00000000      -0.03479933      -0.05601046      -0.24074920
Pt      10.29660498       5.89905213       4.48225146        2       0.00000000      -0.04821535      -0.00165322      -0.09663139
Pt       3.85846594       8.25837277       4.30660583        2       0.00000000      -0.04061103       0.05343567      -0.05413951
Pt       6.44377855       8.20767453       4.27802410        2       0.00000000      -0.00169681       0.03520012      -0.03030092
Pt       9.03328742       8.17791806       4.37318129        2       0.00000000      -0.06633111       0.04070784       0.09608752
Pt      11.65601234       8.21483797       4.39101885        2       0.00000000       0.01946987       0.03324736      -0.02681544
Pt      -0.00811011       0.04128911       6.60100013        1       0.00000000      -0.06862734       0.02432028       0.18662941
Pt       2.60567209       0.00177931       6.63757762        1       0.00000000      -0.04241030       0.00652508       0.23322847
Pt       5.23324019      -0.09749860       6.62859359        1       0.00000000       0.02372844      -0.20935107       0.12090027
Ni       7.76649851      -0.01842468       6.58306315        1       1.00000000       0.02900994       0.05962263      -0.12794806
Ni       1.29713461       2.28410457       6.56258184        1       1.00000000      -0.00837794       0.05147602      -0.04541650
Pt       3.83501783       2.27558829       6.49938751        1       0.00000000      -0.08762584      -0.01011865      -0.26244848
Pt       6.51999787       2.19653504       6.50250162        1       0.00000000       0.03287748      -0.01557165      -0.22093871
Pt       9.10632197       2.30684780       6.56085971        1       0.00000000       0.09419403       0.13222731       0.08022046
Ni       2.53111770       4.47769643       6.55253892        1       1.00000000      -0.17449217       0.02321692      -0.16755196
Pt       5.16160141       4.46350993       6.59998918        1       0.00000000      -0.02804617       0.01872232       0.03513323
Ni       7.81687038       4.47869011       6.48915908        1       1.00000000       0.10546021       0.03887855      -0.31069326
Ni      10.35798399       4.48029673       6.60337676        1       1.00000000       0.03611191       0.10871657      -0.00823425
Pt       3.75519380       6.69981434       6.60942911        1       0.00000000      -0.16102444       0.00363803       0.12894286
Pt       6.53891918       6.65282728       6.52891910        1       0.00000000       0.02400148       0.00785418      -0.21748503
Ni       9.07893367       6.63214955       6.59334516        1       1.00000000       0.00692115      -0.17190516      -0.06570786
Ni      11.61084588       6.64212722       6.60006523        1       1.00000000      -0.13954015      -0.20515816      -0.15101780
