64
Lattice="10.374143951133892 -0.007948098305055868 0.02044284286746038 5.180188720522993 8.868642000008265 -0.02342881326562772 0.016691511305724147 -0.03172574552591314 8.819507285695396" Properties=species:S:1:pos:R:3:tags:I:1:initial_magmoms:R:1:forces:R:3 unique_id=73dfa9923bfd40c2aa0ac06a6f3bb40a stress="0.00032395647138069167 8.997847105442412e-07 -4.014486507911862e-06 8.997847105442412e-07 0.00034130920190682257 1.4200690930992012e-05 -4.014486507911862e-06 1.4200690930992012e-05 0.0003032314196140737" energy=-399.7851564381124 pbc="T T T"
Ni      -0.01133054      -0.01687488       0.17330782        4       1.00000000      -0.04529155       0.04490720       0.33373010
Ni       2.61095766      -0.01272844       0.19763485        4       1.00000000       0.07943742       0.01912106       0.37783063
Ni       5.18946904      -0.03514412       0.17509946        4       1.00000000       0.00411129      -0.01773473       0.19671927
Ni       7.77100191      -0.07017313       0.20025368        4       1.00000000      -0.03986204      -0.15763839       0.37174778
Pt       1.29936295       2.22472330       0.10268646        4       0.00000000       0.02403594       0.01688529      -0.01472839
Pt       3.86713534       2.17020341       0.19103043        4       0.00000000       0.01204419      -0.01022409       0.20627571
Pt       6.48246664       2.13147653       0.10698897        4       0.00000000       0.04701029      -0.08492228      -0.07142169
Pt       9.09952624       2.20072499       0.13029469        4       0.00000000       0.02733354      -0.02857019       0.10018172
Ni       2.56277185       4.48134050       0.04526177        4       1.00000000      -0.01970135       0.10003569       0.02756339
Pt       5.13661869       4.47311897       0.03004582        4       0.00000000      -0.07522882       0.08709514      -0.15417402
Pt       7.81503535       4.47870005       0.03934819        4       0.00000000       0.07189559       0.12162716      -0.11340294
Ni      10.40516154       4.47332125       0.06640752        4       1.00000000       0.05511096       0.13259685       0.06068275
Ni       3.83663615       6.69022013       0.06649252        4       1.00000000      -0.09320041       0.10088258       0.18266389
Pt       6.47250874       6.75431343       0.09665547        4       0.00000000      -0.03669061       0.09094885      -0.08773637
Ni       9.09911807       6.67787527       0.13361885        4       1.00000000      -0.02601833       0.05566570       0.14471146
Ni      11.68742256       6.64814637       0.06456004        4       1.00000000       0.10593573      -0.03301330       0.03345259
Ni       1.32869768       0.72411282       2.25383726        3       1.00000000       0.03282920       0.02871401       0.17630462
Ni       3.84806021       0.73420422       2.23402229        3       1.00000000      -0.19555853       0.02356515       0.08708616
Ni       6.49594812       0.73904142       2.23212790        3       1.00000000       0.08674470       0.01707652       0.09641794
Pt       9.09475956       0.72029421       2.26529519        3       0.00000000       0.05269220       0.21660170      -0.03460967
Ni       2.58412958       2.90761052       2.28666448        3       1.00000000      -0.03302370      -0.11226191       0.26108417
Ni       5.19793065       2.94148339       2.23945621        3       1.00000000      -0.00105216       0.10846475      -0.04131322
Ni       7.76405833       2.92969574       2.26565687        3       1.00000000       0.03671680      -0.07135956      -0.03917366
Ni      10.39766214       2.92120619       2.29323490        3       1.00000000       0.05435164      -0.10531675       0.19691998
Pt       3.89481590       5.17007573       2.24048452        3       0.00000000      -0.00029438      -0.03989832      -0.07098973
Ni       6.48770548       5.17488752       2.23090299        3       1.00000000       0.00336595       0.06936830      -0.05548187
Pt       9.03945141       5.13354777       2.29926492        3       0.00000000      -0.11969263      -0.05671358      -0.02356522
Pt      11.67820381       5.11135510       2.23701084        3       0.00000000       0.00258319      -0.11167550       0.09165863
Ni       5.21561389       7.39618149       2.20386646        3       1.00000000       0.07874919       0.01474283       0.09982706
Ni       7.73372912       7.41235806       2.21093149        3       1.00000000      -0.14307003       0.00604479       0.07659234
Pt      10.37607710       7.42074861       2.13642050        3       0.00000000       0.03141065      -0.07024106       0.03209267
Ni      12.97731599       7.37710596       2.17452257        3       1.00000000       0.02647215      -0.08613377       0.00780171
Ni       0.06335448       1.50670840       4.35222725        2       1.00000000       0.15391331       0.07286092      -0.11328399
Ni       2.53361551       1.50222207       4.34193126        2       1.00000000      -0.09633726       0.07254361      -0.10580177
Pt       5.17551387       1.49192865       4.29129965        2       0.00000000      -0.14891751       0.01769953       0.03799110
Ni       7.80377136       1.48026645       4.37243651        2       1.00000000       0.02742593      -0.05294220      -0.07119621
Ni       1.30199621       3.66758967       4.39546417        2       1.00000000       0.01274963      -0.03165045      -0.07222014
Ni       3.83214718       3.70319977       4.35852743        2       1.00000000      -0.14356171      -0.01749615      -0.12104815
Pt       6.56571583       3.68457896       4.36477921        2       0.00000000       0.05229096      -0.09819850      -0.20708817
Ni       9.12980501       3.69063329       4.36837288        2       1.00000000       0.20776372      -0.06003549      -0.10028994
Ni       2.57941330       5.83893028       4.41929551        2       1.00000000      -0.03184238      -0.13064927       0.05938505
Pt       5.21801322       5.89540106       4.40901924        2       0.00000000       0.09345489       0.00811271      -0.06866223
Ni       7.78514665       5.88195363       4.38267465        2       1.00000000      -0.02143787       0.04690606      -0.04545932
Ni      10.39386076       5.81905572       4.41630171        2       1.00000000       0.08919445      -0.14954819       0.04125488
Pt       3.92816134       8.11492189       4.32450319        2       0.00000000      -0.04753804      -0.00967989       0.14774967
Ni       6.48710894       8.13478029       4.31872861        2       1.00000000      -0.04392210       0.13917729      -0.16313707
Pt       8.98984733       8.08363621       4.29529734        2       0.00000000      -0.06951556      -0.03663416       0.09463435
Pt      11.68832336       8.04082569       4.33499874        2       0.00000000       0.01577812      -0.09139779       0.09973793
Pt       0.02615876      -0.05593722       6.56423455        1       0.00000000       0.05062071      -0.04232599       0.15978381
Pt       2.57750480      -0.02243566       6.56289491        1       0.00000000      -0.05873775       0.03081422       0.16274137
Pt       5.20758959      -0.03680443       6.61787078        1       0.00000000       0.00733402       0.03525256       0.05534998
Pt       7.79515595      -0.07018386       6.62062713        1       0.00000000      -0.09607396      -0.06305328       0.21575801
Ni       1.29998361       2.24909211       6.43261161        1       1.00000000      -0.02381865       0.12988926      -0.28041583
Pt       3.86385579       2.30913945       6.47145905        1       0.00000000      -0.06186503       0.21431608      -0.15352419
Ni       6.49920686       2.22358673       6.47589234        1       1.00000000      -0.02536254       0.03766411      -0.26510539
Pt       9.10395555       2.27756903       6.42211012        1       0.00000000       0.01551736       0.08792786      -0.29755970
Ni       2.56965167       4.45029550       6.49448925        1       1.00000000      -0.12855874       0.11746607      -0.25311341
Ni       5.19950050       4.43197044       6.45336559        1       1.00000000       0.01554680       0.04730730      -0.32727807
Ni       7.76472852       4.40702034       6.44553479        1       1.00000000      -0.10462255      -0.01936253      -0.31307497
Ni      10.43946705       4.40243123       6.50777384        1       1.00000000       0.27251473      -0.04955842      -0.25898150
Ni       3.87872033       6.56227086       6.52970126        1       1.00000000      -0.07729329      -0.17652228      -0.07323132
Ni       6.48664026       6.58095779       6.45925360        1       1.00000000       0.08548012      -0.04134246      -0.14652248
Pt       9.09467313       6.49691970       6.53771292        1       0.00000000       0.04698916      -0.10917275       0.06405702
Ni      11.70472742       6.54412733       6.53802127        1       1.00000000       0.02868493      -0.14700790      -0.15619713
