64
Lattice="10.275967897966886 -0.009723363824121947 -0.023889112710532623 5.129563268901514 8.846978938797484 -0.013554729337721984 -0.019505378849546916 -0.0015180856463703591 8.753927591289182" Properties=species:S:1:pos:R:3:tags:I:1:initial_magmoms:R:1:forces:R:3 unique_id=f7b29ad9c22c4c71910e589ea85524a8 stress="-0.0003340361570053213 5.552061497917466e-07 1.1548026305718717e-06 5.552061497917466e-07 -0.0003325471208209946 -8.347634302205569e-07 1.1548026305718717e-06 -8.347634302205569e-07 -0.0002777553377926456" energy=-397.0329022966022 pbc="T T T"
Ni      -0.00217293       0.02460017       0.18965417        4       1.00000000       0.00490663       0.10210478       0.22629822
Ni       2.56032816       0.00408051       0.21460663        4       1.00000000      -0.02142419       0.02582458       0.33512123
Ni       5.13221857      -0.02130805       0.14844658        4       1.00000000      -0.04964562       0.05604369       0.18611497
Ni       7.70688621      -0.05303579       0.15792726        4       1.00000000      -0.05087977      -0.10224145       0.29750636
Ni       1.24376781       2.21843999       0.19556288        4       1.00000000      -0.13912548       0.02956491       0.27151287
Pt       3.78515011       2.21495237       0.09604467        4       0.00000000      -0.08195311       0.05047435      -0.16060147
Pt       6.44322532       2.15191438       0.09248046        4       0.00000000       0.06980043      -0.07917947      -0.05060625
Ni       9.03161008       2.20627509       0.12762850        4       1.00000000       0.09858119       0.04180909       0.09020094
Ni       2.53580513       4.44354050       0.05306706        4       1.00000000      -0.10047447       0.02579226      -0.06847623
Ni       5.12496779       4.42913297       0.15128134        4       1.00000000       0.13204380      -0.06160499       0.27696033
Pt       7.77310194       4.42850418       0.08532926        4       0.00000000       0.11027602       0.01696157      -0.10458059
Ni      10.30118117       4.40630677       0.05447145        4       1.00000000       0.06352370      -0.04051577       0.01975848
Ni       3.80673648       6.65407983       0.07479129        4       1.00000000      -0.10050311       0.07789597       0.05690471
Pt       6.38130648       6.68586103       0.09222800        4       0.00000000      -0.08170560       0.03567583      -0.12521979
Ni       9.00187878       6.64518277       0.13831981        4       1.00000000      -0.03003588       0.02594981       0.17168113
Ni      11.57010996       6.62718470       0.03755361        4       1.00000000       0.03594765      -0.02821180      -0.05872129
Ni       1.28948224       0.75826146       2.15718957        3       1.00000000      -0.01868175       0.08608283       0.03392388
Ni       3.84470459       0.75371734       2.18579694        3       1.00000000       0.07276642       0.03747561       0.01942679
Ni       6.40987474       0.74460793       2.23092933        3       1.00000000       0.00195489       0.05846935       0.17603310
Pt       8.98677792       0.77450744       2.15995381        3       0.00000000      -0.03963457       0.09534396       0.06518440
Ni       2.54012396       2.93136947       2.18909200        3       1.00000000      -0.04339233       0.04388828      -0.04486955
Ni       5.13532695       2.91224776       2.21643573        3       1.00000000      -0.05471548      -0.11292193      -0.00344045
Ni       7.71901236       2.95716896       2.21372250        3       1.00000000       0.09196187       0.05452899      -0.05745833
Ni      10.26208238       2.93635420       2.18630265        3       1.00000000      -0.03000893       0.03007493       0.12538881
Pt       3.85315249       5.14166474       2.14808966        3       0.00000000      -0.03479622      -0.05217647      -0.03486257
Ni       6.45077066       5.15496172       2.19523568        3       1.00000000       0.08998038       0.03790802      -0.04472544
Ni       8.96261247       5.13449142       2.22734211        3       1.00000000      -0.01753668      -0.02490759       0.13298021
Pt      11.51553497       5.09644529       2.18247955        3       0.00000000      -0.03641754      -0.06148939      -0.02322410
Ni       5.12341626       7.38121150       2.16426511        3       1.00000000      -0.08684770      -0.01264069      -0.06561392
Ni       7.69009970       7.36057680       2.16726519        3       1.00000000       0.04119074      -0.09229510      -0.00190684
Pt      10.28596339       7.38453604       2.12712071        3       0.00000000       0.04462253      -0.01237854       0.03289996
Ni      12.82501245       7.36758478       2.13889692        3       1.00000000      -0.01249606      -0.06837320      -0.02184288
Ni      -0.02815064       1.53871771       4.32479038        2       1.00000000       0.00896174       0.13555300       0.00521840
Pt       2.57615842       1.56955168       4.25534460        2       0.00000000      -0.04113574       0.08470668       0.04942911
Ni       5.16123427       1.47905835       4.30449750        2       1.00000000       0.03433201      -0.04961239      -0.15776989
Ni       7.67873764       1.46742614       4.30213893        2       1.00000000       0.00402757      -0.06874892      -0.05171024
Ni       1.24468637       3.73734580       4.34489100        2       1.00000000      -0.01752927      -0.02756969      -0.02071280
Ni       3.81676290       3.69411527       4.33582090        2       1.00000000      -0.02560838       0.05232802      -0.12450160
Pt       6.46446246       3.62356751       4.27032717        2       0.00000000       0.00884202      -0.00373216      -0.04245286
Ni       9.02171565       3.70732286       4.28613966        2       1.00000000       0.11692066       0.01419237      -0.17434585
Ni       2.49503363       5.86566976       4.38812864        2       1.00000000      -0.07999118      -0.03893280      -0.06522860
Pt       5.10720882       5.86265074       4.32460538        2       0.00000000       0.06315753      -0.03150643       0.01962303
Ni       7.73319193       5.84250741       4.29716872        2       1.00000000       0.10679681      -0.02967111      -0.18020712
Ni      10.28845379       5.83578648       4.33776362        2       1.00000000      -0.00837948      -0.00698155      -0.05267764
Pt       3.74868347       8.10024640       4.28044305        2       0.00000000      -0.05440487      -0.07230369       0.13327150
Pt       6.41229745       8.11566354       4.23711531        2       0.00000000      -0.07287173       0.07480637       0.00421865
Pt       9.02757005       8.07826001       4.26220176        2       0.00000000      -0.00293409      -0.04092624       0.09301425
Ni      11.53959291       8.08768780       4.29616394        2       1.00000000      -0.01520091      -0.04905172      -0.04791999
Pt      -0.02237379      -0.05564886       6.55493379        1       0.00000000       0.02427686      -0.05251820       0.09169090
Pt       2.56968706      -0.00595920       6.56814413        1       0.00000000      -0.05916185      -0.00657848       0.23653177
Pt       5.14413141       0.03204719       6.50037262        1       0.00000000       0.06860624      -0.00042778       0.04543516
Pt       7.66712494      -0.05613381       6.51638299        1       0.00000000      -0.02724122      -0.08635065       0.13302332
Pt       1.29776620       2.32913996       6.51606709        1       0.00000000       0.09706234       0.06766681       0.18978054
Ni       3.85670966       2.24341356       6.39517586        1       1.00000000       0.01448829       0.03451400      -0.30184925
Ni       6.39737342       2.22059593       6.39335851        1       1.00000000      -0.00571029      -0.03059176      -0.23291442
Pt       8.93180836       2.29215449       6.43994350        1       0.00000000      -0.02072750       0.08488247      -0.04869891
Ni       2.54034252       4.47995783       6.45407186        1       1.00000000       0.00065359       0.11079346      -0.23455726
Pt       5.09076987       4.39402073       6.53076679        1       0.00000000      -0.00932952      -0.00744802       0.09376784
Ni       7.67392540       4.42154388       6.38422472        1       1.00000000      -0.09350478       0.01017056      -0.26184826
Ni      10.29421735       4.44248449       6.43044878        1       1.00000000       0.11475862       0.02552841      -0.22452372
Ni       3.79371083       6.58612928       6.48544936        1       1.00000000      -0.07071766      -0.08481894      -0.12133400
Ni       6.40368982       6.59021654       6.40619872        1       1.00000000       0.06291581      -0.07041676      -0.26750974
Pt       8.99733734       6.51138186       6.48445936        1       0.00000000       0.03524383      -0.05548390       0.07279412
Ni      11.56896392       6.55927595       6.43434199        1       1.00000000       0.01612276      -0.06440340      -0.20878312
