64
Lattice="10.3279740864166 -0.015523249773994118 0.0227763715136164 5.150543514554731 8.913896293598668 -0.008860353872347487 0.01859682946680754 -0.019090506241200924 8.89300657257076" Properties=species:S:1:pos:R:3:tags:I:1:initial_magmoms:R:1:forces:R:3 unique_id=0879222578f2428fab2b7041026badd1 stress="0.00032723143343740824 2.6683068875853604e-06 -1.499428451035069e-05 2.6683068875853604e-06 0.00032758093382805054 -3.5916426623479734e-06 -1.499428451035069e-05 -3.5916426623479734e-06 0.00031433851607955143" energy=-399.55957619793315 pbc="T T T"
Ni       0.04706835       0.00078193       0.16133277        4       1.00000000       0.14499695       0.07318957       0.27843121
Ni       2.54021089       0.00816338       0.19878690        4       1.00000000      -0.13475660       0.07556357       0.41730727
Pt       5.08655606      -0.05316919       0.12878477        4       0.00000000      -0.09528556      -0.01400006       0.19734195
Pt       7.79514078      -0.13121731       0.17291277        4       0.00000000       0.04417511      -0.10469164       0.31087454
Ni       1.29715281       2.23544038       0.09615172        4       1.00000000      -0.00367653       0.05851817       0.26091887
Pt       3.77399229       2.28593038       0.11391643        4       0.00000000      -0.03980959       0.11199876      -0.08474396
Pt       6.42782884       2.28313068       0.16535887        4       0.00000000      -0.00252295       0.10079670       0.25606482
Pt       9.14063409       2.24657892       0.16280722        4       0.00000000       0.07439889       0.00821555       0.22676574
Ni       2.57053045       4.48317036       0.05587438        4       1.00000000       0.04445170       0.08262894      -0.02965067
Ni       5.11143114       4.48726774       0.10081840        4       1.00000000      -0.10541538       0.12047028       0.24299143
Pt       7.78347956       4.51730031       0.11882157        4       0.00000000       0.05744580       0.07672380      -0.07040604
Ni      10.37388653       4.46583329       0.08818252        4       1.00000000       0.15776339       0.04162844       0.13502928
Ni       3.85218327       6.62659495       0.09141871        4       1.00000000      -0.04606933      -0.24220751       0.24586589
Pt       6.40166299       6.72693911       0.18572976        4       0.00000000      -0.06728610       0.02823814      -0.02293470
Ni       9.03188569       6.65397697       0.16301783        4       1.00000000      -0.05951810      -0.01468240       0.29986035
Ni      11.62183841       6.61044938       0.08091415        4       1.00000000       0.03320213      -0.14237165       0.09400607
Ni       1.33361166       0.73570919       2.22597810        3       1.00000000       0.15396783       0.00860449       0.05665371
Ni       3.81494440       0.76527216       2.25067080        3       1.00000000      -0.08667790       0.07698826       0.01300864
Pt       6.40950810       0.78639716       2.31141844        3       0.00000000      -0.13238124       0.07631875      -0.11308671
Pt       9.16622532       0.71515343       2.29116819        3       0.00000000       0.08716904       0.04734306      -0.06710345
Ni       2.58215544       2.95637741       2.24987969        3       1.00000000       0.02105378       0.02254531       0.05485511
Ni       5.10886620       3.02438675       2.27573505        3       1.00000000      -0.25278253       0.16340766       0.05963570
Ni       7.76881350       3.02845937       2.27310038        3       1.00000000       0.10413612       0.12908549       0.00015010
Ni      10.36461290       2.96294043       2.29777896        3       1.00000000       0.13606001      -0.02970154       0.22824659
Ni       3.90331308       5.18776124       2.23349188        3       1.00000000       0.13040791      -0.04208893       0.07685986
Ni       6.43354254       5.20417391       2.26653332        3       1.00000000      -0.07426625       0.15489884      -0.06426315
Ni       9.00079270       5.14892462       2.26733251        3       1.00000000      -0.07009037      -0.17183718       0.18193758
Pt      11.67944528       5.10210756       2.21133221        3       0.00000000       0.18377282      -0.12353945       0.04512257
Ni       5.17708004       7.38344153       2.25226397        3       1.00000000       0.08650214      -0.19262446       0.07667560
Ni       7.68724604       7.41871931       2.24884426        3       1.00000000      -0.20182390      -0.05801218       0.06573633
Pt      10.26945752       7.33085481       2.21772252        3       0.00000000       0.01703775      -0.07808598      -0.16356278
Ni      12.94796827       7.34080335       2.24801698        3       1.00000000       0.14376172      -0.26892373       0.04647390
Ni       0.05155936       1.51600344       4.39844499        2       1.00000000       0.08712581       0.09119853      -0.04333332
Pt       2.55145699       1.56943111       4.36420097        2       0.00000000       0.02530341      -0.02167757      -0.01926119
Ni       5.12532315       1.52041307       4.41267776        2       1.00000000      -0.13449976       0.16520728      -0.08702713
Pt       7.79693696       1.53366905       4.39728100        2       0.00000000       0.03336912       0.02549255       0.17594027
Ni       1.30566875       3.69620037       4.44150539        2       1.00000000       0.05929735      -0.00219900      -0.01893913
Ni       3.85806704       3.74458887       4.42956954        2       1.00000000      -0.09119192       0.15519161      -0.12961133
Pt       6.40917551       3.80143346       4.34399891        2       0.00000000      -0.04716130      -0.08969084      -0.05426256
Ni       9.05561347       3.70995580       4.39296924        2       1.00000000      -0.03726088      -0.04087680      -0.27617085
Ni       2.62485068       5.86142109       4.44400240        2       1.00000000       0.09056331      -0.26735936      -0.04897657
Ni       5.13928996       5.90241517       4.38130280        2       1.00000000      -0.08290924      -0.10771637      -0.25467855
Ni       7.72429687       5.91332115       4.37936056        2       1.00000000      -0.03583400       0.03411236      -0.24944008
Pt      10.33739172       5.79269917       4.44145531        2       0.00000000      -0.03048220      -0.07381746       0.03747632
Pt       3.96097713       8.05382838       4.35662216        2       0.00000000      -0.00498009      -0.09616041       0.15750943
Ni       6.44872298       8.13971057       4.36401635        2       1.00000000      -0.03806681      -0.02310850      -0.18541062
Pt       8.93815579       8.14715870       4.34138590        2       0.00000000      -0.04765341       0.00500503       0.06313861
Pt      11.63671048       8.07754350       4.38506553        2       0.00000000       0.08831271      -0.14616532       0.05772792
Pt       0.02466969       0.00011245       6.61517208        1       0.00000000       0.00103530       0.03894446       0.05675187
Pt       2.58056961       0.05430094       6.65230731        1       0.00000000      -0.00470688       0.08230177       0.19450270
Pt       5.16250505      -0.00693698       6.54316214        1       0.00000000       0.01639425       0.01082166      -0.40741793
Pt       7.77247115      -0.10274777       6.59078354        1       0.00000000      -0.03827366      -0.04632853      -0.18279696
Ni       1.33055994       2.29063689       6.58357984        1       1.00000000       0.15023243       0.24434627      -0.15244931
Ni       3.84686636       2.28738940       6.52475521        1       1.00000000      -0.13574595       0.25920999      -0.26102709
Pt       6.39970478       2.30803071       6.55494183        1       0.00000000      -0.07759502       0.18550182      -0.21584381
Pt       9.12813302       2.32022232       6.54208988        1       0.00000000       0.07682085       0.17238581      -0.17019052
Ni       2.59036397       4.45153291       6.57132220        1       1.00000000       0.00494189      -0.01000445      -0.25877274
Ni       5.09830143       4.44961634       6.58484912        1       1.00000000      -0.36111014       0.04427111      -0.18529892
Ni       7.75253487       4.43874207       6.52773794        1       1.00000000      -0.01908761       0.01901506      -0.32745471
Ni      10.40454871       4.42873401       6.61075582        1       1.00000000       0.35292887       0.02668531      -0.09634601
Ni       3.84490381       6.59275468       6.58211505        1       1.00000000      -0.10082643      -0.24357218      -0.15972237
Pt       6.40117918       6.57795895       6.49644516        1       0.00000000      -0.09387890      -0.06467784      -0.18424957
Pt       9.06872837       6.56717846       6.65094746        1       0.00000000       0.03185023      -0.07522580       0.11270403
Ni      11.65961845       6.58239429       6.61978133        1       1.00000000       0.11514791      -0.22550723      -0.14213157
