64
Lattice="10.156922367220162 -0.0015207692413051082 0.013038432280283384 5.077144158813873 8.709548376402033 -0.08969272453751144 0.010645835377509084 -0.09070948757904909 8.661882557252103" Properties=species:S:1:pos:R:3:tags:I:1:initial_magmoms:R:1:forces:R:3 unique_id=b1c3e18105b8475c894493a4273fc503 stress="-0.00647926076167523 8.859017115952996e-06 -4.065538379467175e-06 8.859017115952996e-06 -0.006457589183878669 2.646181619987905e-05 -4.065538379467175e-06 2.646181619987905e-05 -0.005649060583156659" energy=-389.91388384856725 pbc="T T T"
Ni       0.04538942      -0.04996808       0.19878125        4       1.00000000       0.08636545      -0.04368631       0.15867238
Ni       2.49139308      -0.03709808       0.20632614        4       1.00000000      -0.01116246      -0.04028120       0.09972044
Pt       5.09843552      -0.04012682       0.17479391        4       0.00000000      -0.00880543      -0.02745092      -0.14555116
Ni       7.64100444      -0.03026913       0.18617130        4       1.00000000       0.06764304      -0.04191782       0.10766248
Ni       1.26187803       2.18381761       0.10262292        4       1.00000000      -0.01813931       0.00083129       0.11727292
Pt       3.76167091       2.23316235       0.18248367        4       0.00000000      -0.04403325      -0.03032989      -0.06983029
Ni       6.35497143       2.21687857       0.10327033        4       1.00000000      -0.01575825       0.04272106       0.11702777
Pt       8.89888427       2.21869035      -0.00076006        4       0.00000000       0.02856812      -0.04346683      -0.26652629
Ni       2.50668776       4.38659116       0.05971566        4       1.00000000      -0.02997694      -0.00112442       0.05715145
Ni       5.08194054       4.38003286       0.03013730        4       1.00000000      -0.00151196      -0.02139064      -0.02648351
Ni       7.61250424       4.37544751       0.03950342        4       1.00000000       0.02343221      -0.00999328       0.01613127
Ni      10.18634616       4.37754917       0.07282989        4       1.00000000       0.01562126       0.00106791       0.07155715
Ni       3.84391674       6.48695260      -0.00371708        4       1.00000000       0.11094638      -0.10650523      -0.06023968
Ni       6.34180160       6.53559276       0.01651557        4       1.00000000       0.02035101      -0.00916794      -0.08181317
Ni       8.84229642       6.46465055       0.11771404        4       1.00000000      -0.10587405      -0.09799158       0.14884828
Ni      11.43194448       6.45552185      -0.00453859        4       1.00000000      -0.03605558      -0.09023858      -0.09847866
Ni       1.31083222       0.72211917       2.19928646        3       1.00000000      -0.02594909       0.08041318       0.11509478
Ni       3.72995904       0.70542519       2.20373076        3       1.00000000      -0.08204125      -0.03429974       0.04554892
Ni       6.37782168       0.75023365       2.18078650        3       1.00000000       0.08257684      -0.00078361       0.03905141
Pt       8.94204212       0.76785646       2.21290017        3       0.00000000       0.01593679       0.03644983       0.06398687
Ni       2.49370918       2.90014273       2.22626432        3       1.00000000      -0.03186432      -0.01278002       0.10546895
Ni       5.07879801       2.89777150       2.16366352        3       1.00000000       0.01887818       0.01885252       0.03968831
Ni       7.62737091       2.90068724       2.16786545        3       1.00000000       0.04973193       0.01754617      -0.00995174
Ni      10.20481413       2.92532725       2.19899350        3       1.00000000       0.01375869      -0.00327167       0.02405740
Ni       3.79815386       4.99066575       2.12953869        3       1.00000000       0.00443624      -0.10166782      -0.00299080
Pt       6.35305547       5.08963447       2.09583299        3       0.00000000       0.00343707       0.02005295      -0.00906422
Ni       8.90012107       4.98928226       2.14840489        3       1.00000000       0.00822728      -0.11858696       0.06704515
Ni      11.42201277       4.97559671       2.15342033        3       1.00000000      -0.01859880      -0.05780749       0.08149836
Ni       5.12677348       7.23750359       2.08137150        3       1.00000000      -0.01938365       0.00895919       0.03779332
Ni       7.58175955       7.26917436       2.12225105        3       1.00000000      -0.04300143       0.02635922       0.05805097
Pt      10.09154037       7.16316956       2.19715284        3       0.00000000       0.00056570      -0.09681869       0.10028950
Pt      12.70624692       7.13435379       2.07278008        3       0.00000000       0.05490444      -0.08922388       0.01535004
Ni       0.05281985       1.47081072       4.29221599        2       1.00000000       0.07003042       0.01989668      -0.03117874
Ni       2.48070132       1.42971237       4.23322365        2       1.00000000      -0.01781416       0.03338933       0.00717344
Pt       5.06255994       1.38923497       4.17973866        2       0.00000000      -0.01353834       0.00203576      -0.11209148
Ni       7.65001911       1.43163023       4.30385694        2       1.00000000      -0.01478401      -0.02039545      -0.04631322
Ni       1.27183915       3.58981429       4.26352244        2       1.00000000       0.02860294      -0.00779972      -0.03355864
Ni       3.75794446       3.65338310       4.21565636        2       1.00000000       0.00746878       0.03580116      -0.10119965
Pt       6.39388684       3.62634486       4.30748325        2       0.00000000       0.02179332      -0.00555503      -0.03432191
Ni       8.94993202       3.60305747       4.26513261        2       1.00000000       0.02947476       0.05281786      -0.14368585
Ni       2.51965511       5.69612233       4.26263897        2       1.00000000      -0.01295302      -0.03595286      -0.13144905
Ni       5.07676982       5.74832769       4.27067688        2       1.00000000      -0.00344514      -0.02361292      -0.10275970
Ni       7.63988837       5.79028752       4.22392380        2       1.00000000       0.07666031       0.03076781      -0.08115467
Ni      10.18662558       5.69336805       4.25688267        2       1.00000000       0.02164122      -0.08768040      -0.00638648
Pt       3.85282365       7.88428605       4.21236973        2       0.00000000       0.02968970       0.03775484       0.03446782
Ni       6.38328659       7.92242932       4.15848609        2       1.00000000      -0.01913088       0.02234274      -0.03496855
Ni       8.82846844       7.90416890       4.19583967        2       1.00000000      -0.10252358      -0.01700675       0.01007627
Ni      11.44478524       7.87095437       4.21351666        2       1.00000000       0.06801811      -0.07607219      -0.04982433
Pt       0.01609335      -0.03681584       6.47392133        1       0.00000000      -0.05141128       0.11667868       0.20692037
Pt       2.52309348      -0.06093240       6.40959204        1       0.00000000       0.04408185       0.05821268       0.10280617
Pt       5.10063541      -0.08281869       6.33025955        1       0.00000000      -0.09050949      -0.00042115       0.09411247
Pt       7.62160213      -0.04626629       6.46897333        1       0.00000000      -0.01365505       0.09442970       0.16293553
Ni       1.23911029       2.19630905       6.35278217        1       1.00000000       0.01508940       0.08258964      -0.04624758
Pt       3.78420009       2.26794378       6.31991585        1       0.00000000      -0.04257815       0.12592465       0.08031829
Ni       6.38426053       2.17823844       6.40386756        1       1.00000000      -0.05115039       0.06232430       0.02479356
Ni       8.90281098       2.19692109       6.25374585        1       1.00000000       0.00769218       0.08079975      -0.27184248
Ni       2.50503878       4.36066318       6.33749731        1       1.00000000      -0.05896388       0.10229170      -0.05199931
Ni       5.09269946       4.36814412       6.37268009        1       1.00000000      -0.02678634       0.13538960      -0.03589273
Ni       7.61721160       4.25413487       6.38865771        1       1.00000000       0.00648530      -0.04080073       0.00220819
Ni      10.20320967       4.24722895       6.34973045        1       1.00000000       0.04117185      -0.01919994      -0.05224962
Ni       3.81222280       6.39872490       6.33490469        1       1.00000000      -0.03973531       0.01918015      -0.08444675
Ni       6.32167000       6.40703121       6.32267673        1       1.00000000       0.00207412       0.02939928      -0.17555169
Pt       8.89181116       6.32860177       6.35878097        1       0.00000000      -0.00324439      -0.01661576       0.14061670
Ni      11.46792225       6.39641911       6.31746474        1       1.00000000      -0.02097571       0.03461783      -0.15534499
