64
Lattice="10.08697275343008 0.017525175932458323 -0.0538183054156198 5.058663624278342 8.774003813097426 0.0299188337377583 0.0 0.0 21.465895050866138" Properties=species:S:1:pos:R:3:tags:I:1:initial_magmoms:R:1:forces:R:3 unique_id=00fd12ec2f74424a9e802c8161a8ae4f energy=-368.4329855260422 stress="0.0036528480783565107 1.536245489856299e-05 -0.00032659248938718286 1.536245489856299e-05 0.0036965080121787643 0.00035489747201591313 -0.00032659248938718286 0.00035489747201591313 -0.0020659527118322045" pbc="T T T"
Pt      -0.07407749      -0.02034193       0.00000000        0       0.00000000       0.20632895      -0.01176948      -0.34169706
Pt       2.61629329      -0.00114904       0.15899651        2       0.00000000      -0.10309415      -0.00100265      -0.75361594
Ni       5.07666175      -0.00498033       0.01413862        0       1.00000000      -0.00533114      -0.03426421       0.06199065
Ni       7.50451945      -0.00281957       0.01142917        0       1.00000000      -0.02055268      -0.04394705       0.05736895
Pt       1.26245546       2.29813505       0.17341092        2       0.00000000      -0.01576072      -0.06079536      -0.69855163
Ni       3.83890271       2.24529106       0.08649252        1       1.00000000       0.00036841      -0.03753072       0.25113475
Ni       6.27588829       2.22125447       0.11532394        1       1.00000000      -0.12192298       0.06249448      -0.47384051
Ni       8.78062280       2.25087314       0.02010239        0       1.00000000       0.02625661      -0.01393421      -0.03422513
Ni       2.56901690       4.43050153       0.08205800        1       1.00000000       0.00639435      -0.00409737       0.13550000
Ni       5.01468956       4.35330610       0.09173296        1       1.00000000       0.06807474       0.01508426       0.36942268
Ni       7.59506412       4.38388833       0.02853788        0       1.00000000      -0.06737866       0.04620502       0.00898058
Ni      10.04756562       4.44957413       0.03402023        0       1.00000000      -0.01550615      -0.01136732       0.11005339
Ni       3.72936165       6.54315758       0.10961226        1       1.00000000       0.02188007       0.01549205       0.20878037
Pt       6.31341527       6.48595987       0.17071414        2       0.00000000       0.00396682      -0.03681719      -0.45491204
Ni       8.89185229       6.55584485       0.07976175        1       1.00000000      -0.00965140       0.02408105       0.22737428
Ni      11.35341385       6.61508902       0.03175345        0       1.00000000      -0.03099054       0.09464126       0.13923097
Ni       1.27332477       0.71696034       2.21208207        4       1.00000000      -0.06451453      -0.17840631       0.12348572
Ni       3.77137728       0.76256145       2.19997985        4       1.00000000      -0.06902925      -0.01047786       0.03798194
Pt       6.20815116       0.69934705       2.13005471        3       0.00000000      -0.06552825      -0.12009727       0.06907988
Pt       8.85719934       0.72195252       2.18020226        4       0.00000000       0.08877446      -0.09985481      -0.15785960
Ni       2.57720486       2.96554262       2.19277460        4       1.00000000       0.10118439       0.12264205      -0.00411211
Ni       4.98092853       2.98379756       2.17590637        4       1.00000000      -0.06743508       0.07995415       0.21586540
Pt       7.53254463       3.03618560       2.11794384        3       0.00000000      -0.04780737       0.09307747       0.04381531
Ni      10.08759380       2.97054526       2.18171805        4       1.00000000       0.05691519       0.00976128       0.19153280
Ni       3.82129832       5.12688651       2.17449720        4       1.00000000       0.04273536       0.05194578       0.06841406
Ni       6.26450625       5.14463475       2.25619111        5       1.00000000      -0.10194825       0.08399325       0.22263871
Ni       8.80408050       5.20318888       2.14297703        3       1.00000000      -0.10147776       0.11986158       0.08460256
Pt      11.33555143       5.14894991       2.10643041        3       0.00000000      -0.02445329       0.02907987      -0.08672941
Ni       5.05304985       7.27364406       2.25982339        5       1.00000000       0.01907687      -0.02632068       0.15714333
Ni       7.58584767       7.30537902       2.27219092        5       1.00000000      -0.03078964       0.02962233       0.18504122
Ni      10.03854454       7.31787809       2.17225333        4       1.00000000      -0.12800443       0.00237102       0.09890033
Ni      12.62526492       7.31066758       2.12888817        3       1.00000000       0.05014059      -0.07228198       0.01188035
Ni      -0.00328308       1.45980857       4.31238835        7       1.00000000       0.15572077      -0.01547695      -0.15282063
Pt       2.53713679       1.51500379       4.19972510        6       0.00000000       0.03379234       0.02498927       0.09924771
Ni       5.00884617       1.49372150       4.30121402        7       1.00000000       0.00542624      -0.01678999      -0.05741428
Pt       7.53864282       1.44708462       4.33848855        7       0.00000000      -0.00137093      -0.06142505       0.21482307
Ni       1.26501524       3.71519933       4.30625774        7       1.00000000       0.09029877       0.04535235      -0.12988834
Ni       3.80808970       3.69487627       4.32048994        7       1.00000000       0.08090114       0.00499383      -0.10603820
Ni       6.23623849       3.73871455       4.30693882        7       1.00000000      -0.04264574       0.05746432      -0.03377949
Pt       8.84293916       3.76235595       4.33337858        7       0.00000000       0.06084629       0.04335051       0.08734030
Pt       2.53172741       5.88822331       4.37499065        8       0.00000000       0.03917238       0.03039108      -0.00248134
Ni       5.03910838       5.85803379       4.26574592        7       1.00000000       0.06699109      -0.03173704      -0.15401635
Ni       7.55798511       5.91459251       4.26936542        7       1.00000000      -0.00171091       0.11421686      -0.14696994
Ni      10.06179814       5.93998143       4.32300851        7       1.00000000       0.00442981       0.07039548      -0.10752968
Ni       3.81259954       8.02715468       4.37359590        8       1.00000000       0.11563864      -0.14491158      -0.06520914
Ni       6.27570489       8.05104412       4.26523223        7       1.00000000       0.03807955      -0.01491593      -0.27495210
Ni       8.85638204       8.02617968       4.27930597        7       1.00000000      -0.01128462      -0.02124335      -0.12190572
Ni      11.29649071       8.05497595       4.34204890        7       1.00000000      -0.07065372      -0.03192954      -0.02510532
Ni      -0.07913750       0.02944462       6.30535271        9       1.00000000       0.08019954      -0.03954676       0.26096113
Pt       2.55852780       0.01047354       6.35195242       10       0.00000000      -0.08979886      -0.17738190       0.62894304
Ni       5.06041838       0.00082726       6.38237746       10       1.00000000       0.08740646      -0.06285026      -0.19795977
Ni       7.54615117      -0.01065563       6.40423164       10       1.00000000      -0.04919851      -0.11534596      -0.07398521
Pt       1.19948547       2.29613654       6.37990677       10       0.00000000      -0.06968072       0.05009288       0.67515606
Ni       3.76348670       2.27033406       6.42166170       10       1.00000000      -0.07963742       0.01221467      -0.14369284
Pt       6.24402663       2.25532431       6.46589505       11       0.00000000      -0.06745260       0.02316560       0.32696332
Ni       8.79682519       2.23796265       6.42264491       10       1.00000000       0.00836369      -0.03051381       0.13930317
Ni       2.52060455       4.45311055       6.45864008       11       1.00000000      -0.04081618      -0.02704327      -0.10597030
Ni       4.97159094       4.42247041       6.41584957       10       1.00000000      -0.04650465       0.03310074      -0.25812167
Ni       7.57420030       4.43293529       6.42518445       10       1.00000000      -0.03994065       0.00832597      -0.00100104
Ni      10.06770478       4.50056413       6.42131152       10       1.00000000       0.16939274       0.04043922      -0.08836589
Ni       3.73412591       6.62137956       6.46507468       11       1.00000000       0.04419091       0.02414478      -0.15955938
Pt       6.25264686       6.55488559       6.34143562        9       0.00000000      -0.02647801       0.05938280       0.42922012
Ni       8.86856734       6.58855178       6.40439132       10       1.00000000      -0.06011508       0.03427469      -0.31283581
Ni      11.31854904       6.63618135       6.41764617       10       1.00000000       0.01551769      -0.00252611      -0.21703029
