64
Lattice="10.512146815714082 0.029491970379435257 -0.009012452740408189 5.281614203413291 9.093969859856317 -0.0059042189883502915 0.0 0.0 21.73973801207813" Properties=species:S:1:pos:R:3:tags:I:1:initial_magmoms:R:1:forces:R:3 unique_id=cc0fd7637e754181984d299096e35998 energy=-387.24623933638236 stress="0.003914968217458747 9.500627640996059e-05 -0.00010711134766523292 9.500627640996059e-05 0.003778790578312914 -5.1223008366744574e-05 -0.00010711134766523292 -5.1223008366744574e-05 -0.0032586762835668144" pbc="T T T"
Pt      -0.03326874      -0.01301659       0.13393019        1       0.00000000      -0.13641506      -0.05131396      -0.71526246
Ni       2.64246421      -0.00749752       0.14352327        1       1.00000000       0.03619231      -0.07359656       0.00908348
Pt       5.33396699      -0.03712878       0.06451421        1       0.00000000       0.04419718       0.09824844       0.18447160
Ni       7.86122940       0.00689109       0.09078703        1       1.00000000       0.09601201       0.07467712       0.32960684
Pt       1.33482348       2.24744464       0.00000000        0       0.00000000      -0.03447864       0.06998499      -0.34331867
Pt       3.96802949       2.25981663       0.00829141        0       0.00000000       0.05893886      -0.04261615      -0.08757075
Pt       6.58538296       2.30470150       0.02344067        0       0.00000000      -0.11700061      -0.11101734       0.04290519
Pt       9.16388546       2.28265405       0.01082029        0       0.00000000       0.05341008      -0.10485323      -0.17810548
Pt       2.64674232       4.57687477       0.11307888        1       0.00000000      -0.01036090      -0.14371066      -0.92266020
Ni       5.29078096       4.55684796       0.14386500        1       1.00000000       0.00505839      -0.01871524       0.06535547
Ni       7.87956430       4.56579107       0.16694287        2       1.00000000       0.03969135       0.05013589       0.04636524
Pt      10.48307078       4.60398240       0.02078170        0       0.00000000      -0.14924930       0.02341729      -0.17594859
Pt       3.88824889       6.86224805       0.03761879        0       0.00000000      -0.00270856       0.08064359       0.00586603
Pt       6.60425230       6.76856616       0.18262547        2       0.00000000       0.01649725       0.01590858      -0.32893891
Pt       9.22268562       6.85532726       0.20913813        2       0.00000000      -0.07375930       0.05190952      -0.20751642
Ni      11.85056328       6.87451033       0.06350808        1       1.00000000       0.00603099      -0.04490123       0.17055905
Pt       1.34344319       0.72279083       2.29016033        3       0.00000000       0.09957129      -0.07374355       0.15886988
Pt       3.99652086       0.65646667       2.33167880        3       0.00000000       0.15505200      -0.09744790       0.15391844
Ni       6.61343953       0.73006518       2.27328333        3       1.00000000       0.07517132      -0.01713078       0.11025631
Ni       9.13505414       0.75418446       2.28517073        3       1.00000000      -0.17449903       0.00111161       0.18878341
Pt       2.66251622       3.01361361       2.35753781        4       0.00000000       0.03068533      -0.06997197       0.24217543
Pt       5.30396939       3.04103086       2.33436483        3       0.00000000       0.03105355      -0.12628338       0.19314205
Pt       7.87279636       3.07539406       2.29044218        3       0.00000000       0.02443724      -0.05898693       0.06892815
Pt      10.48367778       3.06475421       2.28634957        3       0.00000000       0.00983309       0.02022467       0.15093321
Pt       3.98368567       5.32857972       2.28844158        3       0.00000000       0.09514873       0.07627330       0.23569873
Ni       6.64010551       5.32284662       2.29688366        3       1.00000000       0.11468912       0.01838581       0.34986746
Ni       9.15251688       5.36693607       2.28832926        3       1.00000000      -0.15003064       0.04474500       0.30966573
Pt      11.78870814       5.45309384       2.25112011        3       0.00000000      -0.09231006       0.17774986       0.08278556
Pt       5.23884912       7.59198193       2.34606982        3       0.00000000      -0.12677296       0.05450332       0.32406765
Ni       7.93560288       7.53228974       2.31507265        3       1.00000000       0.04713554      -0.12175931       0.45070871
Ni      10.54102512       7.60982958       2.28955094        3       1.00000000       0.08989729       0.08233537       0.23908197
Ni      13.13316466       7.66834366       2.26590550        3       1.00000000      -0.06568662       0.16707480       0.08288291
Pt      -0.00804317       1.48593808       4.51228997        5       0.00000000       0.04737570       0.01943543      -0.33544210
Ni       2.65669746       1.51904833       4.52691888        5       1.00000000       0.00963384       0.00033079      -0.21409779
Pt       5.20384637       1.55185982       4.58712742        6       0.00000000      -0.03091801       0.00243231      -0.07888701
Pt       7.86750190       1.51577355       4.53249657        5       0.00000000      -0.02641818       0.01309622      -0.19226360
Pt       1.34714541       3.75580860       4.54462830        5       0.00000000      -0.13239465       0.00856592      -0.28367426
Ni       3.96286176       3.77363435       4.52195957        5       1.00000000       0.03040957       0.01706448      -0.24875706
Ni       6.56719504       3.80680839       4.50177641        5       1.00000000       0.00728215       0.01589819      -0.20848072
Pt       9.14789189       3.85769103       4.50520011        5       0.00000000      -0.03596938       0.02884878      -0.19944526
Pt       2.66738618       6.11009899       4.52004506        5       0.00000000      -0.01187648       0.12606004      -0.24763991
Pt       5.31579675       6.00881142       4.49090868        5       0.00000000       0.04052399      -0.04301114      -0.15810397
Ni       7.89910837       6.07382169       4.45278453        5       1.00000000      -0.00761122      -0.04290284      -0.31896103
Pt      10.47156952       6.12704476       4.45350877        5       0.00000000       0.07322087       0.02170933      -0.23335988
Ni       3.94702102       8.33633155       4.49436564        5       1.00000000       0.01259116      -0.02448391      -0.24362912
Pt       6.68717108       8.31989714       4.46810667        5       0.00000000       0.19987367      -0.03007233      -0.19314080
Ni       9.21677957       8.35293770       4.48505777        5       1.00000000      -0.00198289       0.02806042      -0.23756268
Pt      11.83158956       8.37337731       4.48770555        5       0.00000000      -0.09530846       0.03101003      -0.16983408
Pt      -0.10356524       0.01250158       6.66054635        8       0.00000000      -0.13062565      -0.12383090       0.65238254
Pt       2.67757684       0.10602602       6.70820409        8       0.00000000       0.04799527       0.02015265      -0.01548121
Ni       5.28357102       0.02388339       6.64685226        7       1.00000000       0.02994114      -0.04142575      -0.03678811
Ni       7.84851129       0.00828125       6.70350293        8       1.00000000       0.00309913      -0.01424148      -0.47289786
Ni       1.30890659       2.28018532       6.62659916        7       1.00000000      -0.01112955      -0.02411294       0.08387740
Ni       3.94045340       2.28047882       6.62002211        7       1.00000000      -0.14841338       0.13667820       0.12651940
Ni       6.57415761       2.24975651       6.63347302        7       1.00000000       0.05332365      -0.03263555       0.08904921
Ni       9.19533224       2.29127243       6.62992496        7       1.00000000       0.01292591      -0.03851382       0.09248293
Pt       2.61251853       4.54314421       6.66400046        8       0.00000000       0.15816848      -0.08926506       0.92107030
Pt       5.25042475       4.46854181       6.71015147        8       0.00000000      -0.06585663      -0.17724637       0.05841697
Pt       7.91385331       4.49013962       6.73973801        8       0.00000000      -0.08158282       0.08091241       0.08256662
Ni      10.52819350       4.55213499       6.62596089        7       1.00000000       0.01170432       0.00454780       0.03014068
Ni       3.91455064       6.83833017       6.63911841        7       1.00000000      -0.03026723       0.08232214       0.05260540
Pt       6.57872644       6.82165967       6.67518389        8       0.00000000       0.16726476      -0.02234846       0.69055821
Pt       9.28389510       6.85780711       6.66275699        8       0.00000000      -0.12474995       0.08535037       0.37496621
Ni      11.86399215       6.87409070       6.70674468        8       1.00000000       0.03433964       0.03033407      -0.40284643
