64
Lattice="10.112749509664463 0.035387570115405935 -0.07506459966530428 5.087021289530375 8.778242922623019 -0.009019960496030028 0.0 0.0 21.412343750819296" Properties=species:S:1:pos:R:3:tags:I:1:initial_magmoms:R:1:forces:R:3 unique_id=7dc24e880938476d8e15753f377381b6 energy=-368.85667841539265 stress="0.004396502612539098 0.00021983091138036258 -0.000566913848813728 0.00021983091138036258 0.004421401613922351 0.0002076670664712728 -0.000566913848813728 0.0002076670664712728 -0.002802962436769066" pbc="T T T"
Ni      -0.06163942      -0.06015136       0.17805865        2       1.00000000      -0.03308720      -0.09959992      -0.23908009
Pt       2.45632413      -0.03095776       0.00000000        0       0.00000000      -0.02817871      -0.15740586      -0.27211030
Pt       5.10248331      -0.06392137       0.01620229        0       0.00000000       0.04698218      -0.04572380      -0.28429985
Ni       7.62675647       0.01146154       0.13297917        1       1.00000000      -0.04228681       0.11154513      -0.49189103
Ni       1.28647905       2.25033081       0.08393304        1       1.00000000      -0.01305516       0.07503444       0.02276507
Ni       3.77145069       2.26288192       0.14358758        1       1.00000000       0.04132568      -0.01797088      -0.33175025
Pt       6.29736768       2.30051265       0.05919860        1       0.00000000       0.04115162      -0.05220690      -0.15703448
Pt       8.91404013       2.24675638       0.04094735        0       0.00000000      -0.03093187       0.07065072       0.05648164
Ni       2.54485736       4.43037597       0.08660185        1       1.00000000      -0.02467062       0.09498374       0.21374349
Ni       5.04077888       4.46633178       0.10180761        1       1.00000000      -0.05110677      -0.02560088       0.18924155
Ni       7.59691373       4.47908519       0.09489990        1       1.00000000       0.02303266      -0.11494328       0.18327431
Ni      10.14027466       4.45844178       0.15319174        2       1.00000000       0.04165217      -0.07348344      -0.08355333
Ni       3.83483410       6.55621392       0.08703783        1       1.00000000      -0.04691159       0.00257545       0.17555529
Ni       6.30624662       6.53633163       0.10007307        1       1.00000000      -0.05518157       0.13129667       0.14858583
Ni       8.85862602       6.52737587       0.08760436        1       1.00000000       0.03250124       0.11489011       0.13330304
Ni      11.40650834       6.53246623       0.13110539        1       1.00000000      -0.03074524      -0.05204681      -0.46073752
Pt       1.16531065       0.72524206       2.25353045        5       0.00000000      -0.17109353      -0.00407923      -0.14016820
Pt       3.82648674       0.72748262       2.24885403        4       0.00000000       0.16214138      -0.07574562      -0.07522496
Ni       6.36130886       0.81098737       2.16995026        4       1.00000000      -0.03158726       0.13142339       0.06771769
Ni       8.79656345       0.78678488       2.18140487        4       1.00000000       0.01679319       0.07660027       0.16514807
Pt       2.50481327       3.03093572       2.21080727        4       0.00000000      -0.05454500       0.08115899      -0.01389822
Ni       5.06749972       3.00063723       2.17482738        4       1.00000000       0.00288149       0.00029704      -0.01615206
Ni       7.60473031       2.98465668       2.18443571        4       1.00000000       0.03395114       0.00632195       0.00016459
Ni      10.06924847       3.01970648       2.18916808        4       1.00000000      -0.07244439      -0.00611875       0.15509871
Ni       3.85235669       5.13823286       2.18248640        4       1.00000000       0.06054120      -0.09616590       0.16058007
Ni       6.31785781       5.14534318       2.11863212        3       1.00000000       0.04203395      -0.04431675      -0.02695609
Ni       8.85113383       5.13732099       2.13261682        3       1.00000000      -0.07752664      -0.04509805       0.09036404
Ni      11.32883796       5.16987538       2.14861859        3       1.00000000       0.01540666      -0.04448471       0.25549849
Ni       5.08974673       7.26371032       2.18730377        4       1.00000000       0.13836468       0.00577788       0.12333849
Ni       7.58817966       7.26792643       2.14100750        3       1.00000000      -0.02743251       0.05106040      -0.05209980
Ni      10.08744070       7.24963090       2.14452196        3       1.00000000      -0.09500973       0.00022683       0.03820669
Pt      12.70414633       7.30665407       2.11290226        3       0.00000000       0.00885156       0.02299209      -0.06175196
Ni      -0.04098466       1.50978575       4.32053051        7       1.00000000      -0.02221552       0.01451226      -0.00754815
Ni       2.47106307       1.48844172       4.32345618        7       1.00000000      -0.01703043       0.07005014       0.01629552
Ni       5.01971258       1.50952578       4.28637790        7       1.00000000       0.00037224       0.07927051      -0.11938404
Ni       7.60906126       1.51756121       4.21171738        6       1.00000000       0.01614415      -0.05504959      -0.12830210
Ni       1.24554775       3.67039086       4.31689128        7       1.00000000      -0.03872209       0.05994384       0.05807628
Ni       3.75187827       3.72170705       4.29810814        7       1.00000000       0.00367804       0.03391470       0.00540402
Pt       6.27946528       3.67505036       4.25281926        7       0.00000000      -0.02410100      -0.00154576       0.08028527
Ni       8.85468933       3.66382450       4.20365457        6       1.00000000       0.05286073       0.05210487      -0.09764144
Ni       2.55047014       5.81087949       4.31380303        7       1.00000000      -0.04740701       0.01311915       0.00414991
Ni       5.00337574       5.89380497       4.29625677        7       1.00000000      -0.01174114       0.04768448      -0.06247695
Pt       7.58966016       5.91230853       4.26184008        7       0.00000000       0.06982530       0.03155590       0.04013838
Ni      10.11286826       5.85130965       4.19825551        6       1.00000000       0.07160687      -0.07435381      -0.09571097
Ni       3.83270467       8.04529323       4.28553237        7       1.00000000       0.04801533       0.05294424      -0.02300928
Ni       6.30733807       8.05834337       4.28134694        7       1.00000000      -0.10185700      -0.05107479      -0.02754856
Ni       8.81670929       8.07865099       4.30028764        7       1.00000000      -0.00717808      -0.09744166      -0.13255358
Pt      11.33909407       8.09624814       4.18461077        6       0.00000000       0.00673612      -0.00065347       0.06571448
Pt       0.03611650       0.00423258       6.41234375       10       0.00000000       0.00083996      -0.03182914       0.03240413
Ni       2.52017636      -0.00361027       6.25403507        9       1.00000000      -0.02817809      -0.00894474       0.42084958
Ni       4.97222177       0.03637165       6.26934447        9       1.00000000       0.05700017      -0.01508407       0.42628732
Pt       7.54526676       0.10460552       6.39344476       10       0.00000000       0.11731699       0.02140310       0.28769025
Ni       1.24703385       2.20505104       6.36838991       10       1.00000000      -0.00094120      -0.03160778      -0.04436284
Pt       3.75645832       2.23671941       6.38800906       10       0.00000000       0.10800870      -0.04272432       0.08543650
Ni       6.29183861       2.25787225       6.29565467        9       1.00000000      -0.00503384      -0.00186912       0.32704149
Ni       8.79636389       2.25532713       6.24137291        8       1.00000000      -0.02866008      -0.05517539       0.14828185
Ni       2.54263194       4.40377501       6.38289703       10       1.00000000      -0.05932009       0.05972276      -0.13146733
Ni       5.03182190       4.45861075       6.39169526       10       1.00000000       0.02189562      -0.05864674      -0.21329173
Ni       7.52280314       4.42699877       6.39185594       10       1.00000000       0.00448228      -0.05726349      -0.09096722
Pt      10.04646788       4.36937235       6.36500595       10       0.00000000      -0.01755952       0.08958102      -0.05477413
Ni       3.81820420       6.54740554       6.38208715       10       1.00000000       0.01332170       0.08694220      -0.16442957
Ni       6.30784848       6.57181551       6.39245650       10       1.00000000      -0.00819344       0.00630219      -0.20868480
Ni       8.79095514       6.64514199       6.37897939       10       1.00000000       0.08276072      -0.03743761      -0.10293430
Pt      11.36479964       6.59378692       6.39681480       10       0.00000000      -0.07854258      -0.12019420       0.23467308
