64
Lattice="10.328831735139115 -0.0004668362896962551 0.011844500357878459 5.164011575483272 8.895853597750762 -0.020390891122976817 0.0 0.0 21.56717937942663" Properties=species:S:1:pos:R:3:tags:I:1:initial_magmoms:R:1:forces:R:3 unique_id=b929f9b5d74e492aa19a15a313193069 energy=-375.7200283920971 stress="0.005649873794541853 0.00015899330123903829 0.000154095047162505 0.00015899330123903829 0.005761643185180101 -8.344450096870265e-05 0.000154095047162505 -8.344450096870265e-05 -0.001667276879757748" pbc="T T T"
Ni       0.01290815      -0.00807708       0.12579601        1       1.00000000       0.07427513      -0.01332279      -0.14035026
Ni       2.58310249       0.00284132       0.15555189        2       1.00000000      -0.00195813       0.02109206      -0.10787908
Ni       5.15991534      -0.01773751       0.11160080        1       1.00000000      -0.04278686       0.18623702      -0.34047482
Ni       7.74217863      -0.06101326       0.13557967        1       1.00000000      -0.08092310      -0.10256833      -0.15286711
Ni       1.30270026       2.22979684       0.04237381        0       1.00000000       0.02704426       0.01622365       0.40752153
Pt       3.81014721       2.23467443       0.13270149        1       0.00000000       0.04348007       0.00436609      -0.44422108
Pt       6.44169815       2.18037378       0.05880949        1       0.00000000       0.05265453      -0.02642474      -0.00412498
Pt       9.12648259       2.22510195       0.06447818        1       0.00000000      -0.01611492       0.07383585      -0.49589369
Ni       2.57933277       4.47431879       0.00576589        0       1.00000000       0.09892305      -0.00220045       0.30775749
Ni       5.12976344       4.46865890       0.12769344        1       1.00000000      -0.05968050       0.03454030       0.00735587
Pt       7.78778798       4.49635249       0.04321095        0       0.00000000       0.00217765       0.02308541      -0.01601106
Ni      10.37537721       4.47457310       0.01287074        0       1.00000000       0.06858165       0.01826531       0.24166312
Ni       3.83784799       6.66626128       0.03796318        0       1.00000000      -0.03361403      -0.01628109       0.45457726
Pt       6.42401362       6.72269705       0.12709122        1       0.00000000      -0.04456290       0.03770224      -0.55428765
Ni       9.06361544       6.68859005       0.00789112        0       1.00000000      -0.10296162       0.01484612       0.11349842
Ni      11.64472295       6.66520962       0.00000000        0       1.00000000       0.12074908       0.02270071       0.24322851
Ni       1.30822992       0.75826995       2.10590870        4       1.00000000       0.00418530       0.14249344      -0.06791613
Ni       3.86736723       0.74956649       2.15748525        5       1.00000000       0.05414587       0.02527655       0.19036485
Ni       6.44440388       0.76416956       2.17648876        5       1.00000000      -0.05311170       0.19220616       0.22914566
Pt       9.04300832       0.73646810       2.18876988        5       0.00000000      -0.02167302       0.15256498       0.02830768
Ni       2.57736417       2.96624466       2.16539385        5       1.00000000       0.00487531       0.08224272       0.04966401
Ni       5.15380494       2.97047701       2.19005116        5       1.00000000      -0.06731838      -0.00069480       0.22884800
Ni       7.75164206       2.97610543       2.19000807        5       1.00000000       0.08431398       0.01804634       0.14305956
Ni      10.35305805       2.96165210       2.19926658        5       1.00000000       0.04838458      -0.02491598       0.18610440
Ni       3.88508258       5.16849193       2.11446433        4       1.00000000       0.00382381      -0.11453736      -0.07103802
Ni       6.45796535       5.16919172       2.15785269        5       1.00000000       0.08659932      -0.10452876       0.08947794
Ni       9.01860722       5.16308069       2.17472004        5       1.00000000      -0.03807550      -0.14980108       0.19159355
Pt      11.66749304       5.12838376       2.11943941        4       0.00000000       0.03332341      -0.04141735       0.03640123
Ni       5.13727334       7.38893347       2.12269715        4       1.00000000      -0.18841698      -0.08452285       0.01247618
Ni       7.74995334       7.40333777       2.13355682        4       1.00000000       0.05430488      -0.08439010       0.09059108
Pt      10.31484679       7.41250316       2.04649296        3       0.00000000       0.03746732      -0.15433906      -0.09509051
Ni      12.93600494       7.37722562       2.10213572        4       1.00000000       0.07000981      -0.11276608      -0.00591809
Ni       0.00334944       1.54073014       4.28567412        7       1.00000000       0.00001681       0.12106387      -0.21956507
Pt       2.55242993       1.57272082       4.21137464        6       0.00000000      -0.00521144      -0.01797402      -0.04638762
Ni       5.18351803       1.49736509       4.28416085        7       1.00000000      -0.06195161       0.02163634      -0.30881214
Ni       7.75394323       1.49404085       4.29913087        7       1.00000000       0.01725611      -0.09684016      -0.27989711
Ni       1.29211214       3.69217130       4.33375615        7       1.00000000      -0.02128602      -0.00761996      -0.06571552
Ni       3.84580755       3.71464354       4.26674472        7       1.00000000      -0.08047050      -0.01884526      -0.30209797
Pt       6.50813394       3.63920688       4.25539117        7       0.00000000      -0.03545139      -0.00220674      -0.06841145
Ni       9.05449588       3.68434370       4.26702145        7       1.00000000       0.04357315      -0.10175901      -0.43629130
Ni       2.57542521       5.86125984       4.33401358        7       1.00000000      -0.04051650      -0.15242399      -0.03684864
Pt       5.11918574       5.85320696       4.20553324        6       0.00000000      -0.01443650      -0.11448079      -0.14296365
Ni       7.77451098       5.86826749       4.28273672        7       1.00000000      -0.02795492      -0.08818881      -0.32687260
Pt      10.33128227       5.81396576       4.37399047        8       0.00000000       0.03993122       0.00956704      -0.04678275
Pt       3.86226079       8.13696646       4.27035052        7       0.00000000      -0.04377727      -0.01368791       0.05686977
Pt       6.45312274       8.15481511       4.17266620        6       0.00000000      -0.08783387       0.04044777      -0.25661020
Pt       9.03120719       8.13548060       4.26060079        7       0.00000000      -0.10451636       0.06310735      -0.05647794
Pt      11.63597012       8.15504429       4.23764403        6       0.00000000       0.01622853      -0.02074262      -0.09699301
Pt       0.00570883       0.00437925       6.53410349       10       0.00000000      -0.00087480       0.19553479       0.33510461
Pt       2.58648050      -0.00851842       6.56717938       11       0.00000000       0.04966845       0.02260558       0.39690261
Pt       5.18107528      -0.05998995       6.54466723       10       0.00000000      -0.03871710       0.13199121       0.42580236
Pt       7.74026189      -0.04621655       6.56116899       11       0.00000000       0.02666130       0.18806436       0.37222049
Ni       1.28263442       2.27722355       6.45822465       10       1.00000000      -0.06108035       0.14950703      -0.28787380
Pt       3.84821623       2.25850054       6.41479634        9       0.00000000       0.09738012       0.03199202       0.51945129
Ni       6.47689863       2.21612302       6.40037958        9       1.00000000      -0.02924228      -0.06403086       0.10966073
Pt       9.05059987       2.30974042       6.36077488        9       0.00000000       0.01913045      -0.06223669       0.51666609
Ni       2.53169550       4.46331215       6.44714406        9       1.00000000      -0.04762927       0.00510270      -0.38109347
Pt       5.14496403       4.43329667       6.51660671       10       0.00000000      -0.03554766      -0.07233699       0.14543507
Ni       7.78955161       4.43941092       6.38860057        9       1.00000000       0.04098887       0.12680999      -0.02363811
Ni      10.36372464       4.44430231       6.47886315       10       1.00000000       0.05082763      -0.06614278      -0.21891583
Ni       3.82685748       6.61629918       6.47292223       10       1.00000000      -0.06518388      -0.06698187      -0.23605310
Pt       6.50992813       6.60379344       6.42283077        9       0.00000000       0.13048600      -0.05805642       0.50450015
Ni       9.07696784       6.58695350       6.47966371       10       1.00000000      -0.00409594      -0.11671522      -0.10283136
Ni      11.63637018       6.58773617       6.48724126       10       1.00000000       0.05550768       0.00082592      -0.19704443
