64
Lattice="10.300028704082251 -0.034679039679257936 0.033513746943854505 5.11998142270004 8.875540030070537 -0.035987741545623016 0.0 0.0 21.597426235739583" Properties=species:S:1:pos:R:3:tags:I:1:initial_magmoms:R:1:forces:R:3 unique_id=d55c81be99e440cf8ded474150e9318d energy=-375.55784545771513 stress="0.005352788852556418 -0.00011696458261226274 4.689260423845701e-05 -0.00011696458261226274 0.005094133225436722 -0.0004170688186591342 4.689260423845701e-05 -0.0004170688186591342 -0.0013887549920755717" pbc="T T T"
Ni       0.04496833       0.02049433       0.12793336        1       1.00000000       0.12339503      -0.00874685      -0.05593369
Ni       2.53408688      -0.00044762       0.16765986        2       1.00000000      -0.10497487       0.04832104      -0.06731068
Pt       5.08393469      -0.06149430       0.09863853        1       0.00000000      -0.10370185       0.19490335      -1.05306225
Pt       7.79282946      -0.11261335       0.13737029        1       0.00000000      -0.02867514      -0.12043711      -0.84802959
Ni       1.24362800       2.22295062       0.05619547        1       1.00000000      -0.10469539       0.02641767       0.48502735
Pt       3.75887838       2.26922612       0.06531201        1       0.00000000       0.00179778      -0.04814033       0.06872406
Pt       6.43928042       2.25202441       0.11680888        1       0.00000000      -0.00349977      -0.00316478      -0.67976046
Ni       9.06604889       2.20480783       0.13575944        1       1.00000000       0.03629107       0.09259617       0.03205452
Ni       2.55935402       4.45777316       0.00000000        0       1.00000000       0.03337564       0.00678378       0.26384759
Ni       5.09548802       4.45851086       0.05113924        1       1.00000000      -0.02288565       0.08722619       0.35702693
Pt       7.79663850       4.45035207       0.05868498        1       0.00000000       0.04345400       0.03021520       0.05951874
Ni      10.32035104       4.39472017       0.04039768        0       1.00000000       0.05292052      -0.11808439       0.29588114
Ni       3.83057308       6.60081475       0.03365507        0       1.00000000      -0.01214138      -0.11589328       0.41260412
Pt       6.38275432       6.68082016       0.12135550        1       0.00000000      -0.01516062       0.03598788      -0.27125559
Ni       9.00018371       6.61002184       0.02123898        0       1.00000000      -0.06476395       0.00293705       0.08334505
Ni      11.57827518       6.56591049       0.02144551        0       1.00000000       0.06007436       0.01109439       0.14381511
Ni       1.32298452       0.72130180       2.16771708        4       1.00000000       0.09615576      -0.00597214       0.09448162
Ni       3.81153032       0.74623640       2.19514992        4       1.00000000      -0.02499675       0.03453282       0.16557344
Pt       6.42262207       0.79190203       2.29848493        5       0.00000000      -0.05249000       0.25897969       0.18512512
Pt       9.11795161       0.75296005       2.24139191        4       0.00000000       0.06222221       0.12574808       0.09898694
Ni       2.57319383       2.92987407       2.18224530        4       1.00000000       0.01387225      -0.03521260       0.12045046
Ni       5.09703805       2.99752437       2.21550217        4       1.00000000      -0.20096972       0.17058296       0.10683230
Ni       7.76380313       2.98062277       2.22751495        4       1.00000000       0.13672620       0.12240439       0.19108906
Ni      10.30688092       2.92345097       2.18469052        4       1.00000000       0.14448857       0.07794649       0.09329401
Ni       3.89224122       5.15881260       2.16673805        4       1.00000000       0.15203891      -0.02881171       0.07153774
Ni       6.41021280       5.16188125       2.19749193        4       1.00000000      -0.07230014       0.02323632       0.09430106
Ni       8.96788587       5.10740892       2.20719136        4       1.00000000      -0.11428421      -0.16894085       0.24347958
Pt      11.63429343       5.07429373       2.12338622        3       0.00000000       0.15222053      -0.15605630       0.02002055
Ni       5.14545037       7.35087577       2.17898743        4       1.00000000       0.03882232      -0.11136870       0.12850092
Ni       7.65522036       7.37217928       2.17925478        4       1.00000000      -0.16137793      -0.03836171       0.16386534
Pt      10.22419706       7.28254165       2.14171284        3       0.00000000      -0.01514969      -0.12510658      -0.21682393
Ni      12.90843206       7.29672853       2.17474347        4       1.00000000       0.18811882      -0.15643235       0.07594685
Ni       0.00704850       1.46875298       4.33649703        6       1.00000000      -0.00532592      -0.05134672      -0.10873688
Pt       2.57947569       1.47431817       4.29615360        6       0.00000000      -0.06816135      -0.05016313      -0.04709973
Ni       5.13180127       1.48642165       4.35294468        7       1.00000000      -0.11527641       0.09694280      -0.21730818
Ni       7.76866794       1.47579243       4.36887415        7       1.00000000       0.11693638       0.04195355      -0.19256954
Pt       1.29497122       3.66904740       4.38266734        7       0.00000000      -0.02807268       0.01028577      -0.00533135
Ni       3.87903295       3.70732962       4.35388143        7       1.00000000       0.02215225       0.10395692      -0.15255972
Pt       6.42370552       3.72132281       4.26479235        6       0.00000000      -0.06343812      -0.00093853      -0.06345558
Ni       8.98808081       3.63435771       4.33259739        6       1.00000000      -0.08675206      -0.12740128      -0.31057101
Ni       2.62041866       5.85761372       4.35817028        7       1.00000000       0.12976355      -0.16927684      -0.10254643
Ni       5.12556328       5.85681898       4.30073822        6       1.00000000      -0.03844963      -0.12018909      -0.34754786
Ni       7.69430498       5.85609234       4.30632350        6       1.00000000      -0.10984101      -0.02611607      -0.40512474
Pt      10.23984081       5.80603951       4.42250912        7       0.00000000      -0.11719040      -0.05553576      -0.03085329
Pt       3.93307794       8.03819911       4.25547048        6       0.00000000       0.10433771      -0.09551422       0.08332370
Ni       6.41471383       8.07614089       4.27491139        6       1.00000000      -0.03813878      -0.03451325      -0.35202631
Pt       8.90676303       8.06793698       4.27007961        6       0.00000000      -0.14961598      -0.04226391      -0.05155323
Pt      11.60880999       8.05141901       4.29538903        6       0.00000000       0.10059664      -0.15162084      -0.06783817
Pt       0.03775120      -0.02500377       6.54745886        9       0.00000000       0.16249369       0.01130212       0.19276749
Pt       2.58742151      -0.00326443       6.59742624       10       0.00000000      -0.07062370      -0.06763282       0.27200577
Pt       5.14746040      -0.08545931       6.48050982        9       0.00000000       0.03948899       0.15835828       1.04482032
Pt       7.75679805      -0.11609911       6.51171971        9       0.00000000      -0.01926681       0.25439924       0.92686854
Ni       1.32407749       2.24684284       6.52494776        9       1.00000000       0.07770808       0.11592481      -0.14182798
Ni       3.84582261       2.24562187       6.44174668        8       1.00000000      -0.02857270       0.13021012      -0.04246404
Pt       6.40196332       2.25065615       6.44896245        8       0.00000000       0.04530702      -0.06393886       0.60976877
Pt       9.08038186       2.26702833       6.52011110        9       0.00000000      -0.11466860       0.03740710       0.03371860
Ni       2.59304551       4.42118847       6.50066076        9       1.00000000       0.07803430       0.02424433      -0.38644720
Ni       5.08819425       4.40387032       6.49474058        9       1.00000000      -0.18810371       0.01382587      -0.38068519
Ni       7.75950841       4.41956727       6.43706410        8       1.00000000       0.13136312       0.06542588      -0.11503415
Ni      10.32695515       4.41471768       6.55443403       10       1.00000000       0.06409411       0.03685590      -0.11373308
Ni       3.83167961       6.54544089       6.48156912        9       1.00000000      -0.02888484      -0.14057612      -0.35499220
Pt       6.42363132       6.51773560       6.40527650        8       0.00000000      -0.02429671       0.09276406       0.22614003
Ni       9.01889506       6.55150730       6.52588527        9       1.00000000      -0.12216566      -0.02351566      -0.07961250
Ni      11.59582863       6.52493038       6.53081701        9       1.00000000       0.11066237      -0.08249742      -0.18264827
