64
Lattice="9.780568671597631 4.593387093297571e-17 3.31090314270575e-15 4.890284335798815 8.470220933061771 2.2073750735167728e-15 0.0 0.0 21.11479502507774" Properties=species:S:1:pos:R:3:tags:I:1:initial_magmoms:R:1:forces:R:3 unique_id=d5325ae5a57647468c945c5a5e74a6b9 energy=-353.9726982037556 stress="0.0030281987909464916 -4.7043622419070196e-17 -8.334211548569349e-18 -4.7043622419070196e-17 0.003028198790946547 2.8557807661722805e-17 -8.334211548569349e-18 2.8557807661722805e-17 -0.002296665003608969" pbc="T T T"
Ni      -0.02640379      -0.04841841       0.06218257        1       1.00000000       0.03000152       0.07678737      -0.05470356
Ni       2.47154595      -0.04841841       0.06218257        1       1.00000000      -0.03000152       0.07678737      -0.05470356
Ni       4.89850249      -0.00474475       0.05804784        1       1.00000000       0.02035251      -0.01175053      -0.01961594
Ni       7.32720835      -0.00474475       0.05804784        1       1.00000000      -0.02035251      -0.01175053      -0.01961594
Pt       1.22257108       2.11755523       0.00000000        0       0.00000000       0.00000000      -0.00000000      -0.35314293
Ni       3.72284672       2.11889809       0.06218257        1       1.00000000      -0.08150057      -0.01241160      -0.05470356
Ni       6.11285542       2.11813229       0.05893418        1       1.00000000      -0.00000000       0.00201982       0.00978377
Ni       8.50286412       2.11889809       0.06218257        1       1.00000000       0.08150057      -0.01241160      -0.05470356
Ni       2.47387185       4.28218602       0.06218257        1       1.00000000      -0.05149905      -0.06437576      -0.05470356
Ni       4.89861150       4.23991816       0.06060027        1       1.00000000       0.02547117       0.01470579       0.01282663
Ni       7.32709934       4.23991816       0.06060027        1       1.00000000      -0.02547117       0.01470579       0.01282663
Ni       9.75183899       4.28218602       0.06218257        1       1.00000000       0.05149905      -0.06437576      -0.05470356
Ni       3.66821300       6.35237717       0.05893418        1       1.00000000       0.00174921      -0.00100991       0.00978377
Ni       6.11285542       6.34305031       0.06060027        1       1.00000000       0.00000000      -0.02941157       0.01282663
Ni       8.55749784       6.35237717       0.05893418        1       1.00000000      -0.00174921      -0.00100991       0.00978377
Ni      11.00313976       6.36215521       0.05804784        1       1.00000000       0.00000000       0.02350106      -0.01961594
Ni       1.22257108       0.68155477       2.09932483        2       1.00000000       0.00000000       0.01089637      -0.01231813
Ni       3.67359450       0.70245620       2.07129042        2       1.00000000       0.00010593      -0.00006116      -0.01191806
Ni       6.11285542       0.70594384       2.07248652        2       1.00000000      -0.00000000       0.00106032       0.00625205
Ni       8.55211634       0.70245620       2.07129042        2       1.00000000      -0.00010593      -0.00006116      -0.01191806
Ni       2.46618397       2.83555547       2.09932483        2       1.00000000      -0.00943653      -0.00544818      -0.01231813
Ni       4.89779769       2.82624481       2.07856567        2       1.00000000      -0.01060052      -0.00858403       0.02754945
Ni       7.32791315       2.82624481       2.07856567        2       1.00000000       0.01060052      -0.00858403       0.02754945
Ni       9.75952687       2.83555547       2.09932483        2       1.00000000       0.00943653      -0.00544818      -0.01231813
Ni       3.67392756       4.94605005       2.07856567        2       1.00000000      -0.01273425      -0.00488831       0.02754945
Ni       6.11285542       4.94096221       2.07557649        2       1.00000000       0.00000000       0.00000000       0.03513911
Ni       8.55178328       4.94605005       2.07856567        2       1.00000000       0.01273425      -0.00488831       0.02754945
Ni      11.00313976       4.94775329       2.07129042        2       1.00000000      -0.00000000       0.00012232      -0.01191806
Ni       4.88898529       7.05059178       2.07856567        2       1.00000000      -0.00213372       0.01347234       0.02754945
Ni       7.33672555       7.05059178       2.07856567        2       1.00000000       0.00213372       0.01347234       0.02754945
Ni       9.78048891       7.05847140       2.07248652        2       1.00000000      -0.00091826      -0.00053016       0.00625205
Ni      12.22579060       7.05847140       2.07248652        2       1.00000000       0.00091826      -0.00053016       0.00625205
Ni      -0.01202196       1.40476261       4.08634577        3       1.00000000      -0.02405368      -0.01388740      -0.07083287
Ni       2.45716413       1.40476261       4.08634577        3       1.00000000       0.02405368      -0.01388740      -0.07083287
Ni       4.89280133       1.41118815       4.10014757        3       1.00000000       0.00949837      -0.00756692      -0.01077649
Ni       7.33290951       1.41118815       4.10014757        3       1.00000000      -0.00949837      -0.00756692      -0.01077649
Ni       1.22257108       3.54314048       4.08634577        3       1.00000000       0.00000000       0.02777480      -0.07083287
Ni       3.67057909       3.53091332       4.10607600        3       1.00000000      -0.01487608      -0.00858871      -0.03197653
Ni       6.11285542       3.53024093       4.10282206        3       1.00000000       0.00000000       0.00159296       0.01342118
Ni       8.55513175       3.53091332       4.10607600        3       1.00000000       0.01487608      -0.00858871      -0.03197653
Ni       2.44595437       5.64925141       4.10014757        3       1.00000000      -0.00180396       0.01200929      -0.01077649
Ni       4.89113496       5.64632285       4.10282206        3       1.00000000       0.00137955      -0.00079648       0.01342118
Ni       7.33457588       5.64632285       4.10282206        3       1.00000000      -0.00137955      -0.00079648       0.01342118
Ni       9.77975647       5.64925141       4.10014757        3       1.00000000       0.00180396       0.01200929      -0.01077649
Ni       3.66600846       7.76244708       4.10014757        3       1.00000000      -0.01130233      -0.00444237      -0.01077649
Ni       6.11285542       7.76106000       4.10607600        3       1.00000000      -0.00000000       0.01717742      -0.03197653
Ni       8.55970238       7.76244708       4.10014757        3       1.00000000       0.01130233      -0.00444237      -0.01077649
Ni      11.00313976       7.76436919       4.09942858        3       1.00000000       0.00000000       0.00000000      -0.01406506
Ni      -0.00234286      -0.00113943       6.10849471        5       1.00000000       0.00843901       0.02160149       0.01380820
Ni       2.44748503      -0.00113943       6.10849471        5       1.00000000      -0.00843901       0.02160149       0.01380820
Ni       4.89069697      -0.00023823       6.11289239        5       1.00000000       0.00614832      -0.00354973       0.00250696
Ni       7.33501387      -0.00023823       6.11289239        5       1.00000000      -0.00614832      -0.00354973       0.00250696
Ni       1.22257108       2.11755523       5.98893449        4       1.00000000       0.00000000      -0.00000000       0.71241288
Ni       3.66987146       2.11609597       6.10849471        5       1.00000000      -0.02292695      -0.00349235       0.01380820
Ni       6.11285542       2.11717003       6.11355374        5       1.00000000      -0.00000000       0.00015860       0.00381747
Ni       8.55583938       2.11609597       6.10849471        5       1.00000000       0.02292695      -0.00349235       0.01380820
Ni       2.44495751       4.23770916       6.10849471        5       1.00000000      -0.01448794      -0.01810915       0.01380820
Ni       4.89021309       4.23506933       6.11479503        5       1.00000000       0.00630039       0.00363753       0.01951694
Ni       7.33549775       4.23506933       6.11479503        5       1.00000000      -0.00630039       0.00363753       0.01951694
Ni       9.78075333       4.23770916       6.10849471        5       1.00000000       0.01448794      -0.01810915       0.01380820
Ni       3.66737965       6.35285830       6.11355374        5       1.00000000       0.00013735      -0.00007930       0.00381747
Ni       6.11285542       6.35274797       6.11479503        5       1.00000000      -0.00000000      -0.00727506       0.01951694
Ni       8.55833119       6.35285830       6.11355374        5       1.00000000      -0.00013735      -0.00007930       0.00381747
Ni      11.00313976       6.35314217       6.11289239        5       1.00000000       0.00000000       0.00709947       0.00250696
