64
Lattice="10.599156579760129 -0.009580374921834951 0.036532056344279154 5.291281441819978 9.135769493855456 -0.035229311736051254 0.0298282990993627 -0.05043589014794758 9.10928291952566" Properties=species:S:1:pos:R:3:tags:I:1:initial_magmoms:R:1:forces:R:3 unique_id=249c32b6b2544db59cd633642d208210 stress="-0.004607686099107812 -1.768651954951003e-05 1.455468998832684e-05 -1.768651954951003e-05 -0.004597062189592452 1.9874927806527004e-05 1.455468998832684e-05 1.9874927806527004e-05 -0.0036371094306958673" energy=-416.30237516323547 pbc="T T T"
Pt       0.00980800       0.06616458       0.17444820        4       0.00000000      -0.02874261       0.12691131       0.04011888
Pt       2.59572926      -0.01351879       0.18653159        4       0.00000000      -0.04016697      -0.06871342       0.02442446
Pt       5.29635397      -0.01412065       0.15425582        4       0.00000000      -0.01685910      -0.01552721      -0.03727875
Pt       7.99756808       0.02271051       0.16213939        4       0.00000000       0.00334952      -0.01712871       0.06700952
Ni       1.32592115       2.28414013       0.15191402        4       1.00000000       0.07580856      -0.02664394       0.26638295
Pt       3.90148505       2.34427164       0.17516083        4       0.00000000      -0.05102045       0.04376734       0.03918464
Pt       6.64063951       2.29370788       0.04925797        4       0.00000000      -0.03666383      -0.02754081      -0.12254381
Ni       9.28677761       2.27501599       0.08733067        4       1.00000000      -0.03301686       0.00727344       0.11793162
Ni       2.64790122       4.55065330       0.07382878        4       1.00000000       0.00815687      -0.01757169       0.16105384
Pt       5.29283412       4.58259159       0.10230201        4       0.00000000       0.03568073       0.01093012      -0.00545153
Pt       7.94375802       4.57294505       0.07594584        4       0.00000000       0.02524346      -0.01711210      -0.08890334
Pt      10.61907679       4.47756221       0.14844837        4       0.00000000       0.00987058      -0.07956711       0.00726788
Pt       3.98616467       6.80798964       0.11326370        4       0.00000000      -0.01461029      -0.00225891      -0.01039413
Ni       6.62756129       6.84241193       0.14058116        4       1.00000000       0.02820408      -0.01987992       0.21861232
Pt       9.23238228       6.82722696       0.20456145        4       0.00000000       0.04278894      -0.03511470       0.07687879
Pt      11.93666802       6.80618307       0.13556289        4       0.00000000       0.02020134      -0.01262928      -0.00484040
Ni       1.32912984       0.75541811       2.28898426        3       1.00000000       0.02752161      -0.01211164       0.10141089
Pt       3.93772455       0.76069851       2.32081340        3       0.00000000       0.00338201       0.07613484       0.03782603
Pt       6.62666713       0.73279485       2.36177508        3       0.00000000      -0.02796771      -0.02342504       0.01575566
Ni       9.29440391       0.73886186       2.34078810        3       1.00000000      -0.03742596      -0.04818028       0.13136670
Ni       2.66034481       3.05282954       2.27070458        3       1.00000000       0.00263826       0.03590423       0.08458712
Ni       5.29702616       3.07663861       2.30195333        3       1.00000000       0.04413257       0.09922248       0.03347976
Pt       7.92473191       3.07967860       2.32726098        3       0.00000000      -0.08967126       0.05727067       0.01050895
Pt      10.62367056       2.94590804       2.27714366        3       0.00000000      -0.05736791      -0.06845114       0.07922430
Ni       3.99118408       5.27365405       2.28214465        3       1.00000000       0.05730617      -0.08277999      -0.02487857
Ni       6.62468547       5.31463835       2.27769000        3       1.00000000      -0.02759420      -0.03140461      -0.04408341
Ni       9.26120556       5.33207553       2.29976659        3       1.00000000       0.04913555      -0.05080141       0.03135910
Pt      11.98993772       5.27686665       2.30960124        3       0.00000000       0.15838202      -0.09716986      -0.02342023
Pt       5.34970779       7.58251310       2.26333565        3       0.00000000       0.02789217       0.00140084      -0.02525941
Ni       7.94309811       7.56528657       2.27541424        3       1.00000000      -0.01577848      -0.07099365       0.06955085
Ni      10.58795581       7.57603929       2.29373063        3       1.00000000       0.06163225      -0.05193698       0.01374930
Pt      13.27469847       7.58763822       2.42749093        3       0.00000000       0.05988120      -0.02117743       0.11471313
Pt      -0.02742211       1.47380161       4.47041392        2       0.00000000       0.00597650      -0.04324864       0.00361571
Pt       2.64763574       1.51955607       4.48075621        2       0.00000000      -0.02362200       0.04271306       0.04708997
Pt       5.35706164       1.55296216       4.52828937        2       0.00000000      -0.02816371       0.09288146      -0.03289875
Pt       7.96132079       1.47830378       4.54745371        2       0.00000000       0.00463530      -0.01172917      -0.08090632
Pt       1.38311333       3.82496450       4.50564024        2       0.00000000      -0.00981277       0.05635783       0.05279269
Pt       4.01476814       3.83046554       4.45840897        2       0.00000000      -0.03642952       0.02677489      -0.16566239
Ni       6.62455922       3.78275715       4.56049779        2       1.00000000      -0.02794489       0.05668001      -0.04260595
Pt       9.24019440       3.77527213       4.55388911        2       0.00000000       0.03967844       0.00708975      -0.07552360
Ni       2.67521574       6.09183535       4.48942762        2       1.00000000       0.05417592       0.01432983      -0.08253733
Pt       5.28511911       6.03932703       4.43911432        2       0.00000000       0.02028388       0.04076493      -0.11444838
Pt       7.92294706       6.01446681       4.41778210        2       0.00000000      -0.01960382       0.00685462      -0.14855013
Pt      10.64437648       6.09258311       4.43994470        2       0.00000000      -0.00331978       0.01185393      -0.14039255
Ni       3.94727617       8.32865387       4.49287451        2       1.00000000      -0.00186264      -0.03854026       0.02016546
Pt       6.61401387       8.33249200       4.43610338        2       0.00000000       0.03811596      -0.01132837       0.00049631
Pt       9.32063543       8.33040359       4.42423847        2       0.00000000       0.02840792       0.03661451      -0.06725051
Ni      11.96762667       8.32711836       4.51528980        2       1.00000000       0.02723104       0.01492841      -0.01169112
Pt      -0.01657092      -0.01635484       6.72301113        1       0.00000000      -0.00504333      -0.03866583       0.01517489
Pt       2.66435728      -0.03150362       6.74798877        1       0.00000000       0.00119349       0.01756409       0.01394855
Pt       5.35096021      -0.00603942       6.71551720        1       0.00000000      -0.01736347       0.06740674      -0.03586494
Pt       7.97490008       0.01639424       6.71300097        1       0.00000000      -0.01783685       0.02929479       0.04653299
Pt       1.33081984       2.28839504       6.81274771        1       0.00000000      -0.01009664       0.03776582       0.16121495
Pt       4.03976611       2.35248900       6.74507370        1       0.00000000       0.04506200       0.16884486       0.06157824
Ni       6.66976580       2.29782950       6.69832212        1       1.00000000       0.07615310       0.20043997      -0.22297235
Ni       9.25422735       2.26212350       6.78784070        1       1.00000000      -0.11095674       0.05379257      -0.11616132
Ni       2.67701588       4.53432390       6.74776839        1       1.00000000      -0.01476643       0.02422222      -0.11260582
Ni       5.33572751       4.51778319       6.69460077        1       1.00000000       0.10277072      -0.02573907      -0.18730780
Ni       7.93045300       4.47793508       6.70515818        1       1.00000000      -0.13220567      -0.13350133      -0.20349938
Pt      10.57133368       4.49151102       6.74502505        1       0.00000000      -0.12497707      -0.00578598       0.03083752
Pt       3.97926353       6.73899106       6.65646601        1       0.00000000       0.00299165      -0.09411908      -0.02991157
Pt       6.62327063       6.71700333       6.79489419        1       0.00000000      -0.00959372      -0.12414423       0.11030725
Pt       9.26651669       6.76982568       6.73291252        1       0.00000000      -0.07603963      -0.01840888       0.01023892
Pt      11.96446818       6.77801083       6.67855703        1       0.00000000      -0.04135944      -0.02265886      -0.05854636
