64
Lattice="10.27412462458165 0.005502258039570384 -0.04282629773392694 5.14182740753127 8.866554818747064 -0.09184989922192013 0.0 0.0 21.635867836861003" Properties=species:S:1:pos:R:3:tags:I:1:initial_magmoms:R:1:forces:R:3 unique_id=08a8b7108f374d238cd7ca5851155157 stress="0.004644944332162509 -4.5879500845401955e-05 -0.0002650156482219474 -4.5879500845401955e-05 0.004535625608775901 -0.0005224437234070306 -0.0002650156482219474 -0.0005224437234070306 -0.002583722017821956" energy=-373.3736419303356 pbc="T T T"
Ni      -0.00092223       0.00836794       0.23192174        2       1.00000000       0.10356184       0.01560595      -0.34947272
Ni       2.58385683       0.03198246       0.25061186        3       1.00000000       0.02720997       0.02841993      -0.24586189
Ni       5.11836966       0.00303394       0.18912082        2       1.00000000      -0.02134110       0.16332286      -0.26061240
Ni       7.69841119      -0.04649483       0.09110066        1       1.00000000      -0.15975138      -0.03278384       0.16127250
Ni       1.30564357       2.20181009       0.19670697        2       1.00000000       0.04184197      -0.03049767      -0.13175483
Ni       3.81862331       2.20497168       0.13062671        1       1.00000000       0.02702786      -0.00781883       0.37018396
Pt       6.41160830       2.20001205       0.19103559        2       0.00000000       0.01385423      -0.08086212      -0.55162209
Ni       8.99619889       2.22054324       0.12520651        1       1.00000000      -0.06297283       0.03640292      -0.17932175
Ni       2.55898315       4.40827156       0.05093796        1       1.00000000      -0.07670064      -0.11370307       0.21053024
Ni       5.11065589       4.40418487       0.14102176        1       1.00000000      -0.00215429      -0.12731653      -0.53963433
Ni       7.75685951       4.42147473       0.05664790        1       1.00000000       0.11541714      -0.09098338       0.15055392
Ni      10.26612767       4.43470182       0.02900665        0       1.00000000      -0.01808404      -0.02190128       0.23706873
Ni       3.81711553       6.66087332       0.05620050        1       1.00000000      -0.00560967       0.04579084       0.19810873
Pt       6.42449322       6.68451146       0.01872489        0       0.00000000       0.00683288       0.15942541      -0.27328585
Ni       8.99751772       6.62936911       0.11360661        1       1.00000000      -0.09687777      -0.09742516      -0.25143116
Ni      11.58006200       6.65092556       0.00000000        0       1.00000000       0.01370368      -0.02831530       0.20076978
Ni       1.30393682       0.71626692       2.19803088        5       1.00000000      -0.00531661      -0.01748369       0.05607512
Ni       3.84132598       0.76740740       2.19749000        5       1.00000000       0.04119660       0.06107164       0.10913488
Ni       6.39453562       0.73499275       2.26421014        6       1.00000000      -0.03652149       0.06788868       0.27508582
Pt       8.93579037       0.70382413       2.17954871        5       0.00000000      -0.08686864      -0.01110282       0.05072717
Ni       2.58928597       2.90649937       2.18158820        5       1.00000000       0.04095893      -0.01523402      -0.02939279
Ni       5.08631361       2.88405408       2.23039548        5       1.00000000      -0.12490351      -0.12319706       0.17782789
Ni       7.71962311       2.93397927       2.21306814        5       1.00000000       0.07010451       0.01565847       0.16069601
Pt      10.26570023       2.93601096       2.20414000        5       0.00000000       0.04894410      -0.02986483       0.13297903
Pt       3.83635401       5.13738920       2.14975458        4       0.00000000       0.01020935      -0.03716331      -0.06377584
Pt       6.49602553       5.14570610       2.15984303        5       0.00000000       0.06734117      -0.03802305      -0.00229215
Ni       8.98528402       5.15859719       2.17524377        5       1.00000000       0.06184699      -0.00911826       0.12285117
Pt      11.54235131       5.16438053       2.16768270        5       0.00000000       0.01172108      -0.04770541       0.05567278
Ni       5.12500855       7.38613403       2.13816277        4       1.00000000      -0.02787119      -0.05637629       0.01420080
Ni       7.70843638       7.40426497       2.13512321        4       1.00000000       0.03488651       0.05424904       0.07698159
Pt      10.28334074       7.41734343       2.09003054        4       0.00000000      -0.02254700       0.04781798       0.04436584
Ni      12.82642198       7.38742469       2.10467572        4       1.00000000      -0.01119343       0.01025760      -0.03705332
Ni      -0.03342605       1.49013860       4.38861008        9       1.00000000       0.00091546       0.06866435      -0.08859911
Pt       2.57964688       1.54508128       4.29780444        8       0.00000000       0.01266840       0.10539513       0.00880747
Ni       5.13919375       1.44312769       4.31790196        8       1.00000000       0.02044605      -0.01041337      -0.23238487
Ni       7.67789335       1.43628917       4.32813409        8       1.00000000      -0.03685400      -0.00840563      -0.14815022
Ni       1.25569942       3.72339803       4.39291616        9       1.00000000      -0.01915041       0.02687538      -0.02255667
Ni       3.80909021       3.67158996       4.36321959        9       1.00000000       0.01469669       0.02289753      -0.11900009
Pt       6.45808417       3.61836316       4.28853583        8       0.00000000       0.04186747      -0.03629322       0.04546323
Ni       9.01165669       3.69829947       4.33881055        8       1.00000000       0.08916003       0.08225228      -0.05874044
Ni       2.49138154       5.85016057       4.40533029        9       1.00000000      -0.08536665      -0.06900824      -0.03053814
Pt       5.07258262       5.86737285       4.35671971        9       0.00000000      -0.00616703       0.00611820       0.00492031
Ni       7.74174091       5.83566097       4.32478582        8       1.00000000       0.13494879      -0.03261940      -0.15750750
Ni      10.29284489       5.83360005       4.33794980        8       1.00000000      -0.00121838       0.03312371      -0.06593906
Pt       3.72101680       8.09802052       4.31676186        8       0.00000000      -0.08264189       0.02294893       0.06633837
Pt       6.40456668       8.11116942       4.22793187        7       0.00000000      -0.03219145       0.12358664      -0.10779855
Pt       9.02997917       8.06716611       4.24755536        7       0.00000000      -0.00419339       0.01042246      -0.00745467
Ni      11.54668217       8.08949775       4.29348538        8       1.00000000      -0.13804109      -0.00376443      -0.12083479
Pt      -0.07748989      -0.10344865       6.62965571       12       0.00000000       0.09598152       0.18910648       0.23541750
Pt       2.56112553      -0.03886881       6.63586784       12       0.00000000       0.04445145      -0.10115461       0.30172550
Pt       5.18666131      -0.09013503       6.57277744       12       0.00000000       0.04654750      -0.09164206       0.25172272
Ni       7.67295390      -0.08812059       6.52681300       11       1.00000000      -0.02785942       0.06598119      -0.00916866
Pt       1.30082017       2.28950245       6.56591644       12       0.00000000      -0.12662763      -0.10557835       0.00673627
Ni       3.83171780       2.20652594       6.52004950       11       1.00000000       0.09768698      -0.00489428      -0.12089973
Pt       6.39453835       2.16722971       6.46323738       11       0.00000000      -0.04422694      -0.05647482       0.67311820
Pt       8.96786617       2.24503052       6.48006724       11       0.00000000       0.05934048      -0.01128728       0.05889292
Ni       2.52516891       4.44914630       6.48036321       11       1.00000000       0.01884207       0.08372131      -0.22901505
Pt       5.04523682       4.42090638       6.56404651       12       0.00000000      -0.08971878      -0.03883952       0.33795804
Ni       7.68183533       4.40552940       6.47563077       11       1.00000000      -0.10726949      -0.01471662      -0.10056362
Ni      10.28944515       4.42428302       6.44541092       10       1.00000000       0.11747238       0.01629610      -0.19881744
Ni       3.75792902       6.59692123       6.49567148       11       1.00000000      -0.05390383      -0.02910593      -0.11257596
Ni       6.40586627       6.57958431       6.39452736       10       1.00000000       0.11244969       0.01213659       0.31745268
Pt       8.99361954       6.48956123       6.48715372       11       0.00000000       0.00653730       0.06551163       0.03723628
Ni      11.59167176       6.56639036       6.42746604       10       1.00000000      -0.03652710      -0.00987555      -0.30481971
