64
Lattice="10.145588601336346 0.0023956387494198056 0.01198139366292515 5.074868984683515 8.726637000978766 -0.04240480665511531 0.0 0.0 21.419550835799175" Properties=species:S:1:pos:R:3:tags:I:1:initial_magmoms:R:1:forces:R:3 unique_id=6e752749776f46f9903d94a9bc7d2882 energy=-367.9903066406558 stress="0.0018460728518469496 -0.00010228813270276682 5.823093396508276e-05 -0.00010228813270276682 0.0013249142099154218 -0.00011430000458052097 5.823093396508276e-05 -0.00011430000458052097 -0.0051258687023815926" pbc="T T T"
Ni       0.04209120      -0.05006482       0.14334972        1       1.00000000       0.07476157      -0.00235193      -0.34733957
Ni       2.48882562      -0.02961141       0.17049890        2       1.00000000       0.05186268       0.03074771      -0.29653968
Pt       5.10362529      -0.01566369       0.11196953        1       0.00000000      -0.09953135       0.22123710      -1.13093889
Ni       7.63269400      -0.04720345       0.15230912        2       1.00000000      -0.03560522      -0.06502354      -0.44829146
Ni       1.26362562       2.19462301       0.06362148        1       1.00000000      -0.04271724       0.02395814       0.28769978
Pt       3.76692301       2.25700533       0.11722758        1       0.00000000       0.03495769      -0.06536092      -0.63188595
Ni       6.34942254       2.23571286       0.06977817        1       1.00000000      -0.04660261       0.00372572       0.13687514
Pt       8.88484110       2.24013505       0.06955261        1       0.00000000       0.05096079       0.15721383      -0.79668091
Ni       2.51553010       4.40785061       0.03310871        0       1.00000000       0.05464558       0.00443799       0.34352909
Ni       5.09721192       4.41506710       0.03952488        0       1.00000000      -0.08702879       0.02516788       0.25314022
Ni       7.57680586       4.40524356       0.04854421        0       1.00000000       0.06045975      -0.00264330       0.18446395
Ni      10.18088231       4.40100468       0.04676602        0       1.00000000      -0.01501929       0.01079810       0.31767871
Ni       3.81926590       6.51892633       0.02597314        0       1.00000000       0.05143506       0.00049211       0.26569498
Ni       6.33226408       6.52925148       0.03413072        0       1.00000000      -0.01117380       0.04599622       0.22252661
Ni       8.83631888       6.48683174       0.12086128        1       1.00000000      -0.06880457      -0.00097552      -0.48181094
Ni      11.46429461       6.48772465       0.00000000        0       1.00000000       0.04989491       0.06939659       0.16522222
Ni       1.30233922       0.73445949       2.14150672        4       1.00000000       0.03390069       0.10109712       0.15062355
Ni       3.76842991       0.76666877       2.14869061        4       1.00000000      -0.06733858       0.06894342       0.20006978
Ni       6.34200619       0.76732333       2.17839828        5       1.00000000       0.00497323       0.08482057       0.16897381
Pt       8.89941398       0.72750618       2.16003194        5       0.00000000       0.04431612      -0.09217934       0.21747796
Ni       2.50583161       2.92793418       2.17434065        5       1.00000000      -0.01830922       0.00462656       0.07954045
Ni       5.07263912       2.92460156       2.12826724        4       1.00000000      -0.01917611       0.01877853       0.04288326
Ni       7.58636819       2.94081861       2.12898609        4       1.00000000      -0.06402123      -0.00161589       0.09795066
Ni      10.20107375       2.94136686       2.16251165        5       1.00000000       0.09781392      -0.00752365       0.10383737
Ni       3.80602212       5.06826175       2.09511958        4       1.00000000       0.00314884      -0.07474406       0.03053510
Ni       6.31773317       5.08174466       2.04735640        3       1.00000000      -0.03989748      -0.04191711       0.01947962
Ni       8.87654224       5.01392275       2.07926356        4       1.00000000       0.03221021      -0.14981673       0.01977152
Ni      11.45870232       5.02042634       2.11837450        4       1.00000000       0.07396231      -0.09643535       0.13248714
Ni       5.10762386       7.20052556       2.05818029        4       1.00000000      -0.03564887      -0.04805353       0.09116314
Ni       7.55117643       7.25274698       2.04409192        3       1.00000000      -0.03265935      -0.00996620       0.08526973
Pt      10.20670637       7.16105444       2.11317077        4       0.00000000       0.06393762      -0.23145253       0.10724298
Ni      12.71174771       7.18813607       2.06587047        4       1.00000000       0.10876847      -0.09938703       0.08055109
Ni       0.06638628       1.47326118       4.20385881        7       1.00000000       0.10571520      -0.02032757      -0.13886489
Ni       2.49417502       1.50087377       4.17345270        7       1.00000000      -0.04665326       0.03985507      -0.17175658
Ni       5.07573517       1.44654559       4.16103483        7       1.00000000      -0.04835847      -0.01575498      -0.28821590
Ni       7.58839909       1.42342835       4.21969243        7       1.00000000      -0.10628400      -0.11697925      -0.14676522
Ni       1.28120838       3.61976998       4.22037120        7       1.00000000       0.01011104      -0.03089432      -0.10017562
Ni       3.75194943       3.66706546       4.15537355        7       1.00000000      -0.07493612       0.05670427      -0.20813189
Pt       6.29834491       3.56588810       4.22317743        7       0.00000000      -0.01906330      -0.05960392       0.00891804
Ni       8.94307140       3.62807512       4.15809995        7       1.00000000       0.04487939       0.01731564      -0.23585082
Ni       2.52016353       5.73188464       4.20672959        7       1.00000000      -0.05261515      -0.05225260      -0.16546661
Ni       5.03672273       5.75667875       4.21037464        7       1.00000000       0.00152436      -0.08375210      -0.16007466
Pt       7.58914602       5.77899008       4.15479778        7       0.00000000      -0.04076254      -0.00173057      -0.02683850
Ni      10.21776976       5.73273755       4.22958132        7       1.00000000      -0.00834689      -0.00035472      -0.08171698
Pt       3.81229701       7.88607842       4.16429353        7       0.00000000       0.00691997       0.00277993       0.01186087
Ni       6.32415896       7.99617174       4.13753844        6       1.00000000      -0.05274166       0.04195247      -0.19539357
Pt       8.85035418       8.03502634       4.12315754        6       0.00000000      -0.09073104       0.05620540      -0.15040968
Ni      11.44503651       7.94284608       4.17128047        7       1.00000000       0.00646498      -0.10534232      -0.17015812
Pt       0.01832811      -0.07384739       6.40891549       10       0.00000000      -0.17922813       0.17433967       0.29629598
Pt       2.51732661      -0.01798740       6.41613123       10       0.00000000       0.22167351       0.08959970       0.34224289
Pt       5.11275535      -0.00579562       6.27335567        9       0.00000000      -0.07550199       0.07929272       1.20760686
Pt       7.61117197      -0.07645432       6.41955084       10       0.00000000       0.12418349       0.16611768       0.41936992
Ni       1.27538830       2.22448803       6.30771063        9       1.00000000       0.01866432       0.00742271      -0.14823858
Pt       3.80244643       2.29537696       6.23213357        8       0.00000000      -0.02599121      -0.12508308       0.56199485
Ni       6.35059902       2.20707675       6.35528866       10       1.00000000       0.00992156      -0.02316523       0.07794865
Pt       8.89347278       2.25946750       6.21906188        8       0.00000000      -0.00645072      -0.19236137       0.82461612
Ni       2.51535820       4.39073681       6.30338246        9       1.00000000       0.04625821      -0.03324987      -0.32991932
Ni       5.08233191       4.39852683       6.34336356        9       1.00000000      -0.07999543       0.03040163      -0.17049146
Ni       7.55143532       4.33296428       6.36300567       10       1.00000000      -0.01251845       0.00280313      -0.07234582
Ni      10.23871125       4.33094704       6.31505867        9       1.00000000       0.01101049       0.01916889      -0.21697311
Ni       3.80579962       6.41796138       6.32746324        9       1.00000000       0.00278610      -0.01278667      -0.19264376
Ni       6.30861427       6.45162905       6.33661342        9       1.00000000       0.00832116       0.04961364      -0.15935511
Pt       8.91324161       6.39082303       6.41086223       10       0.00000000       0.11765764       0.07018623       0.26798285
Ni      11.46436704       6.44270144       6.30328123        9       1.00000000      -0.02438882       0.08788883      -0.16025127
