64
Lattice="10.23351598256132 0.004720358359970853 -0.09404879162448976 5.120845941535362 8.887257171952486 -0.04650211852288647 0.0 0.0 21.61210895415107" Properties=species:S:1:pos:R:3:tags:I:1:initial_magmoms:R:1:forces:R:3 unique_id=0f51162e96304443b47b68475d0d506a stress="0.004436625660145433 -0.0002242366915896429 -0.0005155206338859243 -0.0002242366915896429 0.004762361364420826 8.064204724636043e-05 -0.0005155206338859243 8.064204724636043e-05 -0.0019329550567841903" energy=-373.160676990968 pbc="T T T"
Pt       0.05924456      -0.00627607       0.16023312        2       0.00000000       0.07576634       0.00332442      -0.05823209
Ni       2.57148713      -0.02393806       0.18612672        2       1.00000000       0.03385473       0.02092328      -0.13216273
Ni       5.07426967      -0.01305218       0.09564780        1       1.00000000      -0.06607501      -0.05521937       0.20795096
Pt       7.67548213       0.05690426       0.13253492        1       0.00000000       0.14957339       0.01237765      -0.68476306
Ni       1.23010119       2.21176093       0.21435211        2       1.00000000      -0.07016398       0.00254446      -0.24827074
Pt       3.86471159       2.14272333       0.03820804        0       0.00000000      -0.08556126      -0.00536732      -0.27268805
Ni       6.41150410       2.26235596       0.05341848        1       1.00000000       0.04435542       0.10611084       0.16066092
Ni       8.96755945       2.26736364       0.06394871        1       1.00000000       0.04520793      -0.01717325       0.18954653
Pt       2.54930375       4.42744006       0.14612560        1       0.00000000      -0.09581545      -0.10885282      -1.34491026
Ni       5.16198809       4.46421545       0.06092318        1       1.00000000      -0.01169785      -0.07977358       0.15744860
Ni       7.68259600       4.45448440       0.05258898        1       1.00000000       0.01854839       0.05735533       0.26822423
Ni      10.15364092       4.41698582       0.14044599        1       1.00000000      -0.17802540      -0.06510226      -0.30254089
Ni       3.87966792       6.66394058       0.09848601        1       1.00000000      -0.02755455       0.06672733       0.02934218
Ni       6.40245062       6.64436096       0.05990055        1       1.00000000       0.06507670       0.00485464       0.23328290
Ni       8.91025549       6.66042543       0.06603076        1       1.00000000      -0.14084848      -0.07882926       0.26150465
Pt      11.42873405       6.70556762       0.00000000        0       0.00000000      -0.00511531       0.03409700      -0.33913930
Ni       1.22725707       0.72404944       2.31598470        4       1.00000000      -0.09809122      -0.06429799       0.37339893
Ni       3.81415818       0.70390647       2.28501094        4       1.00000000       0.07288342       0.00486996       0.29706781
Pt       6.34996632       0.67173683       2.31788640        4       0.00000000       0.06693231      -0.00644936       0.08879187
Ni       8.99444209       0.74933181       2.22927382        3       1.00000000       0.11099484       0.05432735       0.13796157
Pt       2.50059405       2.84276434       2.30618394        4       0.00000000       0.05087980      -0.12266043       0.25150146
Pt       5.11307200       2.94284652       2.30587112        4       0.00000000       0.07348888       0.03605469       0.17948919
Pt       7.75676526       2.94795834       2.21883748        3       0.00000000       0.02127783      -0.10185402       0.05202272
Ni      10.19781718       2.91714131       2.16674573        3       1.00000000       0.06846310      -0.16176086       0.05813368
Pt       3.85068871       5.26676125       2.27258038        4       0.00000000       0.02827700       0.04689088       0.08311542
Pt       6.43406947       5.22812226       2.23049286        3       0.00000000       0.07134011       0.03544953       0.11640011
Ni       8.92643529       5.19505952       2.17379980        3       1.00000000      -0.07513774       0.06609392       0.02587183
Pt      11.39239173       5.21355039       2.18348099        3       0.00000000      -0.04360675       0.01063157       0.03334944
Ni       5.10678728       7.45713439       2.24944141        3       1.00000000       0.09313383       0.09859813       0.13841200
Pt       7.68823491       7.46758025       2.23120623        3       0.00000000      -0.09431438       0.00804600       0.13621263
Ni      10.18745968       7.43276793       2.19811119        3       1.00000000      -0.05590480       0.04520135       0.11803684
Ni      12.79179697       7.42879833       2.17249429        3       1.00000000       0.01437161       0.00346328       0.06324630
Ni      -0.05378365       1.46786986       4.42324877        5       1.00000000       0.00069305       0.06471920      -0.17129608
Ni       2.54994743       1.42610622       4.42513127        5       1.00000000      -0.00100474      -0.11060290      -0.19340971
Ni       5.07821406       1.47353552       4.45871277        6       1.00000000       0.07934851      -0.06134817       0.06655316
Ni       7.62898289       1.53670656       4.39671401        5       1.00000000       0.02929177       0.16095641      -0.02827078
Pt       1.18709419       3.62674038       4.41083599        5       0.00000000      -0.13257912      -0.03229750      -0.02489982
Ni       3.87747324       3.66874366       4.44839548        5       1.00000000       0.11618755      -0.03074570      -0.04870217
Ni       6.36635234       3.70521870       4.46011294        6       1.00000000       0.05201675       0.01479894       0.06168308
Ni       8.85431881       3.68305387       4.39270190        5       1.00000000      -0.16012980       0.00818596       0.06056485
Pt       2.55639996       5.98941156       4.44017585        5       0.00000000      -0.04109502       0.13694844       0.01059278
Ni       5.14375956       5.91427838       4.45824178        6       1.00000000       0.09147711      -0.03371724       0.02997882
Ni       7.59396230       5.92448388       4.43942091        5       1.00000000      -0.15812013       0.00765616       0.13703565
Pt      10.08083760       6.00596056       4.35899903        5       0.00000000      -0.25782034       0.00541548      -0.05249683
Pt       3.88231890       8.20151176       4.35134552        5       0.00000000       0.11697446       0.01525776      -0.12162511
Ni       6.38696907       8.14129426       4.38710089        5       1.00000000       0.12347688      -0.00581798      -0.12486350
Ni       8.91681658       8.19789793       4.36769508        5       1.00000000      -0.00191025       0.22619381      -0.12636666
Ni      11.42805297       8.18981217       4.35358399        5       1.00000000      -0.15805361       0.10395578      -0.03346236
Ni      -0.04978914      -0.03696638       6.52711133        8       1.00000000       0.10559873      -0.07664432       0.08243983
Pt       2.54880014      -0.07325290       6.54567815        8       0.00000000      -0.05191049       0.02472356      -0.01520560
Ni       5.06792286       0.01051813       6.51829414        8       1.00000000       0.05633443       0.03195425      -0.38919943
Pt       7.59861355       0.03435261       6.44431665        7       0.00000000      -0.08299791       0.07599447       0.54098863
Pt       1.19250476       2.15192864       6.61210895        9       0.00000000       0.06015085      -0.10045569       0.34167459
Ni       3.85802464       2.20900853       6.43750059        7       1.00000000       0.04415289      -0.07391443       0.08332450
Ni       6.33254997       2.26346926       6.50364741        8       1.00000000       0.02120303       0.01175408      -0.41867260
Ni       8.85067518       2.23300025       6.49251157        8       1.00000000      -0.10325718       0.02920917      -0.30952886
Pt       2.61680922       4.44820804       6.51678861        8       0.00000000       0.11938527      -0.22322774       1.25987762
Ni       5.13049682       4.44649583       6.51818098        8       1.00000000       0.04402611       0.00114132      -0.36243960
Ni       7.56514728       4.44475827       6.50517235        8       1.00000000      -0.02525025       0.03103673      -0.40660154
Pt      10.08249018       4.47160813       6.55547960        9       0.00000000       0.04028904      -0.09419609       0.27546142
Ni       3.85308912       6.67866632       6.56728523        9       1.00000000       0.12074640       0.04678163      -0.17540963
Ni       6.33936471       6.62477534       6.51314198        8       1.00000000       0.02511586      -0.02584743      -0.36279566
Ni       8.88072716       6.67348337       6.51771603        8       1.00000000      -0.08995007      -0.07513975      -0.17936591
Ni      11.44502202       6.71085699       6.41306343        7       1.00000000      -0.03890323       0.09667070       0.31617125
