64
Lattice="10.755921878388767 -0.0009810733472955654 6.729397735738804e-05 5.377111304752653 9.320804883854972 -0.0001791255587403582 5.494530242933569e-05 -0.000200603881507131 9.400843157606023" Properties=species:S:1:pos:R:3:tags:I:1:initial_magmoms:R:1:forces:R:3 unique_id=e8e0d73e1210498b93bdd9c122d27186 stress="0.0003615063958740741 -1.078020345099007e-06 -6.94953781950338e-07 -1.078020345099007e-06 0.00036097347246161204 -1.4721130290543045e-06 -6.94953781950338e-07 -1.4721130290543045e-06 0.0002837824711811876" energy=-429.1027518228999 pbc="T T T"
Pt       0.02825997      -0.02426269       0.11379644        4       0.00000000       0.06958603      -0.06422460       0.10085932
Pt       2.66359431      -0.02629938       0.10169325        4       0.00000000      -0.04470728      -0.04069003       0.09197781
Pt       5.36680715      -0.00309294       0.08902430        4       0.00000000      -0.06825007      -0.01341692       0.13473051
Pt       8.07582379      -0.00058395       0.09844998        4       0.00000000       0.06528697       0.00838010       0.14475324
Pt       1.33621800       2.31813876       0.13547238        4       0.00000000      -0.02735548      -0.05299680       0.17274318
Pt       4.02933275       2.33031591       0.02396934        4       0.00000000      -0.01580545       0.00675614      -0.03703230
Pt       6.72454387       2.33992804       0.08745371        4       0.00000000       0.01167082       0.05815844       0.11940763
Pt       9.41960604       2.33846201       0.11357489        4       0.00000000      -0.00289759       0.04515725       0.11696531
Pt       2.69356421       4.65582908       0.09327330        4       0.00000000       0.02851742      -0.02000866       0.11428527
Pt       5.39914120       4.69102237       0.07867562        4       0.00000000       0.04072292       0.07049368       0.07391082
Pt       8.05089656       4.69524011       0.00994615        4       0.00000000      -0.04309844       0.09561088      -0.11492498
Pt      10.74482365       4.65327427       0.10426425        4       0.00000000      -0.04367243      -0.00047720       0.10503884
Pt       4.07413595       6.99284924       0.09265286        4       0.00000000       0.11530914       0.00747651       0.11518969
Ni       6.72693124       6.98928658       0.03001603        4       1.00000000       0.03017639      -0.00172002       0.13927972
Pt       9.36821509       6.98601381       0.01387664        4       0.00000000      -0.12031495      -0.00532310      -0.08208223
Pt      12.09393393       6.98761883       0.09304009        4       0.00000000      -0.02959435      -0.02170031       0.13979237
Ni       1.33542264       0.78881370       2.35300953        3       1.00000000      -0.02033501       0.03943559       0.06659434
Pt       3.99207053       0.78163208       2.37415825        3       0.00000000      -0.11719329       0.00087429       0.11509047
Pt       6.72751022       0.77961174       2.36918876        3       0.00000000       0.01792358       0.02935128       0.09082546
Pt       9.47699315       0.80917088       2.37349988        3       0.00000000       0.19234214       0.09096312       0.07011585
Pt       2.63316143       3.06886567       2.38487626        3       0.00000000      -0.12631311      -0.11792725       0.17057585
Pt       5.36825694       3.10464921       2.37422020        3       0.00000000      -0.05714490       0.00551483       0.13164717
Pt       8.10126408       3.11264085       2.37389976        3       0.00000000       0.04231637       0.05989155       0.08810367
Ni      10.76420088       3.09086046       2.35568786        3       1.00000000       0.03186983      -0.05489938       0.06330888
Pt       4.03031665       5.43397593       2.37011896        3       0.00000000       0.00311175      -0.04944856       0.15759597
Pt       6.73235035       5.45420775       2.35185892        3       0.00000000       0.06988145       0.03587533       0.09860877
Pt       9.41963399       5.41363497       2.37551584        3       0.00000000      -0.04083722       0.01391322       0.14201857
Pt      12.08388683       5.40061165       2.37328848        3       0.00000000      -0.05508395      -0.08466821       0.11400770
Pt       5.40806986       7.79134418       2.35783316        3       0.00000000       0.08115704       0.02493706       0.10754207
Pt       8.04279425       7.78221793       2.35265334        3       0.00000000       0.01057584      -0.03604506       0.10485402
Pt      10.73896111       7.76083930       2.37093371        3       0.00000000      -0.10969920      -0.03209568       0.06957825
Pt      13.45342976       7.76901870       2.37090500        3       0.00000000       0.04839456       0.02311965       0.09042218
Pt       0.01522467       1.55928983       4.62974585        2       0.00000000       0.10824726       0.03500064      -0.24123650
Pt       2.68796147       1.54701336       4.68377623        2       0.00000000      -0.03773740      -0.08094360      -0.02532102
Pt       5.36134456       1.55993864       4.70345206        2       0.00000000      -0.03664594       0.00782990      -0.05795134
Pt       8.06907280       1.55680643       4.67203321        2       0.00000000       0.00806111       0.00413322      -0.11686199
Pt       1.32950132       3.87662964       4.65657151        2       0.00000000      -0.08533470      -0.00792186      -0.09612702
Pt       4.03452618       3.86970787       4.70368911        2       0.00000000       0.00991042      -0.00712691      -0.03792255
Pt       6.73849621       3.89566268       4.70698822        2       0.00000000       0.05080775       0.04213674      -0.10467056
Pt       9.40903016       3.88666607       4.67939956        2       0.00000000       0.03091765      -0.02277260      -0.11891659
Pt       2.68899344       6.20746661       4.68033746        2       0.00000000       0.01309778      -0.04195022      -0.08275781
Pt       5.39814385       6.22052132       4.69860462        2       0.00000000       0.05728078       0.02026685      -0.10311905
Pt       8.06456321       6.21525023       4.76973366        2       0.00000000      -0.03118735       0.01969973       0.26974317
Pt      10.73644618       6.21676534       4.70519089        2       0.00000000      -0.03623392       0.00609341      -0.03864875
Pt       4.03965920       8.54746825       4.67430262        2       0.00000000       0.03418645       0.01845199      -0.10652399
Pt       6.72613068       8.54146864       4.67618406        2       0.00000000       0.01499128       0.03381495      -0.14497527
Pt       9.40369905       8.52775033       4.71046318        2       0.00000000      -0.02932362      -0.04586529      -0.05051496
Pt      12.09514081       8.54517475       4.67691986        2       0.00000000      -0.01529942       0.01763900      -0.11768124
Pt       0.02819063      -0.02877486       6.96679090        1       0.00000000       0.08651462      -0.03375411      -0.06151142
Pt       2.69834303      -0.04275712       6.96083478        1       0.00000000      -0.02423832      -0.20898863      -0.03086472
Pt       5.34473110       0.00149835       6.95884937        1       0.00000000      -0.06905227       0.03152142      -0.03828789
Pt       8.06396683       0.00093748       6.96127805        1       0.00000000       0.00625934       0.01480285      -0.07324759
Pt       1.37072047       2.32566523       6.96188966        1       0.00000000       0.03489397      -0.03574904      -0.01244376
Ni       4.03573410       2.32923739       6.96589533        1       1.00000000       0.00389721      -0.01052343      -0.33843170
Pt       6.70302875       2.35695878       6.95721178        1       0.00000000      -0.05131907       0.03742226      -0.05975767
Pt       9.39778518       2.36101211       6.96276971        1       0.00000000      -0.01012786       0.06093629      -0.05879871
Pt       2.70573192       4.63670314       6.95903055        1       0.00000000       0.03099033      -0.06051327      -0.08153323
Pt       5.42047961       4.67167862       6.95687422        1       0.00000000       0.18852106       0.11289181      -0.08069899
Ni       8.06164538       4.68644027       6.96322704        1       1.00000000      -0.02572452       0.15311878      -0.34842909
Pt      10.70287924       4.68792139       6.95844153        1       0.00000000      -0.18151250       0.07832007      -0.03849443
Pt       4.07082241       6.98229394       6.96238592        1       0.00000000       0.08653436      -0.03085092      -0.07452032
Ni       6.74340546       6.97760949       7.01034418        1       1.00000000       0.14780017      -0.07680412      -0.17204012
Ni       9.38669682       6.98109849       6.96311632        1       1.00000000      -0.14548771      -0.04692556      -0.31882263
Pt      12.06631522       6.98723878       6.95967675        1       0.00000000      -0.07022645      -0.00365743      -0.05441565
