64
Lattice="10.431156722523774 0.01330961635835664 0.016596845139938202 5.227104827142853 9.021364279699023 -0.01081753285531317 0.013551267310946451 -0.018022695613435717 8.923534966246281" Properties=species:S:1:pos:R:3:tags:I:1:initial_magmoms:R:1:forces:R:3 unique_id=0be217c4571a4b04a75506ab21c67a64 stress="-0.0036473904827898224 -1.7724619878040335e-05 1.0842842667861164e-05 -1.7724619878040335e-05 -0.003615818039369195 -1.1621076002362806e-06 1.0842842667861164e-05 -1.1621076002362806e-06 -0.0031392724697055924" energy=-404.9281326755953 pbc="T T T"
Ni      -0.05342307      -0.00431530       0.17689481        4       1.00000000      -0.19720387      -0.05957121       0.11883538
Ni       2.62951440      -0.01570657       0.17154545        4       1.00000000       0.14074345      -0.07782606       0.13808287
Ni       5.23552826      -0.02777861       0.16285134        4       1.00000000       0.07010728       0.00780699       0.11346593
Ni       7.85028696      -0.03673686       0.12823460        4       1.00000000       0.02611895      -0.11325240       0.09693182
Ni       1.29698444       2.26441135       0.15543673        4       1.00000000       0.01050690       0.02635150       0.08105561
Pt       3.85918514       2.30721201       0.14974785        4       0.00000000      -0.02046591       0.09534213      -0.08495149
Pt       6.53474618       2.17843652       0.15756987        4       0.00000000      -0.00206123      -0.10442540      -0.05615556
Ni       9.14685437       2.22316036       0.16115404        4       1.00000000      -0.01857027      -0.15251950       0.08780584
Ni       2.60412263       4.52748468       0.14310248        4       1.00000000       0.01976211       0.04302875       0.08063987
Ni       5.22719502       4.51818594       0.16654655        4       1.00000000       0.17775968      -0.03818354       0.16033525
Pt       7.90645902       4.54113813       0.06845464        4       0.00000000       0.09825109      -0.02415877      -0.15461258
Ni      10.46521029       4.54254893       0.05803814        4       1.00000000       0.09111158       0.09300810      -0.07974202
Ni       3.89283038       6.79320957       0.17398512        4       1.00000000      -0.03286842       0.05638287       0.13805360
Pt       6.50913062       6.81384697       0.20084387        4       0.00000000      -0.01133832       0.01868295       0.00117579
Ni       9.16318654       6.77923583       0.07572627        4       1.00000000       0.02143420       0.00771650      -0.00946413
Ni      11.76279166       6.78653822       0.06460215        4       1.00000000       0.10611502       0.04531041      -0.08094127
Pt       1.27790176       0.69888056       2.15091512        3       0.00000000      -0.01008323      -0.02225385       0.04395723
Pt       3.97817338       0.76985638       2.24349740        3       0.00000000       0.05900810       0.03955502       0.04780057
Ni       6.56657083       0.72636893       2.27280093        3       1.00000000       0.09351537      -0.07320613       0.06219890
Ni       9.08314072       0.71552500       2.20318197        3       1.00000000      -0.08997199      -0.03875524      -0.05515700
Ni       2.62251772       3.03008467       2.24160032        3       1.00000000      -0.01223652       0.05192784       0.05999040
Ni       5.21652984       3.01761494       2.27510420        3       1.00000000       0.02747239       0.00199519       0.05278851
Pt       7.82700520       2.98448776       2.28906424        3       0.00000000      -0.00637105       0.00285300      -0.02631100
Pt      10.42324053       3.04333990       2.17435859        3       0.00000000      -0.00013073       0.08065067      -0.00867791
Pt       3.94975318       5.25142283       2.18911670        3       0.00000000       0.03985907      -0.01280731       0.05738256
Ni       6.55980421       5.27466051       2.24841893        3       1.00000000       0.10606856      -0.00652592       0.02219920
Ni       9.11007814       5.29174243       2.28148012        3       1.00000000      -0.03971630       0.00418626       0.07100543
Pt      11.75734630       5.30307211       2.19584977        3       0.00000000       0.01143159       0.04888711      -0.00354068
Ni       5.18705852       7.51627712       2.20609635        3       1.00000000      -0.09287462      -0.00703800      -0.00725445
Ni       7.85113554       7.46336556       2.23810229        3       1.00000000       0.05157436      -0.10715021       0.04109378
Pt      10.44521944       7.49328172       2.15436451        3       0.00000000      -0.03785113      -0.01433081      -0.00439605
Ni      13.06885044       7.55932678       2.19642025        3       1.00000000      -0.02750311       0.01307498      -0.08271240
Pt      -0.07546127       1.54438867       4.37976956        2       0.00000000      -0.08774639       0.05960894      -0.01079940
Pt       2.64793202       1.55524822       4.37279712        2       0.00000000      -0.07877121      -0.00420622      -0.03356650
Ni       5.25865738       1.50573493       4.39660490        2       1.00000000       0.04096039      -0.03675694      -0.12957687
Ni       7.80976261       1.49337899       4.40762748        2       1.00000000      -0.04095879      -0.04114550      -0.11618749
Pt       1.28633032       3.84891176       4.41572666        2       0.00000000      -0.00068514       0.03546491       0.01390313
Ni       3.93125905       3.76105448       4.39190545        2       1.00000000      -0.02103410       0.02051074      -0.10491624
Pt       6.55550869       3.74509416       4.39541144        2       0.00000000      -0.03270898      -0.00271429      -0.00012262
Ni       9.12924540       3.83213259       4.45431774        2       1.00000000       0.00874653       0.10177162      -0.11422039
Ni       2.60002859       6.00671617       4.41944050        2       1.00000000      -0.00754475       0.02822952      -0.07262060
Pt       5.20944117       5.96813698       4.36069680        2       0.00000000      -0.02267458       0.00442178       0.05976146
Ni       7.90137480       5.95369131       4.40608990        2       1.00000000       0.03467294      -0.06865119      -0.15722324
Ni      10.41689864       5.99206305       4.47834042        2       1.00000000      -0.01991532       0.00633532      -0.07779753
Pt       3.88362874       8.26073994       4.32268245        2       0.00000000       0.01163094      -0.00242474      -0.06091889
Pt       6.55123722       8.21853751       4.34839524        2       0.00000000      -0.01667775       0.01122017       0.00568973
Pt       9.16094795       8.17254642       4.42308505        2       0.00000000      -0.02941979       0.00557365       0.02529915
Pt      11.76475882       8.25418016       4.40523740        2       0.00000000      -0.03296645      -0.04013723      -0.04801578
Pt      -0.04158939      -0.00635679       6.70390851        1       0.00000000      -0.00945405       0.05674514       0.08290191
Pt       2.64645533      -0.04862901       6.70522441        1       0.00000000       0.00515934      -0.00414997       0.12504865
Pt       5.28213590      -0.11559790       6.69971426        1       0.00000000       0.01284541      -0.12204020       0.13113010
Ni       7.82279042      -0.00303899       6.63500502        1       1.00000000       0.01997354       0.05696321      -0.10618183
Pt       1.28046229       2.29246453       6.69368194        1       0.00000000      -0.01407755       0.03940661       0.08184658
Pt       3.94370953       2.25491845       6.54408905        1       0.00000000       0.02132672      -0.00260769      -0.06024207
Pt       6.56619481       2.20254189       6.54188458        1       0.00000000      -0.03199978      -0.08215539      -0.03336552
Pt       9.11244135       2.34353724       6.66200202        1       0.00000000      -0.00423085       0.13213459       0.08701624
Pt       2.53934727       4.57168713       6.65507576        1       0.00000000      -0.06473226       0.05498885       0.09466397
Pt       5.24978196       4.50853527       6.66417386        1       0.00000000      -0.05063280       0.01333570       0.14168087
Ni       7.89880253       4.53125997       6.52349622        1       1.00000000       0.05059366       0.05894109      -0.20446148
Ni      10.39219925       4.58325445       6.60675335        1       1.00000000      -0.10110154       0.11527113      -0.15561890
Pt       3.83141451       6.80322667       6.67538477        1       0.00000000      -0.07367145       0.06894051       0.12827479
Pt       6.62521662       6.69914168       6.57595264        1       0.00000000       0.05249672      -0.01247261      -0.00183769
Ni       9.19110228       6.68408076       6.60455182        1       1.00000000       0.04158499      -0.13205004      -0.12590312
Ni      11.70498354       6.74132683       6.61614066        1       1.00000000      -0.11058065      -0.10310741      -0.18452242
