64
Lattice="10.43771671530695 0.007137459076042674 0.06990753299009073 5.225039578531801 9.096018074224897 0.031875373219942445 0.0 0.0 21.812167493464354" Properties=species:S:1:pos:R:3:tags:I:1:initial_magmoms:R:1:forces:R:3 unique_id=94c36ebfe50e4e0c842cc50a1976ec4d energy=-383.8445462773438 stress="0.006015943013659224 5.69680009904198e-05 0.00015035262358961872 5.69680009904198e-05 0.006513505954057533 9.013651446541938e-05 0.00015035262358961872 9.013651446541938e-05 -0.000684168707255654" pbc="T T T"
Pt      -0.06388150       0.03552243       0.04742321        0       0.00000000      -0.19527300      -0.04307987      -0.06304389
Ni       2.63978523      -0.01775420       0.07420774        1       1.00000000       0.10339107      -0.04130924       0.36207913
Ni       5.25872751      -0.02122530       0.17519510        2       1.00000000       0.18238444       0.07937449      -0.04901163
Ni       7.79249593       0.03779735       0.15262045        2       1.00000000      -0.20661423       0.08812084       0.55298157
Pt       1.26209658       2.28250227       0.00000000        0       0.00000000       0.06317486       0.11791475      -0.27737685
Pt       3.98984695       2.20559964       0.12896937        1       0.00000000       0.17699549       0.06739832      -0.68943370
Ni       6.57738226       2.23467003       0.18853883        2       1.00000000       0.01422685      -0.19706062       0.27095995
Ni       9.09366828       2.28863549       0.12828782        1       1.00000000      -0.10358447       0.01528756       0.41038091
Pt       2.56851946       4.57733064       0.11487161        1       0.00000000       0.11589996      -0.01877340      -0.95269764
Pt       5.32819534       4.49216375       0.18053957        2       0.00000000       0.16143962      -0.15322430      -0.44600941
Ni       7.89056256       4.53591998       0.19727678        2       1.00000000       0.15292427       0.04763879       0.29423547
Ni      10.38643171       4.58028555       0.12856360        1       1.00000000      -0.12532612       0.10583934       0.36321529
Pt       3.85462043       6.89219957       0.18930462        2       0.00000000      -0.09779718       0.05504575      -0.58822007
Pt       6.59947729       6.81392984       0.18051453        2       0.00000000      -0.11499628      -0.08297762      -0.50088165
Ni       9.17538359       6.81040663       0.12509012        1       1.00000000       0.05920064      -0.09139316       0.48101419
Ni      11.71624617       6.85900769       0.20535696        2       1.00000000       0.06531003       0.04860164      -0.13410721
Pt       1.27511236       0.71591806       2.27003476        3       0.00000000      -0.03081776      -0.00389617       0.03241132
Pt       4.02645861       0.75535553       2.32277484        3       0.00000000       0.04928261      -0.00012686       0.21691898
Ni       6.58391732       0.77484970       2.29309331        3       1.00000000       0.13544320       0.03929810       0.07752025
Ni       9.08512537       0.74713500       2.31232985        3       1.00000000      -0.15749775      -0.00362716       0.02416690
Pt       2.66260967       3.04549779       2.33962922        3       0.00000000      -0.05611375       0.01300137       0.20541862
Ni       5.27850914       3.01973387       2.35982135        4       1.00000000       0.01221840      -0.03726006       0.47040325
Pt       7.76776632       3.02660158       2.32890851        3       0.00000000      -0.05420376      -0.05631066       0.11599508
Pt      10.35794838       3.05146030       2.31181325        3       0.00000000      -0.13245919      -0.11626028       0.03266751
Pt       4.00120487       5.32193410       2.33770489        3       0.00000000       0.12510758       0.01331297       0.10764769
Ni       6.58634036       5.27461313       2.33292442        3       1.00000000       0.16294742      -0.11479444       0.28927081
Ni       9.11720746       5.29886986       2.32618394        3       1.00000000      -0.11342972      -0.07670612       0.11853986
Pt      11.69282737       5.35190881       2.33745038        3       0.00000000      -0.06859550      -0.01115098       0.09878270
Ni       5.21563716       7.58794090       2.30103890        3       1.00000000      -0.00451802       0.04327101       0.22474896
Pt       7.86819645       7.48875711       2.34322248        3       0.00000000       0.05135753      -0.05796990       0.10230139
Pt      10.49547948       7.59447505       2.26032740        3       0.00000000       0.04006817       0.03719136       0.10860771
Ni      13.07178356       7.65547718       2.34869644        3       1.00000000       0.03129999       0.19209781       0.10661572
Pt      -0.07701008       1.57069853       4.56849721        7       0.00000000      -0.30230122       0.11984917      -0.13704592
Pt       2.65844301       1.52320242       4.51947262        6       0.00000000       0.00497874       0.03281556      -0.03304470
Ni       5.29347545       1.56827345       4.49725498        6       1.00000000       0.08688682       0.19058933      -0.28388859
Ni       7.83266520       1.56033658       4.52366952        6       1.00000000      -0.12174743       0.16644568      -0.20431503
Pt       1.23556657       3.81677448       4.52230638        6       0.00000000      -0.17589643       0.16350485      -0.05093926
Ni       3.99410189       3.76149617       4.49264448        6       1.00000000       0.15450965      -0.05314845      -0.34729112
Ni       6.58233975       3.75388651       4.49674076        6       1.00000000       0.04875269      -0.09910856      -0.27209211
Ni       9.11813592       3.82386257       4.54706766        6       1.00000000      -0.24891789       0.05357060      -0.21095532
Pt       2.61027368       6.07239438       4.46545061        6       0.00000000      -0.06088927       0.03271712      -0.18066781
Pt       5.34506346       6.00179729       4.44804028        5       0.00000000       0.19816068      -0.08196463      -0.16285771
Ni       7.90971896       5.99905889       4.52518206        6       1.00000000       0.14609592      -0.26296959      -0.23913450
Ni      10.40933104       6.04243157       4.58448029        7       1.00000000      -0.12848080      -0.03789444      -0.04836131
Pt       3.92383763       8.39125024       4.43833477        5       0.00000000      -0.04916620       0.04075440      -0.24942637
Pt       6.54975186       8.34055348       4.53637644        6       0.00000000      -0.10588212       0.00774928      -0.07276695
Pt       9.17686466       8.26510577       4.59890190        7       0.00000000       0.00584503      -0.12516733       0.04855266
Pt      11.77440179       8.42589230       4.51775993        6       0.00000000      -0.09479057       0.22227718      -0.11234507
Ni       0.03657165       0.04945251       6.64122114        8       1.00000000      -0.02204312       0.00248305       0.01329311
Ni       2.62607361       0.00651997       6.73124779        9       1.00000000      -0.10519256       0.10335437      -0.20886826
Pt       5.22676240      -0.01991121       6.79709126       10       0.00000000      -0.01143579       0.14754416       0.05254571
Ni       7.89363835       0.03147799       6.76177985       10       1.00000000       0.08365132      -0.01507198      -0.39322947
Ni       1.29348705       2.24887277       6.62897488        8       1.00000000      -0.01437417      -0.01958278       0.16523050
Pt       3.92982131       2.23794177       6.65837311        9       0.00000000       0.08231924       0.06411764       0.70914821
Pt       6.65533951       2.22823359       6.71120295        9       0.00000000      -0.00757889      -0.02446973      -0.19728375
Ni       9.19853958       2.26763364       6.77687541       10       1.00000000       0.05169897      -0.00034423      -0.32759427
Pt       2.59491331       4.50740255       6.65916406        9       0.00000000       0.20294201      -0.12454146       0.80140819
Pt       5.29194399       4.52418074       6.65624336        9       0.00000000       0.04105984      -0.00330054       0.47877439
Pt       7.98777902       4.54809635       6.71811565        9       0.00000000      -0.08613050      -0.05802163      -0.34864232
Ni      10.45849818       4.53436198       6.76863936       10       1.00000000       0.06468449      -0.08976436      -0.33058505
Pt       3.95499663       6.90597875       6.69221280        9       0.00000000       0.12177614      -0.00234203       0.50465434
Pt       6.65073455       6.87238298       6.70356073        9       0.00000000      -0.01859331      -0.07443280       0.52840050
Ni       9.17903169       6.80867123       6.76190561       10       1.00000000       0.06180512      -0.03934831      -0.20666819
Pt      11.70543834       6.80431945       6.81216749       10       0.00000000      -0.04319182      -0.09377279      -0.05010574
