64
Lattice="10.386869028678369 -0.015664042840860575 0.06019225352671069 5.179869055313029 8.92434048223827 0.0495475041074586 0.049146769202894125 0.018338934431244663 8.871407867182869" Properties=species:S:1:pos:R:3:tags:I:1:initial_magmoms:R:1:forces:R:3 unique_id=1f7436b9895c400788d1029fe2e0d3ed stress="2.0701485614900428e-05 4.879145453313651e-06 -2.1150064010104135e-05 4.879145453313651e-06 3.168915235510217e-05 1.5885097363283588e-05 -2.1150064010104135e-05 1.5885097363283588e-05 4.60255075408339e-05" energy=-401.28868883768075 pbc="T T T"
Ni      -0.00808473      -0.01294082       0.16197807        4       1.00000000      -0.02857932       0.03480947       0.35674469
Ni       2.61765366      -0.01106695       0.19568517        4       1.00000000       0.12399280       0.02865100       0.49057752
Ni       5.19852891      -0.03338614       0.17375419        4       1.00000000       0.01923553       0.00092737       0.21892566
Ni       7.78900778      -0.06737891       0.21556224        4       1.00000000      -0.00601353      -0.18578527       0.44515716
Pt       1.30437586       2.24349286       0.12317376        4       0.00000000       0.04512193       0.03282028       0.00790379
Pt       3.87593874       2.18319878       0.21347141        4       0.00000000       0.04122808      -0.01567205       0.05392148
Pt       6.49081337       2.13973308       0.15745319        4       0.00000000       0.06077204      -0.12901741      -0.02483127
Pt       9.11349742       2.21321348       0.18480965        4       0.00000000       0.05833096       0.00655452      -0.00163920
Ni       2.56650458       4.50868016       0.08500761        4       1.00000000       0.01886325       0.12037293       0.04366829
Pt       5.15015039       4.49277835       0.18399003        4       0.00000000      -0.02652631       0.06732825       0.17251972
Pt       7.82525095       4.50009288       0.18351037        4       0.00000000       0.11656064       0.15188021       0.11750791
Ni      10.41867822       4.49667989       0.13293318        4       1.00000000       0.08325458       0.15454721       0.13668616
Ni       3.84164407       6.73131622       0.12186465        4       1.00000000      -0.10071441       0.13378403       0.24429976
Pt       6.48923427       6.79483999       0.24880898        4       0.00000000       0.03139755       0.12499528       0.12804589
Ni       9.11642383       6.72019435       0.13965176        4       1.00000000       0.08222761       0.10064362       0.15326757
Ni      11.69402793       6.68852491       0.14289592        4       1.00000000       0.13496385       0.02947419       0.08430557
Ni       1.33892451       0.74223699       2.27041053        3       1.00000000       0.08914379       0.03737332       0.18528422
Ni       3.87895117       0.76359085       2.27932511        3       1.00000000      -0.11631884       0.13743583       0.17948188
Ni       6.49688314       0.76388600       2.28891146        3       1.00000000      -0.01877424       0.11159967       0.18502220
Pt       9.10931918       0.72855559       2.31137373        3       0.00000000       0.04197108       0.20775616      -0.03110386
Ni       2.59924291       2.93766438       2.31610290        3       1.00000000      -0.03463942      -0.14953488       0.29792190
Ni       5.20069715       2.93417582       2.31688184        3       1.00000000      -0.14587244      -0.13645499       0.07798594
Ni       7.78048544       2.94621930       2.31987632        3       1.00000000       0.06632250      -0.11463591      -0.05858016
Ni      10.41391831       2.94565191       2.35176063        3       1.00000000       0.07689752      -0.11358288       0.23833664
Pt       3.88455710       5.21819066       2.30989301        3       0.00000000      -0.08361924      -0.07697140      -0.09267398
Ni       6.50112642       5.21229182       2.30161931        3       1.00000000       0.03350149       0.04641679      -0.05990840
Pt       9.06071789       5.18310620       2.36268325        3       0.00000000      -0.15363935      -0.08523039      -0.00733197
Pt      11.70240681       5.14838756       2.27991612        3       0.00000000      -0.07635616      -0.10113110       0.06043134
Ni       5.21288607       7.46676312       2.28406498        3       1.00000000       0.05219190       0.11309611       0.08673517
Ni       7.76297606       7.47670921       2.31430060        3       1.00000000      -0.09917219       0.11572191       0.14765693
Pt      10.38448294       7.49062470       2.22387570        3       0.00000000       0.01678061      -0.05822249      -0.05621020
Ni      12.99500835       7.43409858       2.28795278        3       1.00000000       0.00196170      -0.04773373      -0.01265248
Ni       0.07673646       1.53761571       4.38198141        2       1.00000000       0.25944397       0.08049710      -0.24373537
Ni       2.57971879       1.53234512       4.38213657        2       1.00000000      -0.13457282       0.08517921      -0.27004004
Ni       5.20256929       1.50984571       4.40408860        2       1.00000000      -0.14055931      -0.03044992      -0.23094604
Ni       7.81639635       1.50639973       4.43952752        2       1.00000000       0.04838962      -0.05398894      -0.12786860
Ni       1.33690376       3.68541112       4.44329985        2       1.00000000       0.07670023      -0.12932074      -0.13421353
Ni       3.85669270       3.70323009       4.40114028        2       1.00000000      -0.18015464      -0.10886658      -0.22585198
Pt       6.52828620       3.64732513       4.35960326        2       0.00000000      -0.02761237      -0.02135032      -0.05988754
Ni       9.13776630       3.67906695       4.42490361        2       1.00000000       0.12210842      -0.25783196      -0.29219321
Ni       2.60773519       5.91736050       4.48519516        2       1.00000000      -0.02395276      -0.11343908       0.07991323
Pt       5.22198116       5.96395046       4.38547580        2       0.00000000       0.20418852      -0.00995867       0.05133483
Ni       7.80231414       5.95927228       4.43722010        2       1.00000000      -0.06993485       0.04596814      -0.15241140
Pt      10.41551441       5.86759819       4.57919369        2       0.00000000       0.07120790      -0.04151766       0.11358448
Pt       3.93867703       8.20329859       4.42049612        2       0.00000000      -0.01641841      -0.02145315       0.11341759
Ni       6.51045131       8.23161096       4.40641403        2       1.00000000      -0.03214737       0.20136687      -0.24350550
Pt       9.02550347       8.21707637       4.41762818        2       0.00000000      -0.07274451       0.08978349      -0.00533640
Pt      11.70934191       8.20433626       4.43599217        2       0.00000000       0.02092061       0.03260170      -0.06711553
Pt       0.03887268       0.02211444       6.59477776        1       0.00000000      -0.01132290       0.00004852       0.13458248
Pt       2.61961950       0.02265968       6.61772253        1       0.00000000      -0.06289582       0.03459755       0.16755646
Pt       5.23054823      -0.03946678       6.65164500        1       0.00000000      -0.03960227      -0.08272867       0.03973680
Pt       7.80964434      -0.04601597       6.68248511        1       0.00000000      -0.09035861      -0.09849684       0.22895448
Ni       1.32596168       2.29569311       6.49771518        1       1.00000000      -0.01643709       0.17548168      -0.34847609
Pt       3.87392875       2.26922514       6.49220305        1       0.00000000      -0.12246275       0.06903857      -0.14869858
Ni       6.52341519       2.22550989       6.55040808        1       1.00000000      -0.02512931      -0.03736804      -0.31031503
Pt       9.16365429       2.26374730       6.51034594        1       0.00000000       0.04819020       0.02624438      -0.29038003
Ni       2.57071259       4.49580238       6.58100996        1       1.00000000      -0.21501262       0.02559132      -0.31643309
Pt       5.15397871       4.46936928       6.55770385        1       0.00000000      -0.10791312       0.02040861      -0.28393500
Pt       7.88318061       4.48380033       6.53672512        1       0.00000000       0.09301500      -0.00684226      -0.37919435
Ni      10.46774726       4.46648768       6.65392703        1       1.00000000       0.21228940      -0.10809379      -0.09253731
Ni       3.86530193       6.67404026       6.62462836        1       1.00000000      -0.19549651      -0.11997656      -0.17142104
Pt       6.53027352       6.69633754       6.56715269        1       0.00000000      -0.01524109       0.01806971      -0.07302509
Ni       9.15114676       6.67231785       6.66070021        1       1.00000000       0.08240299      -0.02258790      -0.11553956
Ni      11.71990950       6.62824077       6.67878831        1       1.00000000       0.05661834      -0.18282142      -0.11347587
