64
Lattice="10.119861152414042 0.01516920584963567 -0.0035369092663015667 5.073067493828095 8.764040700331002 -0.035812554961901194 -0.0028878743229868564 -0.03209708560247301 8.67507996746531" Properties=species:S:1:pos:R:3:tags:I:1:initial_magmoms:R:1:forces:R:3 unique_id=0da89d63e00248418dac0c1367b0d7f0 stress="-0.001112975499069295 -2.0871345339323907e-06 9.81511207714884e-06 -2.0871345339323907e-06 -0.0011091578199651925 -1.0568204668829218e-06 9.81511207714884e-06 -1.0568204668829218e-06 -0.0009598032078804095" energy=-390.29568894621764 pbc="T T T"
Ni       0.03831106      -0.03998826       0.18277034        4       1.00000000       0.10108742      -0.02729104       0.33444551
Ni       2.51390092      -0.02971319       0.19091312        4       1.00000000      -0.00161833      -0.06976620       0.22562707
Ni       5.07250128      -0.00675201       0.07933887        4       1.00000000      -0.01051612      -0.04097803       0.05351887
Ni       7.56201845       0.00378091       0.14771804        4       1.00000000       0.00295713       0.06150338       0.22189610
Ni       1.27129843       2.19385091       0.10566834        4       1.00000000       0.00743498      -0.00699791       0.26414185
Pt       3.79796839       2.19218079       0.16990926        4       0.00000000      -0.00810624      -0.06246743       0.34376693
Ni       6.32344218       2.20536638       0.09385213        4       1.00000000      -0.00306393       0.07000812       0.18118386
Pt       8.85747895       2.24921724       0.00544853        4       0.00000000       0.01744764      -0.03800878      -0.23671952
Ni       2.53983358       4.39786538       0.04391718        4       1.00000000       0.05282687      -0.00455020       0.02657794
Ni       5.07026839       4.40515083       0.05331110        4       1.00000000       0.00860656      -0.00580626       0.04530922
Ni       7.58660098       4.41744502       0.05269795        4       1.00000000      -0.02770091       0.08258485       0.05866463
Ni      10.12630817       4.41430936       0.04115668        4       1.00000000      -0.04712815       0.07845160       0.01279144
Ni       3.83417055       6.54545521       0.03759054        4       1.00000000       0.13068464      -0.08619700       0.01329278
Ni       6.32973212       6.58907960       0.05143193        4       1.00000000       0.00200320       0.05325896      -0.02266207
Ni       8.83380786       6.56157012       0.12368450        4       1.00000000      -0.16514097      -0.05182959       0.23851285
Ni      11.38784133       6.57477368       0.00653655        4       1.00000000      -0.05880735      -0.02073304      -0.11361715
Ni       1.31142763       0.72486701       2.18928840        3       1.00000000       0.00331272       0.05538573       0.12885676
Ni       3.74562281       0.73036572       2.19837087        3       1.00000000      -0.10603861       0.00583586       0.00411989
Ni       6.30944766       0.78093816       2.13993209        3       1.00000000       0.01962420       0.05344118      -0.07909456
Pt       8.89582663       0.79383499       2.20341957        3       0.00000000      -0.02507296       0.11347449      -0.10078112
Ni       2.53404648       2.87833356       2.21190700        3       1.00000000       0.07240597      -0.09174607       0.09823938
Ni       5.07032768       2.92499988       2.18414775        3       1.00000000      -0.03683302       0.03042555      -0.01674218
Ni       7.58605757       2.93844795       2.17591159        3       1.00000000       0.04823582       0.02725500      -0.00471769
Ni      10.12956863       2.92279923       2.17792556        3       1.00000000      -0.02913535      -0.01982310       0.01632680
Ni       3.82267226       5.05940224       2.15719383        3       1.00000000      -0.00134764      -0.11229944       0.02395197
Pt       6.33590571       5.13939932       2.12643799        3       0.00000000      -0.00184828       0.06767991      -0.00931315
Ni       8.84222138       5.08105195       2.16265328        3       1.00000000      -0.02263635      -0.08051574       0.07970326
Pt      11.38165309       5.04855859       2.12092395        3       0.00000000      -0.00402193      -0.08898032      -0.06889581
Ni       5.12176527       7.30132893       2.13418385        3       1.00000000       0.00904917       0.04009621       0.05637977
Ni       7.55971878       7.33343613       2.16000175        3       1.00000000      -0.04426840       0.04499901       0.09991894
Pt      10.05121093       7.34079813       2.16122027        3       0.00000000      -0.08973074       0.02335856      -0.01286540
Pt      12.68291664       7.27487750       2.10381437        3       0.00000000       0.10334214      -0.00785648      -0.04097223
Ni       0.01813536       1.45686831       4.31511191        2       1.00000000       0.08798668      -0.07952180       0.01425292
Ni       2.49689826       1.41730718       4.25069059        2       1.00000000       0.00787560      -0.10779336      -0.02536149
Pt       5.06269117       1.39044470       4.23440163        2       0.00000000      -0.06339920      -0.03673431       0.08432019
Ni       7.61531532       1.47686260       4.31022313        2       1.00000000       0.01579670      -0.02922830      -0.05553539
Pt       1.26586856       3.61469879       4.34337742        2       0.00000000       0.05586241      -0.06274159       0.02527822
Ni       3.79424866       3.69705427       4.26035171        2       1.00000000       0.04501486       0.05751958      -0.13936155
Pt       6.35766924       3.67278822       4.33518631        2       0.00000000       0.02736152       0.00007923       0.02634043
Ni       8.86605793       3.66091150       4.29728644        2       1.00000000       0.02296408       0.11325506      -0.19202468
Ni       2.54251695       5.80547853       4.33504162        2       1.00000000       0.01232594      -0.05312017      -0.08583308
Ni       5.06739626       5.82298053       4.31717149        2       1.00000000       0.03531879      -0.01349080      -0.07930520
Ni       7.60931215       5.86192390       4.27937124        2       1.00000000       0.06731360       0.05242218      -0.08848542
Ni      10.11988000       5.83588909       4.28714646        2       1.00000000      -0.05188907      -0.06510075      -0.07737997
Pt       3.83122116       7.96795417       4.27735886        2       0.00000000       0.05395065       0.01035927       0.20144806
Ni       6.37406346       7.99979401       4.22725746        2       1.00000000       0.02607445      -0.01834420      -0.05170861
Ni       8.83890815       7.99453750       4.26177546        2       1.00000000      -0.11162361      -0.07845956       0.01609603
Ni      11.36912558       7.97583299       4.29301465        2       1.00000000       0.01082164      -0.14278906      -0.00841900
Pt      -0.00523245      -0.00987759       6.48034967        1       0.00000000      -0.01718156       0.01227655       0.20100267
Pt       2.55057328      -0.02177294       6.42264075        1       0.00000000      -0.03751071       0.03123532       0.09770544
Ni       5.06154764      -0.03088462       6.41982385        1       1.00000000      -0.06936857      -0.01893197      -0.18392121
Pt       7.50351647      -0.00472413       6.46253701        1       0.00000000      -0.12594493       0.01319982       0.06516848
Ni       1.23594766       2.21190917       6.42627676        1       1.00000000      -0.02253129       0.01630233       0.03271194
Pt       3.80190459       2.27220419       6.36401145        1       0.00000000       0.00930227       0.21535720      -0.36732611
Ni       6.35053521       2.21515082       6.43100262        1       1.00000000       0.00853738       0.11758369      -0.01872935
Ni       8.85194490       2.24303921       6.29012667        1       1.00000000      -0.02106251       0.09597716      -0.45693462
Ni       2.52563302       4.42285218       6.40999312        1       1.00000000      -0.00684839       0.16352641      -0.08621168
Ni       5.07195662       4.42298508       6.41318120        1       1.00000000       0.00815065       0.17097068      -0.07389364
Ni       7.59516162       4.34829212       6.41735721        1       1.00000000       0.04089918      -0.03001036      -0.05021316
Ni      10.13396279       4.34500322       6.40835601        1       1.00000000       0.01315251      -0.08380299      -0.08231576
Ni       3.79946777       6.48329906       6.39708101        1       1.00000000      -0.01072873      -0.02919009      -0.10512795
Ni       6.30966234       6.49367187       6.38122984        1       1.00000000       0.01956177      -0.01794432      -0.20363490
Pt       8.89903372       6.47841637       6.39938416        1       0.00000000       0.04966875      -0.10740421       0.09426043
Ni      11.41245331       6.51894896       6.37288694        1       1.00000000       0.02414596      -0.08736839      -0.24770698
