64
Lattice="10.285879508033839 -0.018436910578630228 -0.011571422566509552 5.126972921088524 8.858972323542394 -0.07254804904362812 0.0 0.0 21.605178534678046" Properties=species:S:1:pos:R:3:tags:I:1:initial_magmoms:R:1:forces:R:3 unique_id=5b792c9a6cc24dcabd781a0f2b430acd stress="0.005073661834286564 3.389762215574652e-05 -3.392269546458243e-05 3.389762215574652e-05 0.005198797233953467 -0.0004584379864664036 -3.392269546458243e-05 -0.0004584379864664036 -0.0018579608404292354" energy=-373.5224940608932 pbc="T T T"
Ni      -0.02340589       0.02470864       0.21664441        2       1.00000000      -0.01060614       0.00632358      -0.07196915
Ni       2.55900472      -0.00639297       0.21877740        2       1.00000000      -0.09687696       0.01101267      -0.17038950
Ni       5.13207366      -0.03556966       0.16554272        2       1.00000000      -0.03104496       0.18628199      -0.51759931
Ni       7.75095137      -0.06518600       0.09440565        1       1.00000000       0.07679124      -0.01096419       0.31315143
Ni       1.24058590       2.20982235       0.10217068        1       1.00000000      -0.07576679      -0.02750046       0.43283270
Pt       3.77653890       2.21240172       0.09511326        1       0.00000000       0.03866804      -0.01795186      -0.05610496
Pt       6.44740311       2.18634528       0.11583516        1       0.00000000      -0.00627893       0.03986994      -0.74180047
Ni       9.04151668       2.16833874       0.16255162        2       1.00000000       0.00464241      -0.02832799       0.11151806
Ni       2.56175302       4.44329861       0.03729328        0       1.00000000       0.08198710       0.00297184       0.17790785
Ni       5.09493660       4.43995186       0.15332204        2       1.00000000      -0.04854748       0.04001847      -0.00915714
Pt       7.78577670       4.43142387       0.06940052        1       0.00000000       0.02663824      -0.00263052      -0.03949788
Ni      10.30621334       4.39693642       0.03377799        0       1.00000000       0.03735953      -0.09296385       0.20575507
Ni       3.80502073       6.64415539       0.06241003        1       1.00000000      -0.00910512      -0.02402915       0.40449402
Pt       6.37471932       6.67714894       0.13707774        1       0.00000000      -0.09414994       0.04185573      -0.54114516
Ni       9.00224402       6.63886553       0.01134187        0       1.00000000      -0.12770622      -0.00742106       0.01727732
Ni      11.58609495       6.62283699       0.00000000        0       1.00000000       0.12529305      -0.00999395       0.15376808
Ni       1.25806096       0.74223167       2.16129022        5       1.00000000      -0.09061050       0.09942223       0.02851360
Ni       3.82276197       0.73774671       2.18802072        5       1.00000000       0.00840214       0.04507948       0.15322833
Pt       6.47536037       0.73687306       2.25169273        6       0.00000000       0.08926654       0.14036096      -0.02052769
Ni       9.03602888       0.72368837       2.17740666        5       1.00000000       0.07107806       0.07166085       0.11907500
Ni       2.56567373       2.92373170       2.18536710        5       1.00000000       0.00707101      -0.03260910       0.08069271
Ni       5.09494071       2.97345631       2.20486612        5       1.00000000      -0.16296026       0.04170506       0.09801557
Ni       7.76764498       2.94566583       2.21004613        5       1.00000000       0.19161289      -0.00337791       0.12370474
Ni      10.26023927       2.87908480       2.16228136        5       1.00000000       0.05255017      -0.08226649       0.07908964
Ni       3.87941347       5.15520146       2.17166830        5       1.00000000       0.07861766       0.00843097       0.07750487
Ni       6.39939920       5.14979296       2.18904065        5       1.00000000      -0.04838118       0.05198417       0.11111085
Ni       8.96439026       5.10983772       2.19234564        5       1.00000000      -0.06492443      -0.16438497       0.19054664
Pt      11.61106765       5.08966418       2.09280264        4       0.00000000       0.08827225      -0.12435442      -0.02617044
Ni       5.08041210       7.35968327       2.13878750        4       1.00000000      -0.15119586      -0.09856912      -0.03297725
Ni       7.68443625       7.35726362       2.13904435        4       1.00000000      -0.00770877      -0.09150885       0.02101943
Pt      10.22893236       7.32517031       2.04763215        3       0.00000000       0.04112290      -0.11707501      -0.05071159
Ni      12.89487741       7.33592181       2.09146667        4       1.00000000       0.08045792      -0.04565205      -0.06292677
Ni      -0.03426837       1.47036997       4.31176546        8       1.00000000      -0.03503600      -0.03123264      -0.30752413
Pt       2.59102784       1.49507799       4.29326278        8       0.00000000      -0.06366732      -0.00786983      -0.09867006
Ni       5.12434577       1.47507032       4.32274642        8       1.00000000      -0.02778204       0.12467126      -0.24884104
Ni       7.75929429       1.46264945       4.31762393        8       1.00000000       0.22411952       0.07309551      -0.20702460
Pt       1.27122557       3.65453988       4.37464480        9       0.00000000      -0.03724758      -0.07119283      -0.03887621
Ni       3.85388734       3.69196484       4.29968299        8       1.00000000       0.04340132       0.08072560      -0.28875620
Pt       6.42880821       3.68493729       4.22320540        7       0.00000000      -0.03104185       0.00644119      -0.10167690
Ni       8.97257817       3.62393854       4.29734859        8       1.00000000      -0.03028738      -0.12303844      -0.31629211
Ni       2.60098468       5.84228185       4.34654294        8       1.00000000       0.11293197      -0.12411575      -0.07961883
Ni       5.08633465       5.83951404       4.26432502        8       1.00000000      -0.08583400      -0.03057940      -0.32002122
Ni       7.70003279       5.82445909       4.27562235        8       1.00000000      -0.04754269      -0.01057888      -0.32955820
Pt      10.23056377       5.80809227       4.37293936        9       0.00000000      -0.02156363      -0.03906031      -0.05249840
Pt       3.83434233       8.07185230       4.24215092        7       0.00000000       0.02412024       0.02382943      -0.00848503
Pt       6.38151624       8.06068238       4.16895545        7       0.00000000      -0.05737250       0.02786013      -0.17784796
Pt       8.96529878       8.07332114       4.25117058        8       0.00000000      -0.08706780       0.00988765      -0.03394551
Pt      11.59200131       8.07429148       4.31656278        8       0.00000000       0.04474594       0.01269309       0.04542186
Pt      -0.05280576      -0.03785011       6.58692368       12       0.00000000       0.10066553       0.08837833       0.17167443
Pt       2.56963144       0.00617639       6.60517853       12       0.00000000      -0.02864773      -0.00599894       0.41839981
Pt       5.17190940      -0.11345669       6.59200154       12       0.00000000      -0.04130736       0.06581902       0.65181103
Ni       7.71658009      -0.09213916       6.52945601       11       1.00000000       0.01936224       0.08895892      -0.00431468
Ni       1.29414188       2.23078636       6.51265826       11       1.00000000       0.01383106       0.03966287      -0.09901185
Ni       3.82229328       2.20130634       6.42185945       10       1.00000000       0.04007054      -0.04047407       0.13566178
Pt       6.42651448       2.15964990       6.39703847       10       0.00000000      -0.01739973      -0.00328874       0.75369474
Pt       9.03688140       2.23941889       6.47640025       11       0.00000000       0.04224095       0.06206722       0.00577452
Ni       2.52042437       4.40617861       6.48229573       11       1.00000000      -0.07054372       0.08872190      -0.19167225
Pt       5.01569962       4.39017621       6.48296864       11       0.00000000      -0.06430382       0.02386698       0.02380219
Ni       7.74506768       4.40195502       6.38818156       10       1.00000000       0.03553814       0.05168536       0.01202647
Ni      10.29053389       4.40251044       6.49451487       11       1.00000000       0.04885045       0.04485655      -0.03611961
Ni       3.77035742       6.59054231       6.45706030       11       1.00000000      -0.03579503      -0.05173888      -0.28519844
Pt       6.44192924       6.54515538       6.39184030       10       0.00000000      -0.05457628      -0.04483779       0.51787491
Ni       9.00579220       6.53838235       6.47210770       11       1.00000000      -0.05811060      -0.00919177       0.03304430
Ni      11.59160663       6.54214539       6.47316195       11       1.00000000       0.07128152      -0.12541973      -0.10146139
