64
Lattice="10.707521701914876 0.005716142527200305 -0.006536409374765759 5.358711175597645 9.303795642736693 0.021841814878710564 -0.005336955906040172 0.0236739534812154 9.315028844048387" Properties=species:S:1:pos:R:3:tags:I:1:initial_magmoms:R:1:forces:R:3 unique_id=3b6cd6e1d52046f9b0ec12dd2201090b stress="-4.9808427969311175e-05 1.0419636604878489e-06 -3.975345730109487e-06 1.0419636604878489e-06 -4.9234054642938174e-05 7.475100064695723e-07 -3.975345730109487e-06 7.475100064695723e-07 -1.6714874986896444e-05" energy=-425.955555127988 pbc="T T T"
Pt      -0.00156049       0.00521162       0.08113402        4       0.00000000       0.01660733       0.01800881       0.06046856
Pt       2.69167597       0.00756417       0.09719143        4       0.00000000      -0.01749139      -0.00257848       0.09540482
Pt       5.34516481       0.01165310       0.02531842        4       0.00000000       0.00367319       0.00653798      -0.06803401
Pt       8.02691816       0.00908285       0.00031808        4       0.00000000      -0.00146205       0.02103345      -0.09339075
Pt       1.33719335       2.32874967       0.08668466        4       0.00000000      -0.01973648       0.00905616       0.00675967
Pt       4.01881718       2.31867856       0.02749431        4       0.00000000      -0.00856244       0.01654114      -0.07902718
Pt       6.68941766       2.32605755       0.07602955        4       0.00000000       0.00298610       0.01020004       0.08015437
Pt       9.36917988       2.32800209       0.00872906        4       0.00000000       0.00435514       0.01130773      -0.08779953
Pt       2.68249429       4.64534235       0.09983379        4       0.00000000      -0.00379729      -0.00932291       0.13721487
Pt       5.35639981       4.65012621       0.01480312        4       0.00000000       0.00312274       0.00330254      -0.09226919
Pt       8.02835817       4.65815576       0.08524352        4       0.00000000      -0.00312893       0.01689983       0.05224590
Pt      10.70939894       4.65275358       0.09009759        4       0.00000000      -0.02022108      -0.00172975       0.11103965
Pt       4.02002977       6.97848269       0.09762396        4       0.00000000      -0.00067950       0.01047062       0.11422922
Pt       6.69657159       6.97784936       0.02584266        4       0.00000000       0.01195308       0.02723953      -0.07817600
Pt       9.36848180       6.98778226       0.09603149        4       0.00000000      -0.01928910       0.01652343       0.01379789
Pt      12.04597371       6.99125445       0.09927877        4       0.00000000      -0.02840906       0.01508429       0.17275054
Pt       1.36838669       0.78356287       2.39081230        3       0.00000000      -0.01668254      -0.02742773       0.11644281
Ni       4.01490780       0.78047760       2.35833184        3       1.00000000      -0.00200953       0.00687908       0.14570154
Pt       6.65274557       0.77859677       2.36558191        3       0.00000000      -0.03230783       0.04278431       0.12830227
Pt       9.37436861       0.79809101       2.38998445        3       0.00000000       0.01493899       0.03693345       0.14824143
Pt       2.68882484       3.07426321       2.39954644        3       0.00000000       0.00922803      -0.01034501       0.11157717
Pt       5.32998214       3.07992490       2.37470087        3       0.00000000      -0.00823743      -0.05931101       0.11152934
Pt       8.03439176       3.10455787       2.36731655        3       0.00000000      -0.02147438      -0.02735123       0.08137484
Pt      10.72093794       3.10053679       2.42929130        3       0.00000000       0.08120808      -0.05984732       0.24476957
Pt       4.02446906       5.42268893       2.37858884        3       0.00000000       0.04890627      -0.01746064       0.12663219
Pt       6.70082536       5.44707245       2.40433562        3       0.00000000       0.03364283       0.03005795       0.14574753
Pt       9.36222389       5.44858632       2.40021258        3       0.00000000      -0.07094072       0.01292604       0.10788930
Pt      12.03980908       5.42466851       2.40075297        3       0.00000000      -0.03439590      -0.05110404       0.14500052
Pt       5.37586807       7.76306056       2.38582098        3       0.00000000       0.04159316       0.01270996       0.10082961
Pt       8.05682475       7.78968527       2.44024856        3       0.00000000       0.06708854       0.02590513       0.25564024
Pt      10.67773794       7.80659673       2.40887850        3       0.00000000      -0.06701003       0.11850243       0.14889139
Pt      13.37982304       7.77463763       2.38212528        3       0.00000000      -0.02483926       0.04163402       0.10950447
Ni       0.00520166       1.57789597       4.66781754        2       1.00000000       0.08043579       0.01414905       0.01502635
Pt       2.65591570       1.56064699       4.63460340        2       0.00000000      -0.07332980      -0.06663901      -0.05573689
Pt       5.30491987       1.52110216       4.67790962        2       0.00000000      -0.13808812      -0.10033587       0.02144065
Pt       8.06836375       1.56795620       4.70051276        2       0.00000000       0.01102583       0.00051755       0.10773292
Ni       1.32809990       3.86909587       4.66066606        2       1.00000000      -0.00713976      -0.06031226      -0.01588999
Pt       4.00455064       3.86774298       4.69393159        2       0.00000000       0.02976252      -0.02451068       0.07811769
Pt       6.69658972       3.90923216       4.66900953        2       0.00000000       0.05006635      -0.11959960      -0.03359847
Pt       9.40608355       3.86646744       4.66464827        2       0.00000000       0.04162445      -0.05773261       0.08734469
Pt       2.65934782       6.18981094       4.65211712        2       0.00000000      -0.02338365      -0.03023212       0.03179069
Pt       5.40494961       6.21550212       4.71375376        2       0.00000000       0.06534859      -0.01054861       0.10673736
Ni       8.03601974       6.23172968       4.67643242        2       1.00000000       0.04656048       0.02112686       0.01923091
Pt      10.65876151       6.22703170       4.64101060        2       0.00000000      -0.10718116       0.04417066       0.01578924
Pt       4.02509529       8.56774646       4.68312176        2       0.00000000       0.04751679      -0.05951676       0.00014978
Pt       6.74124477       8.52339014       4.68609362        2       0.00000000       0.08124696      -0.03878319       0.16770978
Ni       9.36415160       8.54095705       4.66744875        2       1.00000000      -0.03848083       0.01355390      -0.04102232
Pt      12.00772470       8.56647965       4.70416810        2       0.00000000      -0.04013302       0.04002337       0.09640901
Pt      -0.03057289       0.04103498       6.85387593        1       0.00000000      -0.02562312       0.08874836      -0.13749595
Pt       2.72382686       0.02729405       6.85504293        1       0.00000000       0.14920015       0.15171549      -0.06034752
Ni       5.35114220       0.03051526       6.87717188        1       1.00000000      -0.01946614       0.02627051      -0.31124423
Ni       8.02506541       0.03376814       6.87459157        1       1.00000000       0.01002041       0.04137277      -0.35124148
Pt       1.32332286       2.33829980       6.83727009        1       0.00000000      -0.03366004      -0.00987849      -0.17141230
Ni       4.02465868       2.33936148       6.88372222        1       1.00000000       0.03664780      -0.04882423      -0.32322668
Pt       6.66814070       2.31247475       6.87496491        1       0.00000000      -0.08884060      -0.07318099      -0.08337026
Ni       9.36318051       2.33378350       6.87083573        1       1.00000000      -0.03703075      -0.03442772      -0.37085439
Pt       2.71378806       4.63547055       6.87932910        1       0.00000000       0.05443348      -0.05308543      -0.07160470
Ni       5.35819628       4.66812110       6.88875409        1       1.00000000       0.03394499      -0.06117592      -0.35170198
Pt       7.98979431       4.68832575       6.86097358        1       0.00000000      -0.10591406       0.04781961      -0.15045156
Pt      10.70410901       4.64792659       6.86126379        1       0.00000000       0.01438475       0.04183412      -0.11721425
Pt       4.05086767       6.99141300       6.89234559        1       0.00000000       0.06859997      -0.01837295      -0.09468534
Ni       6.69283899       6.98605608       6.88593725        1       1.00000000       0.02751546       0.00705668      -0.35510553
Pt       9.33749470       7.02553707       6.84675643        1       0.00000000      -0.06553097       0.01510940      -0.16305435
Pt      12.04683246       7.05571697       6.89112580        1       0.00000000       0.01683873       0.06962829      -0.06166391
