64
Lattice="10.181927111235415 -0.025477455609717568 0.013428221762878726 5.068899431835907 8.776895053808788 0.021966417715549368 0.0 0.0 21.530572120236783" Properties=species:S:1:pos:R:3:tags:I:1:initial_magmoms:R:1:forces:R:3 unique_id=bac0ee3f5b6d43cba12a297e1f5fc103 energy=-369.46490551185406 stress="0.004153962113388709 -6.918466368902177e-05 0.0001384987979465849 -6.918466368902177e-05 0.0038151992874253977 0.00025968661330726936 0.0001384987979465849 0.00025968661330726936 -0.0025440855325391558" pbc="T T T"
Ni       0.03593963       0.00681130       0.12244439        1       1.00000000       0.11829464       0.18026009      -0.70808781
Ni       2.53607104      -0.03030037       0.17974650        2       1.00000000       0.05772178       0.01887924      -0.21403513
Ni       5.10380724      -0.02179675       0.06511677        1       1.00000000      -0.08250411       0.03738777       0.19239252
Ni       7.60134636      -0.02488277       0.15335496        2       1.00000000      -0.07615552       0.09038444      -0.62181840
Ni       1.27114239       2.21250404       0.09072980        1       1.00000000       0.02729707       0.00897104       0.29651591
Pt       3.80599051       2.19838406       0.16770450        2       0.00000000      -0.05084933      -0.00431145      -0.54736789
Ni       6.35308566       2.19226319       0.08934323        1       1.00000000      -0.02166802       0.04877169       0.18305333
Pt       8.90890947       2.25007426       0.00000000        0       0.00000000       0.03366613       0.04919017      -0.25457082
Ni       2.50983495       4.41629758       0.08367147        1       1.00000000       0.03314195       0.01121236       0.32079158
Ni       5.08004916       4.40284212       0.05588229        1       1.00000000      -0.12452960      -0.03948621       0.15141221
Ni       7.62642976       4.40113333       0.05405597        1       1.00000000       0.14731859       0.05313707       0.02392067
Ni      10.19999028       4.40821997       0.09402885        1       1.00000000      -0.02209825       0.11786391       0.26606655
Ni       3.79961954       6.54679029       0.03360852        0       1.00000000      -0.02921968      -0.07306833       0.03569636
Ni       6.37042727       6.57344384       0.03479184        0       1.00000000       0.11270479       0.04319588      -0.00336565
Ni       8.87129906       6.55377984       0.14524375        1       1.00000000      -0.09836846      -0.07567690      -0.17453186
Ni      11.42607125       6.53824952       0.04598843        0       1.00000000      -0.08103059      -0.05220706       0.16270775
Ni       1.33591279       0.79206028       2.15062167        4       1.00000000       0.07660601       0.21364720       0.10855575
Ni       3.77979305       0.72114114       2.18513169        4       1.00000000      -0.09419670      -0.02005965       0.12639872
Ni       6.32690777       0.75653278       2.12853302        3       1.00000000      -0.07094980       0.06315796      -0.04365718
Pt       8.94351117       0.78189979       2.16852075        4       0.00000000       0.10026157       0.08932478       0.01805923
Ni       2.51999443       2.94259523       2.19903065        4       1.00000000       0.00979941       0.01027411       0.08403867
Ni       5.08030102       2.91927864       2.18882706        4       1.00000000      -0.03332110       0.03417415       0.03810074
Ni       7.63432069       2.93182475       2.16807481        4       1.00000000       0.09727823      -0.04510268       0.06895582
Ni      10.21114428       2.95812063       2.18196668        4       1.00000000       0.00989168       0.02203834       0.02748115
Ni       3.78141814       5.04778671       2.17112868        4       1.00000000      -0.02046122      -0.18683787       0.02760448
Pt       6.39907575       5.07258246       2.12719551        3       0.00000000       0.08334688      -0.04159762       0.00005661
Ni       8.92658923       5.06731124       2.18421615        4       1.00000000       0.09006625      -0.14869882       0.06522888
Ni      11.42979808       5.04706322       2.16007890        4       1.00000000      -0.05878105      -0.07848425       0.00572947
Pt       5.11797188       7.28554580       2.11016878        3       0.00000000      -0.00579436      -0.04098082      -0.04052227
Ni       7.64073407       7.31933283       2.16173350        4       1.00000000      -0.01756609      -0.06423038       0.09297491
Pt      10.09873058       7.29212170       2.19752235        4       0.00000000       0.02313938      -0.01276373       0.04030941
Pt      12.66731333       7.21375441       2.15536195        4       0.00000000      -0.02125557      -0.12346678       0.03128531
Ni       0.03755257       1.50427613       4.31503981        6       1.00000000       0.08327267      -0.04696281      -0.13540926
Ni       2.52467562       1.48900532       4.26433191        6       1.00000000      -0.01564958       0.00182267      -0.20546207
Pt       5.04181602       1.40601535       4.24052155        5       0.00000000      -0.11274424      -0.09176877       0.01999741
Pt       7.66132301       1.49883506       4.32694296        6       0.00000000       0.04662466      -0.04123825      -0.03968537
Pt       1.26655640       3.68299764       4.30765598        6       0.00000000      -0.01226839      -0.02608722       0.01276118
Ni       3.79273384       3.71887075       4.27983789        6       1.00000000      -0.03799123       0.03250807      -0.20060348
Pt       6.34662737       3.72604777       4.38022884        7       0.00000000      -0.07471513       0.03413320       0.06848523
Ni       8.93196938       3.70469077       4.32612598        6       1.00000000      -0.00433361       0.13217288      -0.14484378
Ni       2.52165405       5.82184299       4.35432558        7       1.00000000      -0.07563906      -0.04913129      -0.04975292
Ni       5.05062918       5.82502283       4.36688585        7       1.00000000       0.00402163       0.01796098      -0.08228350
Ni       7.67731778       5.84015675       4.32068935        6       1.00000000       0.15389978      -0.02113962      -0.17917753
Ni      10.17594367       5.83472805       4.32494961        6       1.00000000      -0.00139038      -0.05430942      -0.12474730
Pt       3.77670338       7.96922187       4.34817313        6       0.00000000      -0.05370368      -0.00559521       0.04100824
Pt       6.42735917       8.02887243       4.28133333        6       0.00000000       0.09477935      -0.01064550       0.06460126
Ni       8.92104642       8.00150208       4.32127117        6       1.00000000       0.00304720      -0.07976444      -0.07142899
Ni      11.39363833       7.97210195       4.35546542        7       1.00000000      -0.05327430      -0.13013076      -0.02279794
Pt      -0.00530719       0.02760205       6.49860354        9       0.00000000      -0.11798713       0.12474113       0.50718544
Pt       2.59632084       0.00838630       6.49346548        9       0.00000000       0.03593915       0.06658480       0.25034433
Ni       5.10385517      -0.01778164       6.43723477        8       1.00000000      -0.08519220       0.00872887      -0.04416148
Pt       7.55105744      -0.03883634       6.53057212        9       0.00000000       0.07075371      -0.03996260       0.49572299
Ni       1.24826758       2.25377970       6.44049783        8       1.00000000       0.05214772      -0.03547372      -0.07420066
Pt       3.82608943       2.30585570       6.39594921        8       0.00000000      -0.10446956       0.19097754       0.64767161
Ni       6.37748404       2.22732043       6.47825985        9       1.00000000      -0.02819206       0.05214292       0.04054177
Ni       8.92797072       2.25674082       6.35210533        8       1.00000000       0.08605237       0.07392685       0.44166561
Ni       2.52844100       4.45316365       6.44663966        8       1.00000000       0.00725287      -0.01454537      -0.23573233
Ni       5.09064451       4.45255414       6.46008884        9       1.00000000      -0.08963979       0.01494347      -0.03311270
Ni       7.63234125       4.36678227       6.46336859        9       1.00000000       0.11482018      -0.03421936      -0.07698310
Ni      10.19640263       4.35198189       6.45599978        9       1.00000000      -0.01909569      -0.01844831      -0.24701442
Ni       3.80645816       6.51152239       6.45571902        9       1.00000000      -0.04203354       0.01346381      -0.04443695
Ni       6.33357130       6.51766103       6.44890105        8       1.00000000       0.06950312       0.02370872      -0.14022647
Pt       8.94159396       6.49621751       6.45815013        9       0.00000000      -0.03479558      -0.06446531      -0.01411195
Ni      11.46230625       6.51682017       6.44034666        8       1.00000000       0.02921584      -0.10882559      -0.18319188
