64
Lattice="10.558069741748184 0.020425370138572214 -0.010488382974947889 5.296723760295857 9.121033298430273 -0.0007031515095623786 -0.008563728838505523 0.004281333549360643 9.10226580585925" Properties=species:S:1:pos:R:3:tags:I:1:initial_magmoms:R:1:forces:R:3 unique_id=9bc54a26361740e78cbac186b9cba497 stress="-0.0036885197826983587 -1.2854502245231253e-05 -4.3108816559694747e-07 -1.2854502245231253e-05 -0.003600302976478238 1.920401464456118e-05 -4.3108816559694747e-07 1.920401464456118e-05 -0.002944023521772983" energy=-414.10145076445673 pbc="T T T"
Pt      -0.00996405       0.04727574       0.14193402        4       0.00000000       0.02637398       0.02288440       0.00617152
Pt       2.64941816       0.05973649       0.13028033        4       0.00000000       0.00894960       0.01697515      -0.03795300
Ni       5.32586581       0.05011247       0.15386402        4       1.00000000       0.04401398       0.12582498       0.18970410
Ni       7.87134601       0.04151796       0.09063103        4       1.00000000      -0.11406578       0.04314079       0.10970986
Ni       1.33211891       2.32814289       0.14229632        4       1.00000000       0.04618410       0.05862930       0.12443018
Pt       3.95456720       2.31490715       0.06619196        4       0.00000000      -0.03378650       0.03579431      -0.12355951
Ni       6.60283952       2.23841608       0.17565512        4       1.00000000      -0.02861187      -0.08711448       0.27018457
Pt       9.22607532       2.30326825       0.01863921        4       0.00000000      -0.03279119      -0.00782552      -0.22239304
Ni       2.61737838       4.52758156       0.13787823        4       1.00000000      -0.04182084      -0.05345338       0.07618040
Pt       5.28913360       4.50662579       0.14597347        4       0.00000000       0.03051400      -0.02476433      -0.07771059
Pt       7.92831077       4.51272305       0.13706419        4       0.00000000      -0.01602160      -0.02147272      -0.05604249
Ni      10.59865173       4.54710855       0.06730133        4       1.00000000       0.03469569      -0.04166062       0.03753424
Pt       3.92224678       6.85021757       0.15448045        4       0.00000000      -0.01459969       0.00116922       0.02678963
Pt       6.61144056       6.82734171       0.13250463        4       0.00000000       0.00890686      -0.00532540      -0.00675730
Pt       9.30342520       6.84796092       0.12624571        4       0.00000000       0.02138531       0.02736355       0.00856921
Pt      11.90479380       6.88601342       0.10980168        4       0.00000000       0.00833047       0.09142359      -0.06824330
Ni       1.33954192       0.79318840       2.32042155        3       1.00000000       0.05442953      -0.00195992       0.08043606
Pt       3.96202002       0.89000862       2.31783394        3       0.00000000       0.01974252       0.05688966       0.02788595
Ni       6.59835294       0.81517852       2.25532908        3       1.00000000      -0.07330879       0.12453367       0.04600275
Pt       9.12707333       0.80185475       2.26939585        3       0.00000000      -0.10911155       0.02096703      -0.05466007
Ni       2.64181551       3.02064650       2.31456929        3       1.00000000      -0.03645588      -0.04070356       0.10393654
Ni       5.34035529       3.04521091       2.31839330        3       1.00000000       0.13332909      -0.00194101       0.05533240
Ni       7.85034059       3.04457509       2.30942824        3       1.00000000      -0.09746225       0.02082442       0.04481247
Pt      10.61077591       3.01296534       2.27227067        3       0.00000000      -0.04104079      -0.05722471      -0.06582503
Pt       3.97999982       5.20606714       2.31236719        3       0.00000000       0.02944929      -0.12118664      -0.00304853
Ni       6.60180404       5.25416787       2.30914224        3       1.00000000       0.00724155      -0.10362558       0.01988372
Pt       9.22375872       5.25350481       2.30811405        3       0.00000000      -0.00642597      -0.04388397      -0.00153585
Pt      11.91182996       5.28459755       2.24627499        3       0.00000000      -0.01164308      -0.00378819      -0.03356459
Pt       5.28492986       7.61501774       2.35082405        3       0.00000000      -0.01154716       0.00347027       0.08300507
Pt       7.90839418       7.63841457       2.34955411        3       0.00000000       0.05370737       0.01906404       0.06501900
Pt      10.65897128       7.70168616       2.32532544        3       0.00000000       0.02455498       0.04537488       0.09394294
Ni      13.19869641       7.64621237       2.30032352        3       1.00000000       0.01008068      -0.00797849       0.07190448
Pt       0.06819217       1.56502279       4.49119037        2       0.00000000       0.01932983      -0.06760750      -0.06824711
Ni       2.63029227       1.58700028       4.49935064        2       1.00000000      -0.00204510       0.10819839      -0.08498986
Pt       5.26066144       1.62845718       4.49260531        2       0.00000000       0.01731428       0.05134917       0.07089874
Pt       7.89537159       1.60532060       4.50161552        2       0.00000000      -0.00918247       0.05858522      -0.02662405
Ni       1.35229587       3.76913312       4.50447752        2       1.00000000       0.08162293      -0.07032605      -0.11973538
Ni       3.92343620       3.76068852       4.50460864        2       1.00000000      -0.11846374      -0.04380339      -0.07113388
Ni       6.60548098       3.79729125       4.45699911        2       1.00000000       0.00612463       0.01484124      -0.15990869
Ni       9.25729757       3.78657303       4.52295141        2       1.00000000       0.07691362      -0.07992198      -0.10586031
Pt       2.63993720       6.02720081       4.47590129        2       0.00000000       0.00431700      -0.05363629      -0.05774801
Pt       5.30174799       6.01425703       4.47319032        2       0.00000000      -0.04957307      -0.04612095      -0.03729988
Pt       7.90360242       6.02064090       4.47289369        2       0.00000000       0.02077652      -0.02637330      -0.05920228
Pt      10.57214264       6.00017770       4.51544083        2       0.00000000      -0.02059160      -0.09784372      -0.04737719
Pt       3.91041118       8.38065784       4.50080672        2       0.00000000      -0.08796455       0.00408386      -0.02227433
Ni       6.60827151       8.40449437       4.51797422        2       1.00000000      -0.00287672       0.04052911      -0.03705013
Pt       9.25780705       8.41860690       4.50628655        2       0.00000000       0.05278326       0.02900566       0.02399923
Ni      11.89410907       8.40308277       4.51376662        2       1.00000000      -0.02741602       0.10413758      -0.02471999
Pt      -0.07019853       0.06520397       6.69641991        1       0.00000000      -0.02963527       0.00745202       0.04001081
Pt       2.63315116       0.08043580       6.66363420        1       0.00000000      -0.05930140       0.07649872      -0.02253379
Pt       5.30496065       0.04766587       6.78904552        1       0.00000000      -0.01427123       0.01465509       0.16448614
Ni       7.90996667       0.03685686       6.74815918        1       1.00000000      -0.00556335      -0.01375445      -0.07535891
Pt       1.27925403       2.34078337       6.76016118        1       0.00000000      -0.06269744       0.04159608       0.09347037
Ni       3.94806807       2.29233289       6.67713087        1       1.00000000      -0.04098886       0.01617789      -0.16293199
Pt       6.64860863       2.25217260       6.80083359        1       0.00000000       0.11328721      -0.04362736       0.24280733
Ni       9.24622718       2.30441650       6.66088926        1       1.00000000       0.04916335       0.01104995      -0.24113888
Pt       2.61627185       4.52215898       6.76386052        1       0.00000000       0.02106086       0.01315903       0.07048691
Pt       5.27055741       4.49342592       6.66506127        1       0.00000000       0.05952471      -0.10526574      -0.05557533
Pt       7.99504353       4.49579712       6.66386937        1       0.00000000       0.03982222      -0.04268071      -0.03953866
Ni      10.56248926       4.55189697       6.74121073        1       1.00000000       0.01766235      -0.00934940      -0.09390817
Pt       3.94290386       6.86489791       6.72299144        1       0.00000000       0.03245191      -0.04324352       0.06395296
Pt       6.60576665       6.85672786       6.67994759        1       0.00000000       0.01308340       0.02176869       0.01729159
Pt       9.26437168       6.82302758       6.70598588        1       0.00000000      -0.00302894       0.00695020       0.06592151
Pt      11.89160286       6.87324199       6.68340139        1       0.00000000       0.01516560       0.03309570      -0.03031056
