64
Lattice="10.163839501907828 6.744024059435927e-05 -0.006763580942475434 5.081978155915558 8.709954079793864 -0.10090236030341881 0.0 0.0 21.464015416286294" Properties=species:S:1:pos:R:3:tags:I:1:initial_magmoms:R:1:forces:R:3 unique_id=bdd91f9c4e234464b53774a9082ae86d stress="0.00211449495264426 -5.076726979006185e-05 -1.942107466009591e-05 -5.076726979006185e-05 0.0015546596018334718 -0.0005719086712447334 -1.942107466009591e-05 -0.0005719086712447334 -0.005028012822896652" energy=-368.26252169571904 pbc="T T T"
Ni       0.03385845      -0.05696750       0.19717100        2       1.00000000       0.08298508      -0.02373563      -0.40405144
Ni       2.48905516      -0.01720829       0.17113966        2       1.00000000       0.02804460       0.09305597      -0.32712566
Pt       5.10822400      -0.03935112       0.15820790        2       0.00000000      -0.09662524       0.18934495      -1.11383914
Ni       7.64212606      -0.05989077       0.18842855        2       1.00000000      -0.02860166      -0.07567305      -0.47796941
Ni       1.26133051       2.18868283       0.10154451        1       1.00000000      -0.04851027       0.02783741       0.27295618
Pt       3.76979952       2.24339421       0.16937490        2       0.00000000       0.00826808      -0.04451905      -0.78554280
Ni       6.35626133       2.22321972       0.09501162        1       1.00000000      -0.04717381      -0.01117538       0.09851196
Pt       8.89674441       2.22396537       0.09562173        1       0.00000000       0.04884412       0.13824505      -0.76618074
Ni       2.51494248       4.39223421       0.05483355        1       1.00000000       0.04658981      -0.00801417       0.35128103
Ni       5.09858862       4.39362389       0.05660638        1       1.00000000      -0.10631306       0.01323244       0.24205010
Ni       7.58676000       4.38376746       0.06497560        1       1.00000000       0.06051453       0.02666058       0.21024446
Ni      10.19941662       4.38098116       0.05883796        1       1.00000000      -0.01776818      -0.01158537       0.30754920
Ni       3.81418073       6.49627959       0.03285681        0       1.00000000       0.01940243      -0.02526440       0.23429467
Ni       6.31505824       6.49558577       0.00000000        0       1.00000000      -0.04920935      -0.00475196       0.16987717
Ni       8.87581984       6.45410928       0.07721769        1       1.00000000       0.01221039      -0.07406648      -0.34516500
Ni      11.47738907       6.46533287       0.00490124        0       1.00000000       0.02485946       0.03498556       0.20134168
Ni       1.28310851       0.75581157       2.18747775        4       1.00000000       0.00929007       0.09902878       0.14330995
Ni       3.74910470       0.72310622       2.18487380        4       1.00000000      -0.15394794      -0.06307268       0.20885024
Ni       6.38503676       0.73923786       2.16744156        4       1.00000000       0.06483208       0.06039199       0.10613752
Pt       8.91340554       0.71394932       2.19501386        4       0.00000000       0.07212314      -0.09745999       0.20904503
Ni       2.50141209       2.91507135       2.21494949        4       1.00000000      -0.00836955       0.00718141       0.14098636
Ni       5.09036178       2.93725904       2.14020568        3       1.00000000       0.01942696       0.04133703       0.06610934
Ni       7.60321833       2.92716175       2.15429268        4       1.00000000      -0.02419178       0.02852789       0.08364264
Ni      10.21056319       2.92770754       2.18653387        4       1.00000000       0.07337807       0.02608915       0.12589285
Ni       3.80248690       5.04549635       2.11715814        3       1.00000000      -0.03534841      -0.08309516       0.05070320
Ni       6.31942586       5.03973749       2.08594004        3       1.00000000      -0.03510354      -0.03316267       0.05494596
Ni       8.89116856       4.98736630       2.12010640        3       1.00000000       0.00759698      -0.10292297       0.08137751
Ni      11.47016142       5.00172978       2.12479296        3       1.00000000       0.03235565      -0.06178105       0.14091734
Ni       5.06459689       7.16650209       2.06000328        3       1.00000000      -0.08161137      -0.08291719       0.08140801
Pt       7.55776345       7.21158410       2.10117337        3       0.00000000      -0.03782011      -0.04340640       0.02821397
Pt      10.21538535       7.15644436       2.16249319        4       0.00000000       0.03857224      -0.16942505       0.15066398
Ni      12.72295091       7.15892267       2.05502563        3       1.00000000       0.04993332      -0.10899307       0.08283138
Ni       0.06007248       1.45001146       4.25238652        6       1.00000000       0.11292431       0.00342160      -0.11481390
Ni       2.48198087       1.43367231       4.22005301        5       1.00000000      -0.02873191      -0.01832088      -0.14819314
Pt       5.06116396       1.39983176       4.16087829        5       0.00000000       0.04308805      -0.00332143      -0.17652296
Ni       7.61951401       1.41713423       4.25105377        6       1.00000000      -0.05717093      -0.06169296      -0.19562303
Ni       1.27172789       3.59334830       4.25363280        6       1.00000000       0.04119043      -0.04417848      -0.09154578
Ni       3.75654388       3.65972367       4.19933743        5       1.00000000      -0.01127566       0.07250980      -0.15612205
Pt       6.37886306       3.65075374       4.24655783        5       0.00000000       0.01421603      -0.01388564       0.02607202
Ni       8.94418805       3.63837932       4.18490612        5       1.00000000       0.04528785       0.06016720      -0.16934242
Ni       2.51219883       5.70086836       4.22587005        5       1.00000000      -0.04350997      -0.03937027      -0.16219175
Ni       5.07469416       5.74690960       4.22450946        5       1.00000000       0.02744633      -0.01227894      -0.16065839
Ni       7.62808554       5.77637798       4.20812832        5       1.00000000       0.05107376       0.06208410      -0.08824802
Ni      10.19617314       5.70283097       4.22741383        5       1.00000000       0.05325613      -0.01619568      -0.08004911
Pt       3.81393392       7.85046805       4.16689910        5       0.00000000       0.00903973       0.03253619      -0.00604068
Ni       6.35464900       7.92398889       4.17812139        5       1.00000000      -0.02255343       0.01242835      -0.07710708
Ni       8.85590862       7.90354652       4.17895071        5       1.00000000      -0.08433385       0.02583147      -0.19521258
Ni      11.45504844       7.86982973       4.17924829        5       1.00000000       0.04795088      -0.10052043      -0.10991902
Pt       0.01343737      -0.09956162       6.46401542       10       0.00000000      -0.17985034       0.19088635       0.29256104
Pt       2.52028767      -0.05731578       6.39639039        9       0.00000000       0.26745959       0.08553080       0.23169154
Pt       5.09269811      -0.07976780       6.31469250        8       0.00000000      -0.21336608      -0.10911484       1.13822159
Pt       7.60957382      -0.10214034       6.45640918       10       0.00000000       0.10199157       0.17089899       0.42704645
Ni       1.26492392       2.18865959       6.34734144        8       1.00000000       0.01877501       0.04015713      -0.13593693
Pt       3.78166609       2.26899605       6.30748463        8       0.00000000      -0.13213738      -0.01255864       0.70307522
Ni       6.34721394       2.17621293       6.38072062        9       1.00000000       0.00888798       0.01350177       0.01808639
Pt       8.90101360       2.23303925       6.24352505        7       0.00000000      -0.00713460      -0.17985178       0.84503236
Ni       2.50523329       4.36071886       6.32696970        8       1.00000000       0.06174890      -0.04342497      -0.29453185
Ni       5.08521892       4.36608681       6.36052636        9       1.00000000      -0.08611340       0.00910324      -0.18432626
Ni       7.56269704       4.30608747       6.37318747        9       1.00000000      -0.02931228      -0.02019108      -0.04961661
Ni      10.24427356       4.29982184       6.32632859        8       1.00000000       0.04581812      -0.01828446      -0.24073103
Ni       3.80589501       6.37901127       6.33403278        8       1.00000000      -0.01716853      -0.00995220      -0.21070626
Ni       6.32033483       6.40551048       6.30599696        8       1.00000000      -0.02185633       0.04152069      -0.19325770
Pt       8.89028784       6.33957276       6.32893981        8       0.00000000       0.05605428       0.11803427       0.09755223
Ni      11.46579168       6.39624112       6.30154015        8       1.00000000      -0.00032704       0.10363421      -0.16190983
