64
Lattice="10.30813926368114 -0.01733765000486725 0.03700767948914256 5.139054786494431 8.814493303697022 -0.016242565601664823 0.0 0.0 21.583019907174297" Properties=species:S:1:pos:R:3:tags:I:1:initial_magmoms:R:1:forces:R:3 unique_id=c1077f771e6f441a909ba3adcc1d8a97 stress="0.005666368022030699 -1.4369342257174544e-05 0.00023207681783688123 -1.4369342257174544e-05 0.004916363963713083 7.261869160936224e-05 0.00023207681783688123 7.261869160936224e-05 -0.0021784477884699525" energy=-374.21933770709927 pbc="T T T"
Ni       0.01457459       0.00490697       0.14941748        1       1.00000000       0.11695866       0.06719009      -0.17211200
Ni       2.57787921       0.00529646       0.18003781        2       1.00000000      -0.03047550       0.05202522      -0.01318593
Ni       5.15047330      -0.03281634       0.14601101        1       1.00000000      -0.05582556       0.12030898      -0.47290634
Ni       7.72913636      -0.07514410       0.18755174        2       1.00000000      -0.06613995      -0.05016666      -0.24648921
Ni       1.29230157       2.20947464       0.07421223        1       1.00000000       0.00697105      -0.01035945       0.35821631
Pt       3.77510441       2.16021689       0.15399873        2       0.00000000       0.05739848       0.03514069      -0.33451701
Pt       6.43985267       2.11214460       0.08681192        1       0.00000000       0.05993142      -0.04972193      -0.14955483
Pt       9.11299879       2.18993787       0.11011120        1       0.00000000      -0.00528188       0.06391733      -0.59649666
Ni       2.52383004       4.42976336       0.01602336        0       1.00000000      -0.01380628      -0.01792190       0.17269863
Pt       5.09668764       4.43624829       0.00000000        0       0.00000000       0.07330433      -0.06280522      -0.35933058
Pt       7.77600200       4.44379000       0.00521921        0       0.00000000      -0.05590175      -0.01943283      -0.30053705
Ni      10.36071173       4.42343652       0.04550574        0       1.00000000       0.06018987       0.02157511       0.17482400
Ni       3.80434065       6.65385484       0.04239450        0       1.00000000      -0.03592810       0.07603922       0.25009273
Pt       6.43515423       6.71429812       0.06284457        1       0.00000000      -0.00169964      -0.00757107      -0.04137458
Ni       9.04733755       6.63911732       0.03670283        0       1.00000000      -0.02081802       0.05146991       0.06147482
Ni      11.60594197       6.60056648       0.04538492        0       1.00000000       0.09376647       0.02009929       0.21981740
Ni       1.32781335       0.73577683       2.19634709        4       1.00000000       0.06409884       0.06868318       0.22906180
Ni       3.83721687       0.74312775       2.22784260        4       1.00000000      -0.08668421       0.13900821       0.27515403
Ni       6.44173814       0.74471388       2.23001068        4       1.00000000      -0.03774332       0.17116462       0.28074043
Pt       9.04199796       0.71358938       2.24129245        4       0.00000000       0.04157377       0.16956424       0.00884876
Ni       2.55120689       2.87681911       2.23982055        4       1.00000000      -0.04530775      -0.13489514       0.31714258
Ni       5.15566526       2.88751576       2.23931917        4       1.00000000      -0.04789672      -0.07815780       0.19728825
Ni       7.71228887       2.90184698       2.23518047        4       1.00000000      -0.02766596      -0.02755988       0.10078263
Ni      10.35591751       2.88608697       2.25557599        5       1.00000000       0.09488237      -0.12056508       0.26890164
Pt       3.87101251       5.13225114       2.20930087        4       0.00000000       0.05461094      -0.12070088      -0.09635440
Ni       6.44340157       5.13481707       2.19954466        4       1.00000000      -0.00306085      -0.04987868       0.03332469
Pt       8.97784662       5.09783388       2.27352954        5       0.00000000      -0.14719597      -0.12160825      -0.00185138
Pt      11.60055034       5.06745754       2.21309073        4       0.00000000      -0.02432554      -0.11340947       0.12162483
Ni       5.18308324       7.35152144       2.17025212        4       1.00000000       0.11995463      -0.00857166       0.16299022
Ni       7.68493982       7.36807112       2.19030860        4       1.00000000      -0.14574000       0.04582619       0.17302647
Pt      10.29693786       7.37204886       2.10879682        3       0.00000000      -0.01385997       0.00906136      -0.09132694
Ni      12.89039791       7.32348163       2.15957565        4       1.00000000       0.02824867      -0.03299573       0.03182752
Ni       0.07669462       1.50199675       4.30281818        6       1.00000000       0.19741582       0.05944621      -0.16077398
Ni       2.54669475       1.48900843       4.29297347        6       1.00000000      -0.08672671       0.03997435      -0.19645264
Ni       5.15291350       1.46342004       4.30291164        6       1.00000000      -0.12156559      -0.06421410      -0.31765215
Ni       7.74258432       1.46248659       4.33440946        6       1.00000000       0.01946565      -0.09092732      -0.22771045
Ni       1.29692328       3.64344010       4.35719366        7       1.00000000       0.00587316      -0.05902494      -0.02562504
Ni       3.82616605       3.64946029       4.30492258        6       1.00000000      -0.14416063      -0.11011643      -0.21769561
Pt       6.48508048       3.60234342       4.32201668        6       0.00000000       0.01704754      -0.08307134      -0.22788204
Ni       9.06888188       3.66814478       4.33567872        6       1.00000000       0.16723966      -0.07816253      -0.14128075
Ni       2.55500251       5.80375511       4.37814542        7       1.00000000      -0.06029372      -0.16561579       0.06254689
Pt       5.19488169       5.84912364       4.36804388        7       0.00000000       0.10314903      -0.01414234      -0.06355232
Ni       7.75155356       5.84118795       4.37353748        7       1.00000000       0.00317694      -0.00740462      -0.05147562
Ni      10.31187934       5.79017738       4.41523832        7       1.00000000       0.01159084      -0.06758532       0.08313375
Pt       3.89846927       8.06347430       4.28586461        6       0.00000000      -0.00862738       0.06050344       0.00130511
Ni       6.45257186       8.08286340       4.28128959        6       1.00000000      -0.02486966       0.16956005      -0.29315950
Pt       8.95058415       8.04732499       4.28216242        6       0.00000000      -0.04107992       0.08688151       0.02649334
Pt      11.59830682       8.02841998       4.29566741        6       0.00000000      -0.04810300      -0.04948611       0.00566871
Pt       0.03867079      -0.05577187       6.51773296        9       0.00000000       0.08641518       0.05326836       0.32113695
Pt       2.57656107      -0.06427517       6.53006946        9       0.00000000      -0.03567803       0.04709025       0.21441554
Pt       5.16755400      -0.07509756       6.55492356       10       0.00000000      -0.05962809       0.15030796       0.42236752
Pt       7.74496321      -0.07908302       6.58301991       10       0.00000000      -0.03525066       0.13184880       0.42179699
Ni       1.30400693       2.23950755       6.44609298        8       1.00000000      -0.01363417       0.12548705      -0.32204606
Pt       3.86303818       2.26875604       6.38502113        8       0.00000000       0.00210723       0.00768010       0.33279961
Ni       6.45974430       2.20013775       6.42007981        8       1.00000000      -0.00903831      -0.04521277       0.16861800
Pt       9.05198759       2.26429391       6.38249234        8       0.00000000      -0.00686704       0.04389671       0.53991366
Ni       2.55353425       4.41565757       6.44381124        8       1.00000000      -0.03401576      -0.02006264      -0.37229212
Ni       5.17380814       4.39790426       6.40137580        8       1.00000000      -0.02028303      -0.07132046       0.29488595
Ni       7.74481005       4.41678388       6.38579994        8       1.00000000       0.05749845       0.04272598       0.12358462
Ni      10.35101878       4.40838791       6.46795055        9       1.00000000       0.01862012      -0.01475214      -0.38622876
Ni       3.85471540       6.51496415       6.47943534        9       1.00000000      -0.07992425      -0.10652268      -0.16388525
Ni       6.47130719       6.52716608       6.40730370        8       1.00000000       0.14685194       0.04643876       0.18411569
Ni       9.03293730       6.49603532       6.47234509        9       1.00000000      -0.00150172      -0.10116289      -0.30202250
Ni      11.60188913       6.48944227       6.49323088        9       1.00000000      -0.01173643      -0.00107714      -0.29484839
