64
Lattice="10.205628571786637 0.04548123959964397 -0.04642023481391291 5.14220219478222 8.807633779890544 -0.0728841194816505 0.0 0.0 21.4998016522561" Properties=species:S:1:pos:R:3:tags:I:1:initial_magmoms:R:1:forces:R:3 unique_id=9abe6f1c0514435a8769ec0b160a2d54 stress="0.005009363773631902 2.3054937532481905e-05 -0.00022682382175369525 2.3054937532481905e-05 0.004241023875331165 -6.738668728525861e-05 -0.00022682382175369525 -6.738668728525861e-05 -0.0015886553260368464" energy=-369.718883055085 pbc="T T T"
Ni       0.03588118      -0.05559982       0.19176874        2       1.00000000       0.08243055      -0.02891416      -0.19086609
Ni       2.48982012      -0.02484023       0.20015100        2       1.00000000      -0.02550188      -0.01501469      -0.16296988
Pt       5.09297435      -0.03700239       0.13797849        1       0.00000000      -0.09709513       0.10847661      -0.96397928
Ni       7.67694372      -0.02881517       0.14837839        1       1.00000000      -0.03645651      -0.05790446      -0.29257055
Ni       1.28074081       2.21301795       0.10606041        1       1.00000000      -0.01840232       0.04443193       0.37234661
Pt       3.74559786       2.27336142       0.16083168        2       0.00000000       0.02409901      -0.00359995      -0.51218777
Pt       6.39936040       2.29327857       0.06637844        1       0.00000000      -0.01437970      -0.00224787      -0.19222418
Pt       9.01477914       2.29045815       0.07566309        1       0.00000000       0.01219153       0.12615964      -0.55990742
Ni       2.53945898       4.45159617       0.07312884        1       1.00000000       0.01632924       0.03326232       0.44560362
Ni       5.11263316       4.49243827       0.06424069        1       1.00000000      -0.10133567       0.07328110       0.32204911
Ni       7.66883014       4.49380497       0.05643652        1       1.00000000       0.05161151       0.00889378       0.24621667
Ni      10.25752115       4.47553585       0.04223795        0       1.00000000       0.04223410       0.07360340       0.41326668
Ni       3.85843707       6.58401602       0.05972218        1       1.00000000       0.02533840       0.00041531       0.38828701
Ni       6.39252670       6.60346753       0.05671531        1       1.00000000      -0.04007209       0.05836509       0.29212573
Ni       8.91537494       6.56908747       0.11894940        1       1.00000000      -0.07373799      -0.00179831      -0.30136866
Ni      11.55071945       6.57695901       0.00000000        0       1.00000000       0.04240391       0.02901208       0.25570765
Ni       1.29627397       0.73990832       2.19929305        4       1.00000000      -0.00384048       0.11895870       0.16386375
Ni       3.75042927       0.75489315       2.17837105        4       1.00000000      -0.16986849       0.00265821       0.04227810
Ni       6.39993846       0.75950679       2.18333094        4       1.00000000       0.07256313      -0.02429709       0.12385338
Pt       8.95207032       0.75762916       2.18033958        4       0.00000000       0.09571498       0.05149803      -0.02603596
Ni       2.50732065       2.96125859       2.24087285        4       1.00000000       0.03322456       0.00053665       0.09698890
Ni       5.08721871       3.00427994       2.16696345        4       1.00000000      -0.09559714       0.14482756      -0.02261317
Ni       7.66947630       3.00481067       2.18483074        4       1.00000000       0.04508302       0.01592998       0.07676677
Ni      10.26630736       3.00657571       2.18715405        4       1.00000000       0.07825384      -0.02085828       0.12988729
Ni       3.83251585       5.12874318       2.14646449        3       1.00000000      -0.03996209      -0.02996111       0.06313636
Ni       6.36990561       5.15481130       2.08006094        3       1.00000000      -0.05688501      -0.02670907      -0.06165661
Ni       8.94111469       5.09850489       2.10287201        3       1.00000000       0.03238868      -0.19692455       0.02858650
Ni      11.53146532       5.10813145       2.12005639        3       1.00000000       0.14097724      -0.17968716       0.17338345
Ni       5.15556828       7.27587649       2.09966932        3       1.00000000      -0.04156615      -0.10645850       0.06887755
Ni       7.61209973       7.33261611       2.06631362        3       1.00000000      -0.08039440      -0.04195272       0.03387155
Pt      10.28014501       7.23829143       2.14335273        3       0.00000000       0.05019798      -0.12518526      -0.07580686
Ni      12.80015309       7.29801230       2.06483626        3       1.00000000       0.11867918      -0.16450982       0.03639331
Ni       0.04552149       1.48014696       4.29094198        6       1.00000000       0.09304971       0.03273032      -0.09624539
Ni       2.46612904       1.50811573       4.25168570        6       1.00000000      -0.06604356       0.08577818      -0.16357840
Pt       5.09289560       1.48075331       4.18042458        5       0.00000000      -0.05460859      -0.01547914      -0.13177534
Ni       7.65707579       1.47697120       4.25385980        6       1.00000000       0.02108047      -0.07023824      -0.21304147
Ni       1.27900998       3.65119400       4.30099266        6       1.00000000       0.05046431      -0.01534251      -0.08669756
Ni       3.76317892       3.73193064       4.23761365        5       1.00000000      -0.07929847       0.06174076      -0.19457798
Pt       6.36580068       3.68198723       4.26298390        6       0.00000000      -0.01866306      -0.05059563      -0.02585818
Ni       8.99560005       3.69378912       4.20085482        5       1.00000000       0.10413083      -0.00250369      -0.20693337
Ni       2.53966509       5.79178403       4.28561276        6       1.00000000      -0.07463465      -0.07696473      -0.18693204
Ni       5.06805086       5.83286280       4.27304909        6       1.00000000      -0.00845287      -0.09156000      -0.18275873
Pt       7.63870309       5.85889372       4.19312719        5       0.00000000      -0.02841456       0.01271062      -0.06338358
Ni      10.28001567       5.81014540       4.25776360        6       1.00000000       0.03261336      -0.05962270      -0.03770116
Pt       3.84606845       7.95840754       4.21541936        5       0.00000000      -0.00705388      -0.04233293       0.07988735
Ni       6.36611866       8.07379549       4.19105304        5       1.00000000      -0.10513340       0.06051957      -0.23993586
Pt       8.89331058       8.07761798       4.15983056        5       0.00000000      -0.06251719       0.08372958      -0.10397009
Ni      11.52921484       8.01863536       4.19744732        5       1.00000000       0.00515043      -0.10828328      -0.10989716
Pt      -0.01780269      -0.07483590       6.49980165        9       0.00000000       0.02566738       0.12898415       0.18424881
Pt       2.50415185      -0.00795682       6.48480448        9       0.00000000       0.00231405       0.09579619       0.29229324
Pt       5.10198600      -0.01798391       6.38426662        8       0.00000000       0.09359145      -0.02067256       1.12664446
Pt       7.63094552      -0.04311312       6.45539177        9       0.00000000      -0.06238824       0.13258468       0.30781973
Ni       1.25176377       2.23907186       6.40371602        8       1.00000000       0.04664601       0.04012086      -0.22035138
Pt       3.78017564       2.32329476       6.35675970        8       0.00000000      -0.09049867       0.07605625       0.49426332
Ni       6.36782388       2.24206617       6.34666485        7       1.00000000       0.03054093      -0.00069683       0.30978177
Pt       8.92933617       2.30577268       6.28600951        7       0.00000000      -0.01855782      -0.08333322       0.56243784
Ni       2.51405240       4.43518845       6.39068464        8       1.00000000       0.04501534      -0.03806707      -0.39045252
Ni       5.09980673       4.44648329       6.40567993        8       1.00000000      -0.09022140       0.01732879      -0.22828913
Ni       7.59596614       4.39890966       6.41517681        8       1.00000000      -0.03482752      -0.03835248      -0.09546147
Ni      10.27734388       4.40053586       6.35906336        8       1.00000000       0.06651024      -0.00193146      -0.29563848
Ni       3.82837707       6.48593732       6.40247045        8       1.00000000      -0.00945102      -0.07041717      -0.27534703
Ni       6.34549723       6.52284270       6.39975762        8       1.00000000      -0.00263570       0.03035929      -0.23279167
Pt       8.95863686       6.46978742       6.45382221        9       0.00000000       0.13884010      -0.02394098       0.23889211
Ni      11.52907904       6.53365699       6.34427541        7       1.00000000      -0.01083981       0.08760800      -0.22595426
