64
Lattice="10.599072998630355 0.009640582779187664 0.008043588056171955 5.307885488909244 9.198866218531991 -0.031654956637819684 0.006567562146255515 -0.033636363102084704 9.159027373452894" Properties=species:S:1:pos:R:3:tags:I:1:initial_magmoms:R:1:forces:R:3 unique_id=a229509d5c554f8aa75cd59d6ca43d18 stress="-4.313283912001781e-05 -8.870556011381279e-08 -1.1849625217646577e-06 -8.870556011381279e-08 -4.3493843743497296e-05 -3.981903338906303e-06 -1.1849625217646577e-06 -3.981903338906303e-06 -5.853995224673614e-06" energy=-417.8351713136659 pbc="T T T"
Pt       0.03680822       0.00238779       0.01077723        4       0.00000000       0.00332574      -0.01044151      -0.14077991
Ni       2.66620817       0.01289713       0.12209858        4       1.00000000       0.05878256       0.01598105       0.41739170
Pt       5.23532508       0.01740467       0.04920506        4       0.00000000      -0.14227862       0.09822501      -0.00002453
Pt       7.91788104      -0.01450161       0.09202377        4       0.00000000      -0.08620597      -0.01539497       0.04876745
Pt       1.37610162       2.27318463       0.01682441        4       0.00000000       0.11200380      -0.05617425      -0.18688552
Ni       3.96835658       2.27908636       0.11948076        4       1.00000000      -0.04068252      -0.05706433       0.42021992
Pt       6.59623945       2.29026523       0.01439698        4       0.00000000       0.01889233      -0.01988309      -0.08233106
Pt       9.29346398       2.31408043       0.03131472        4       0.00000000       0.02758196      -0.00642595      -0.08553072
Pt       2.63347874       4.59996517       0.10921793        4       0.00000000       0.00571825       0.02064386       0.08233958
Pt       5.29445855       4.57621757       0.10715265        4       0.00000000      -0.02252572      -0.05066758       0.10679034
Pt       7.96584681       4.61350502       0.12713026        4       0.00000000       0.03645761      -0.05465537       0.11684998
Pt      10.62344890       4.63231005       0.08539013        4       0.00000000       0.01548378      -0.03561204       0.08240756
Pt       3.95207086       6.89320062       0.06998652        4       0.00000000      -0.02465416       0.00958920       0.07262063
Pt       6.65508189       6.91686230       0.09647307        4       0.00000000       0.03972894       0.01107938       0.14328837
Pt       9.30962742       6.92060563       0.00974498        4       0.00000000       0.05886478       0.01121132      -0.15105284
Ni      11.91683833       6.90146690       0.09544065        4       1.00000000      -0.06000770       0.00864232       0.29172789
Pt       1.35004268       0.78317467       2.31201439        3       0.00000000      -0.01632311       0.00745311       0.04586260
Ni       3.97090603       0.76001139       2.27877098        3       1.00000000       0.00772338      -0.02269618       0.06865432
Pt       6.60301117       0.76375403       2.37870287        3       0.00000000       0.07093564      -0.03598332       0.13766814
Pt       9.29836262       0.83351955       2.38186679        3       0.00000000       0.05087599       0.25316443       0.10107092
Pt       2.62230290       3.05225278       2.29341013        3       0.00000000      -0.07826020       0.01825034       0.05428433
Pt       5.31749814       3.04663123       2.31843722        3       0.00000000       0.11141664      -0.04738724       0.09265523
Pt       7.99918000       3.13613233       2.42240526        3       0.00000000       0.07392616       0.14384124       0.29461937
Ni      10.59972113       3.10104422       2.32300727        3       1.00000000      -0.01909779       0.15144523       0.08861039
Pt       3.97158699       5.34659747       2.31664731        3       0.00000000      -0.04003883      -0.02825562       0.01261172
Ni       6.65520953       5.35021287       2.29682228        3       1.00000000       0.07148012      -0.04015509       0.05817439
Ni       9.29860730       5.34582122       2.30625789        3       1.00000000       0.13668741      -0.07193424       0.08704793
Ni      11.89083984       5.34818245       2.28518408        3       1.00000000      -0.17266742      -0.12735617       0.09452409
Pt       5.31885118       7.65195446       2.31232757        3       0.00000000      -0.05511761       0.09030825       0.01138121
Pt       7.99755873       7.63952958       2.29380879        3       0.00000000       0.04976967      -0.01763569       0.09990840
Pt      10.60204640       7.62047462       2.30014187        3       0.00000000      -0.01470998      -0.05216601       0.07584165
Pt      13.20487214       7.64000115       2.30024612        3       0.00000000      -0.02027221       0.05098905       0.04399245
Ni      -0.03390304       1.54829541       4.59793777        2       1.00000000      -0.19080381       0.10943274       0.08538816
Pt       2.63215246       1.52683322       4.56339679        2       0.00000000       0.11045425      -0.02486119       0.02421251
Pt       5.39978161       1.50889057       4.61098949        2       0.00000000       0.13057360      -0.00780521       0.15475372
Ni       7.97383869       1.56522892       4.59296154        2       1.00000000       0.12742962       0.29803808       0.03426495
Pt       1.20981298       3.76444039       4.54518198        2       0.00000000      -0.20408998      -0.14101547      -0.08529519
Pt       4.00129642       3.78981258       4.53836964        2       0.00000000      -0.05399390      -0.04406377       0.10581727
Ni       6.67441557       3.79210280       4.55431228        2       1.00000000       0.15742133      -0.12229603      -0.01431643
Ni       9.27404856       3.77674808       4.55868062        2       1.00000000      -0.02986873      -0.24098597      -0.04134015
Pt       2.60986880       6.13792809       4.51062402        2       0.00000000      -0.11943285      -0.04507396       0.03836212
Pt       5.34777781       6.08408480       4.50021891        2       0.00000000       0.06441230      -0.07438538       0.00699956
Pt       7.98314369       6.03877029       4.48923731        2       0.00000000      -0.01447018      -0.21379700      -0.21372212
Pt      10.58417532       6.08534477       4.53428025        2       0.00000000      -0.06910412      -0.13241081      -0.08047147
Pt       3.95949966       8.51123091       4.54257185        2       0.00000000      -0.09452897       0.13229636       0.01497233
Pt       6.61223935       8.46045087       4.55054701        2       0.00000000       0.03879271       0.04850493       0.05965671
Pt       9.33313252       8.42118657       4.57248004        2       0.00000000       0.02703566       0.02661005       0.04783750
Ni      11.93475746       8.43328711       4.55766084        2       1.00000000       0.01351815      -0.01963588       0.00775299
Ni       0.00635837       0.01756477       6.74164252        1       1.00000000      -0.01988133       0.22620774      -0.36713958
Pt       2.65693182      -0.00920103       6.84935134        1       0.00000000      -0.02511783       0.03990167       0.18922683
Ni       5.31091305      -0.01856151       6.76097703        1       1.00000000       0.02338758       0.00606849      -0.23139364
Pt       7.92147045       0.08464163       6.71825778        1       0.00000000      -0.13471621       0.24965384      -0.09635806
Ni       1.28984562       2.26764521       6.73869317        1       1.00000000      -0.22900303      -0.05823379      -0.37276101
Pt       4.00698837       2.23452342       6.83737357        1       0.00000000       0.07799573      -0.01897299       0.19754181
Ni       6.65015556       2.27472988       6.72947295        1       1.00000000       0.12311202       0.10441914      -0.34045748
Ni       9.29694003       2.28136393       6.71373344        1       1.00000000       0.16149833      -0.03153358      -0.44124095
Pt       2.59367589       4.54475042       6.74713371        1       0.00000000      -0.15260535      -0.03860604      -0.12269172
Pt       5.35348110       4.53760345       6.73458908        1       0.00000000       0.12205856      -0.03501380      -0.13780047
Pt       8.03700383       4.51353996       6.70310651        1       0.00000000       0.21835169      -0.14614189      -0.05084870
Ni      10.59401430       4.56874792       6.74513554        1       1.00000000      -0.05630590      -0.06444921      -0.21053913
Pt       3.98303901       6.91704954       6.72977695        1       0.00000000      -0.06521280       0.11789512      -0.21283324
Pt       6.67224434       6.89682931       6.74269451        1       0.00000000       0.12972568      -0.09631446      -0.14261549
Ni       9.29520437       6.87616784       6.73656707        1       1.00000000      -0.05520085      -0.06448719      -0.35508520
Pt      11.85003073       6.91209336       6.79870028        1       0.00000000      -0.16824424       0.12012032       0.04741759
