64
Lattice="10.27512678690428 0.0025775456374789816 0.0020022867816949573 5.139795613453607 8.892274838663786 -0.009408598590749176 0.001634860311290711 -0.009814398860785677 8.804827087585261" Properties=species:S:1:pos:R:3:tags:I:1:initial_magmoms:R:1:forces:R:3 unique_id=5346b595720e4011a38d4b9512c27734 stress="0.00025300407221592186 4.199048717272297e-06 -2.0245624975165946e-05 4.199048717272297e-06 0.00025295700381969266 -2.980316775479461e-06 -2.0245624975165946e-05 -2.980316775479461e-06 0.0002454097456145582" energy=-397.21245907909423 pbc="T T T"
Ni       0.01124395      -0.00727366       0.17881522        4       1.00000000      -0.00177526       0.01005577       0.33833001
Ni       2.53637834       0.00955927       0.20791561        4       1.00000000      -0.05405898       0.05656864       0.43494327
Pt       5.12881232      -0.03851335       0.13992250        4       0.00000000      -0.02163920      -0.06512787       0.30843025
Ni       7.73089623      -0.05585450       0.18556269        4       1.00000000       0.03398079      -0.08695482       0.36422811
Ni       1.29075138       2.23094390       0.10448059        4       1.00000000       0.02859237       0.05357757       0.24875531
Pt       3.77150867       2.27797501       0.19184010        4       0.00000000      -0.01498192       0.11235936       0.16506177
Pt       6.42482650       2.23495824       0.11822797        4       0.00000000       0.05820463       0.09423962       0.00326828
Pt       9.08420636       2.22495466       0.12294113        4       0.00000000       0.11471357      -0.01839078       0.12730583
Ni       2.56180768       4.47925076       0.06823361        4       1.00000000       0.06889373       0.10401424       0.01010552
Ni       5.09930655       4.48025611       0.18465827        4       1.00000000      -0.04990060       0.09923611       0.36182436
Pt       7.75037123       4.50345755       0.10044844        4       0.00000000       0.04292256       0.08302619      -0.07315888
Ni      10.32496351       4.47287738       0.07085773        4       1.00000000       0.14120490       0.06668398       0.14750285
Ni       3.81670748       6.66097754       0.10590539        4       1.00000000      -0.08070648      -0.04691712       0.23239454
Pt       6.38207280       6.72117434       0.17756089        4       0.00000000      -0.08640714       0.02005047       0.03614726
Ni       9.00970901       6.65723157       0.07505644        4       1.00000000       0.00917418       0.00125350       0.12025193
Ni      11.59519489       6.63660322       0.06697671        4       1.00000000       0.10078897      -0.03660150       0.07533899
Ni       1.29639925       0.73544140       2.19266611        3       1.00000000      -0.06155807      -0.01902012      -0.01195403
Ni       3.83045016       0.76216018       2.23054462        3       1.00000000       0.06284794       0.01180830       0.00541820
Ni       6.42196239       0.78241998       2.24990046        3       1.00000000      -0.07073563       0.12375271       0.06001071
Pt       9.00752619       0.73229699       2.25368271        3       0.00000000       0.00280382       0.14809846      -0.02983856
Ni       2.55995406       2.96574880       2.24223896        3       1.00000000       0.03118775       0.05595368       0.00340335
Ni       5.12393178       2.98561907       2.25454141        3       1.00000000      -0.12906539       0.02846859       0.05465268
Ni       7.71187612       2.98542133       2.25720200        3       1.00000000       0.12578035       0.01181533      -0.05041940
Ni      10.29936544       2.96447621       2.25915123        3       1.00000000       0.05010396      -0.04318839       0.14820389
Ni       3.89107084       5.18278551       2.21880126        3       1.00000000       0.09793339      -0.00684642       0.11548323
Ni       6.40523408       5.19151459       2.24317999        3       1.00000000      -0.02340975       0.08599671      -0.02015705
Ni       8.96240550       5.15764537       2.23621089        3       1.00000000      -0.07399676      -0.16863173       0.13067538
Pt      11.62103387       5.12004693       2.18151608        3       0.00000000       0.13590834      -0.09498911       0.09431696
Ni       5.14287196       7.37636887       2.23480190        3       1.00000000       0.02856773      -0.14607259       0.05067606
Ni       7.66732464       7.40807423       2.22433154        3       1.00000000      -0.18250413      -0.08966488       0.01441302
Pt      10.24880344       7.35104836       2.19243174        3       0.00000000      -0.06004292      -0.08123258      -0.28963024
Ni      12.88184890       7.37466611       2.16517847        3       1.00000000       0.09871675      -0.19135821      -0.02335501
Ni       0.00453122       1.51990341       4.34461657        2       1.00000000      -0.05556593       0.07120316      -0.08914129
Pt       2.50357202       1.54235407       4.26629494        2       0.00000000       0.01325118      -0.03772649       0.09634542
Ni       5.14941020       1.51313365       4.33079469        2       1.00000000      -0.09608140       0.02785192      -0.17436079
Ni       7.70918182       1.50695138       4.34711186        2       1.00000000       0.01768014      -0.01530817      -0.09650561
Ni       1.28577740       3.69277005       4.39677634        2       1.00000000      -0.01491609      -0.00825202      -0.01013219
Ni       3.83544738       3.75235773       4.31847411        2       1.00000000      -0.03862043       0.07860476      -0.20000611
Pt       6.43902843       3.70356056       4.30336563        2       0.00000000      -0.07706420       0.00766388       0.04445047
Ni       8.99793565       3.69131245       4.31829736        2       1.00000000      -0.00386573      -0.09485651      -0.34397082
Ni       2.60583579       5.86499444       4.39359510        2       1.00000000       0.05679790      -0.13107802      -0.07649699
Ni       5.13093768       5.90049314       4.31132248        2       1.00000000       0.06432059      -0.16651389      -0.20750054
Ni       7.69282461       5.89587187       4.32536717        2       1.00000000      -0.05459597      -0.06758984      -0.28402856
Pt      10.27242263       5.82195244       4.43563177        2       0.00000000       0.01537355      -0.01883891       0.00790627
Pt       3.92497700       8.07672783       4.32900055        2       0.00000000       0.03384776      -0.14390216       0.23277872
Ni       6.41340603       8.12713215       4.30072042        2       1.00000000      -0.04556149      -0.03543783      -0.20130508
Pt       8.90806437       8.12379989       4.30808592        2       0.00000000      -0.06638111       0.02340563       0.10378376
Pt      11.60712162       8.15442871       4.28691835        2       0.00000000       0.05904623      -0.00659911       0.02084495
Pt       0.00831845       0.01686402       6.55942875        1       0.00000000       0.03670639       0.08578583       0.11788945
Pt       2.56228358       0.00001208       6.59318065        1       0.00000000       0.00220476       0.04845034       0.23901007
Pt       5.14629565      -0.03925160       6.47478181        1       0.00000000       0.06684949      -0.06168227      -0.41201219
Pt       7.70645088      -0.03799254       6.59060193        1       0.00000000      -0.05919830      -0.03937404       0.14646894
Ni       1.27211624       2.28872429       6.51247838        1       1.00000000      -0.04510744       0.21041617      -0.16886470
Pt       3.81796949       2.27709461       6.45749252        1       0.00000000      -0.10167811       0.09690926      -0.25542095
Ni       6.43823454       2.23741120       6.44274322        1       1.00000000      -0.01549354       0.03723794      -0.26013240
Pt       9.00187113       2.32259132       6.40880867        1       0.00000000      -0.03972120       0.12595335      -0.33486705
Ni       2.51348750       4.47802958       6.50080451        1       1.00000000      -0.13830216       0.06579577      -0.24003211
Pt       5.10504537       4.46372422       6.53381640        1       0.00000000      -0.05438590       0.04151959       0.11999349
Ni       7.74330539       4.45643867       6.43720145        1       1.00000000       0.06561286       0.09815667      -0.32188041
Ni      10.30731789       4.45771470       6.53156435        1       1.00000000       0.09080416       0.00125843      -0.02112873
Ni       3.80785866       6.62192019       6.51756404        1       1.00000000      -0.09991458      -0.08076896      -0.10600147
Pt       6.45810590       6.62153193       6.41913038        1       0.00000000       0.04942059       0.04626190      -0.27530333
Ni       9.02066181       6.59568375       6.53123149        1       1.00000000       0.05552993      -0.15031449      -0.09625501
Ni      11.57594486       6.59745886       6.53747979        1       1.00000000       0.05746454      -0.08019499      -0.10675377
