64
Lattice="10.15915982738504 -0.013815649271254804 0.022408657587016795 5.067615210453895 8.774676304395081 0.02365929671974579 0.0 0.0 21.448024061617218" Properties=species:S:1:pos:R:3:tags:I:1:initial_magmoms:R:1:forces:R:3 unique_id=2c2cbee102e04045a1408bdd130eb2b5 energy=-368.39150227970316 stress="0.0033883426364837606 -3.453674943265709e-05 0.0002645924720373178 -3.453674943265709e-05 0.003221000859545022 2.7484096752313162e-05 0.0002645924720373178 2.7484096752313162e-05 -0.0030352165195285195" pbc="T T T"
Ni       0.03760608      -0.01244362       0.10044554        1       1.00000000       0.15152754      -0.06323823      -0.58279372
Ni       2.52360161      -0.03400478       0.14095146        1       1.00000000       0.04031623      -0.00972485      -0.38752176
Ni       5.08440293      -0.03683376       0.02202877        0       1.00000000      -0.05543552       0.06882083       0.10311176
Ni       7.62491950      -0.03562087       0.00000000        0       1.00000000       0.02322476      -0.02273252      -0.08804779
Ni       1.22715202       2.20877729       0.04407867        0       1.00000000       0.01998983      -0.01629727       0.27025506
Pt       3.75116444       2.20449814       0.13593219        1       0.00000000      -0.00984333       0.03408686      -0.84148490
Pt       6.40882681       2.19696751       0.02982648        0       0.00000000      -0.04753047       0.08350008      -0.22511765
Ni       8.93584184       2.22475065       0.01657587        0       1.00000000       0.03592985       0.12106337       0.10017450
Ni       2.50576545       4.42192983       0.04033447        0       1.00000000      -0.02906313       0.03044650       0.28367053
Ni       5.06296457       4.43137511       0.01911296        0       1.00000000      -0.09231830      -0.08027247       0.05968987
Ni       7.66069343       4.40704042       0.02783641        0       1.00000000       0.16354142       0.02795985       0.10134967
Ni      10.16064901       4.37339539       0.05806439        1       1.00000000      -0.01221545       0.11925983       0.29051873
Ni       3.82638250       6.56335616       0.01028596        0       1.00000000       0.10837020      -0.03503681       0.10190034
Ni       6.34118910       6.59759188       0.02736202        0       1.00000000       0.03976954       0.11413526       0.09269250
Ni       8.86026421       6.55716968       0.10864305        1       1.00000000      -0.10755999      -0.11254937      -0.18829475
Ni      11.41735276       6.54655082       0.01136649        0       1.00000000      -0.08970796      -0.13001313       0.10402681
Ni       1.29955463       0.74733872       2.06297978        2       1.00000000       0.06640361       0.13620304       0.01561206
Ni       3.79523724       0.70496310       2.11463820        2       1.00000000       0.02102447      -0.06706866       0.06507277
Ni       6.33955685       0.73179163       2.10728317        2       1.00000000      -0.00168073      -0.00896396       0.01875538
Pt       8.93824002       0.78256539       2.07317555        2       0.00000000      -0.00719149       0.04825480      -0.05350871
Ni       2.50196445       2.97406148       2.12539132        2       1.00000000      -0.07653426       0.13951917      -0.00976224
Ni       5.06622988       2.93867576       2.15413385        3       1.00000000      -0.02342366       0.06223297       0.14497349
Ni       7.65506702       2.95484150       2.12814980        2       1.00000000       0.07172071       0.11133644       0.10511876
Ni      10.17456954       2.95968662       2.11120239        2       1.00000000       0.01676163       0.06994200       0.02820556
Ni       3.79508451       5.07498291       2.12000569        2       1.00000000      -0.00422863      -0.13180391       0.02996374
Pt       6.35204471       5.14529323       2.08473967        2       0.00000000       0.01948905      -0.00210065      -0.03337923
Ni       8.90514638       5.07297448       2.13442229        2       1.00000000       0.04623572      -0.09553696       0.08843812
Ni      11.41312263       5.06739784       2.10966165        2       1.00000000      -0.07691105      -0.01580641      -0.02474493
Ni       5.09631862       7.30381305       2.08319833        2       1.00000000      -0.02606924      -0.02619727      -0.01779551
Ni       7.60247543       7.32246650       2.10715681        2       1.00000000      -0.02184443      -0.03456767       0.05718627
Pt      10.09829461       7.28727806       2.15060638        3       0.00000000       0.01396425      -0.05539267       0.03607227
Pt      12.70128314       7.23143165       2.09674956        2       0.00000000       0.03552075      -0.08450637      -0.08069782
Ni       0.00557193       1.50382379       4.25899852        5       1.00000000       0.02689296      -0.01613238      -0.09215274
Pt       2.50950415       1.48582611       4.16061420        4       0.00000000      -0.03323602      -0.07202597      -0.06789619
Pt       5.09708616       1.39949485       4.20078199        4       0.00000000      -0.07631225      -0.13973460      -0.09538917
Pt       7.68224032       1.48192753       4.30509085        5       0.00000000       0.09234273      -0.00081012      -0.02552690
Pt       1.23287551       3.73793221       4.25286649        5       0.00000000      -0.04904357       0.00295736       0.00870290
Ni       3.80501332       3.73954392       4.23089507        4       1.00000000      -0.06890016       0.04397692      -0.19478027
Pt       6.35226832       3.73329041       4.30925887        5       0.00000000      -0.05606746       0.02435892      -0.02894229
Ni       8.90709132       3.69951447       4.28145150        5       1.00000000      -0.00130915       0.15388852      -0.08728080
Ni       2.52947155       5.83122832       4.29651320        5       1.00000000      -0.07792387      -0.04213853      -0.08594368
Ni       5.04120881       5.82262027       4.29453905        5       1.00000000      -0.06524619      -0.05182074      -0.09572801
Ni       7.67315862       5.83558976       4.26846756        5       1.00000000       0.18967698      -0.02190130      -0.17787212
Ni      10.15811834       5.85752456       4.27315341        5       1.00000000      -0.05039482       0.02565862      -0.11109889
Pt       3.76592570       7.96192709       4.29454365        5       0.00000000      -0.03145619      -0.05452961       0.00550656
Pt       6.37076846       7.95420108       4.19977549        4       0.00000000       0.05362389      -0.10792069      -0.03805469
Ni       8.91420109       7.99502160       4.27211081        5       1.00000000      -0.07113813      -0.05290715      -0.06384215
Ni      11.40118700       7.97596661       4.32716032        5       1.00000000      -0.06815466      -0.14549501      -0.03833100
Pt      -0.05815346       0.02787761       6.44802406        7       0.00000000      -0.05183730       0.08273451       0.41763024
Pt       2.57375184      -0.01057999       6.44677558        7       0.00000000       0.11784536      -0.00041926       0.42672680
Ni       5.15260146      -0.02316714       6.37896425        7       1.00000000      -0.04361768      -0.01757490      -0.04666733
Ni       7.57136883      -0.02518614       6.40630976        7       1.00000000      -0.03229905      -0.02854619       0.04534134
Ni       1.23735318       2.24989310       6.39168659        7       1.00000000       0.01959395      -0.02986415      -0.04222054
Pt       3.84207597       2.30119637       6.35684715        7       0.00000000       0.03676512       0.20216399       0.89584921
Ni       6.39147213       2.19668062       6.34269473        6       1.00000000      -0.04418676       0.04909655       0.51612847
Ni       8.89602866       2.24529736       6.40325338        7       1.00000000       0.03187352       0.10495316       0.01942215
Ni       2.53181587       4.45399567       6.38354688        7       1.00000000       0.02120956       0.04165224      -0.19306026
Ni       5.08645847       4.45599604       6.39475213        7       1.00000000      -0.09550984       0.00317352       0.01493160
Ni       7.62427708       4.36589560       6.40472641        7       1.00000000       0.09148922      -0.05820400      -0.01292730
Ni      10.17420236       4.35722194       6.41123010        7       1.00000000      -0.02284855       0.00136627      -0.13626403
Ni       3.78720188       6.52977936       6.39717273        7       1.00000000      -0.00603034      -0.02262185      -0.07245949
Ni       6.32182168       6.51664273       6.39457686        7       1.00000000       0.02414924       0.04108861      -0.13291401
Pt       8.94077794       6.49836809       6.40061111        7       0.00000000       0.01449391      -0.00588609       0.13610160
Ni      11.47046956       6.57177911       6.38417819        7       1.00000000       0.03332366      -0.08348846      -0.21062822
