64
Lattice="10.147795515935684 0.007757524547711462 0.007617201592012083 5.080615971296702 8.729417407234621 -0.075846439437205 0.0 0.0 21.426322119516378" Properties=species:S:1:pos:R:3:tags:I:1:initial_magmoms:R:1:forces:R:3 unique_id=6b29367713cd466da1a9e27d1b9ddaac stress="0.002063683533573356 -8.758413538760698e-05 5.531497556629763e-05 -8.758413538760698e-05 0.001517353223689651 -0.0004859706326760666 5.531497556629763e-05 -0.0004859706326760666 -0.005074064592274019" energy=-368.11386824932066 pbc="T T T"
Ni       0.04194167      -0.05803407       0.15558509        2       1.00000000       0.08474403      -0.02029365      -0.38497024
Ni       2.48778550      -0.03671321       0.16145509        2       1.00000000       0.04065985      -0.00956927      -0.19227665
Pt       5.09774518      -0.03495778       0.12507751        1       0.00000000      -0.10737804       0.17227017      -1.09888286
Ni       7.63417730      -0.05075656       0.15960152        2       1.00000000      -0.03122429      -0.08491376      -0.48969020
Ni       1.26493820       2.19148654       0.06956043        1       1.00000000      -0.03891705       0.00926196       0.28360712
Pt       3.76656553       2.24724244       0.14115098        1       0.00000000       0.01408112      -0.05316161      -0.77285165
Ni       6.35079859       2.23247454       0.06863785        1       1.00000000      -0.05138226      -0.01616914       0.08447984
Pt       8.88835518       2.23811556       0.07276980        1       0.00000000       0.04888146       0.14284116      -0.80274039
Ni       2.51691843       4.40423777       0.03028819        0       1.00000000       0.04939936      -0.00347683       0.35992030
Ni       5.10022361       4.41150411       0.03498450        0       1.00000000      -0.09753552       0.01683594       0.24988780
Ni       7.58094180       4.40399428       0.04367437        0       1.00000000       0.06763145      -0.00793403       0.16741245
Ni      10.18516534       4.40202091       0.04147649        0       1.00000000      -0.02148534      -0.00535758       0.29952744
Ni       3.82172654       6.51576280       0.01553125        0       1.00000000       0.03753906      -0.00686408       0.27810743
Ni       6.33766893       6.52778019       0.02369410        0       1.00000000      -0.00625378       0.03767211       0.21228392
Ni       8.84356086       6.48699526       0.11122635        1       1.00000000      -0.07616843      -0.00676870      -0.40141966
Ni      11.46166479       6.48979876       0.00000000        0       1.00000000       0.02991287       0.04585014       0.23154385
Ni       1.30108613       0.72326106       2.14905018        4       1.00000000      -0.01059262       0.10726719       0.11303977
Ni       3.72679450       0.70521786       2.14956916        4       1.00000000      -0.16913627      -0.09673223       0.17301477
Ni       6.37670135       0.74403600       2.13371673        4       1.00000000       0.08267075       0.05665961       0.09485865
Pt       8.90968560       0.72225257       2.16419291        5       0.00000000       0.08030258      -0.10346536       0.20353406
Ni       2.50085229       2.92228046       2.18254288        5       1.00000000      -0.00917341       0.00154172       0.11767984
Ni       5.08447340       2.95247491       2.10438617        4       1.00000000       0.02463847       0.06548149       0.04605639
Ni       7.59416870       2.94170216       2.12698098        4       1.00000000      -0.03549552       0.01423161       0.08442796
Ni      10.20465755       2.94054598       2.16109496        5       1.00000000       0.10255394       0.00124504       0.10512953
Ni       3.80542700       5.06713982       2.08886764        4       1.00000000      -0.02387919      -0.04777074       0.04236368
Ni       6.32762948       5.08992408       2.03948025        3       1.00000000       0.00077985       0.00642792       0.03001856
Ni       8.88283831       5.01501327       2.06682595        4       1.00000000       0.04927941      -0.13616527       0.02249293
Ni      11.45362925       5.03176181       2.10933430        4       1.00000000       0.03440610      -0.05618252       0.14223307
Ni       5.11531973       7.19639246       2.04244066        3       1.00000000      -0.04019411      -0.04537150       0.08849019
Ni       7.56885665       7.26742229       2.04963831        3       1.00000000      -0.05580797       0.00752976       0.07068809
Pt      10.16106366       7.18616464       2.15247368        5       0.00000000       0.03005095      -0.17100232       0.17265061
Ni      12.70381208       7.18614287       2.04714549        3       1.00000000       0.04602798      -0.10334636       0.08868629
Ni       0.06676821       1.45761775       4.21114017        7       1.00000000       0.09829477      -0.00153977      -0.12799760
Ni       2.48211809       1.44716997       4.18238730        7       1.00000000      -0.04646245       0.00310946      -0.15113235
Pt       5.04829549       1.39908035       4.11970910        6       0.00000000       0.02243076      -0.02680056      -0.20070428
Ni       7.61658831       1.42261857       4.22346248        7       1.00000000      -0.07185900      -0.09219731      -0.19471932
Ni       1.28049216       3.60610799       4.21875685        7       1.00000000       0.03781485      -0.04543899      -0.09304720
Ni       3.74768671       3.67315361       4.16691887        7       1.00000000      -0.03952461       0.05031335      -0.16980354
Pt       6.34101384       3.61594393       4.22222046        7       0.00000000       0.01008724      -0.01616095       0.00104893
Ni       8.95178522       3.63198634       4.15751995        7       1.00000000       0.05280397       0.04685201      -0.21821889
Ni       2.52039257       5.72275830       4.19691170        7       1.00000000      -0.04033525      -0.04355099      -0.17056291
Ni       5.04845626       5.75862904       4.19882566        7       1.00000000       0.04001403      -0.03686869      -0.16157639
Pt       7.62693860       5.83005215       4.13157733        6       0.00000000       0.00881259       0.04549829       0.00755843
Ni      10.21750654       5.73316713       4.22027925        7       1.00000000       0.02018949      -0.01057228      -0.05000024
Pt       3.82036544       7.87495900       4.14345510        6       0.00000000       0.02591946       0.01947696      -0.00977749
Ni       6.35711879       7.99487542       4.10973052        6       1.00000000      -0.01682053       0.07934826      -0.20288832
Ni       8.85406708       7.97277614       4.14572030        6       1.00000000      -0.12512046       0.10411371      -0.21523550
Ni      11.44529801       7.89878355       4.16119702        7       1.00000000       0.04371559      -0.10428017      -0.11678743
Pt       0.01845082      -0.09020403       6.41966856       10       0.00000000      -0.19886990       0.19143699       0.27381768
Pt       2.52188191      -0.04614761       6.36481244       10       0.00000000       0.27802555       0.05471209       0.17120298
Pt       5.09323577      -0.06029823       6.28028674        9       0.00000000      -0.20373171      -0.13659561       1.16498528
Pt       7.60460589      -0.08731651       6.42632212       10       0.00000000       0.10878513       0.17603047       0.40894002
Ni       1.26938682       2.20300114       6.31079789        9       1.00000000       0.02296529       0.02028516      -0.13938162
Pt       3.78309419       2.28634505       6.27567568        9       0.00000000      -0.13292968      -0.03532340       0.67913121
Ni       6.34518133       2.19065247       6.35926003       10       1.00000000       0.01383066       0.00663136       0.05089221
Pt       8.89505095       2.25004415       6.22066441        8       0.00000000      -0.01547655      -0.19966108       0.85237894
Ni       2.51170069       4.38020224       6.29792812        9       1.00000000       0.06228347      -0.04951314      -0.29938478
Ni       5.08263672       4.38664432       6.33891432        9       1.00000000      -0.09400225       0.03166050      -0.14581746
Ni       7.55976920       4.32609093       6.35676306       10       1.00000000      -0.03480489      -0.01779574      -0.05366951
Ni      10.23980096       4.31965408       6.30756649        9       1.00000000       0.03329338      -0.00196869      -0.21443274
Ni       3.80942418       6.40479033       6.31210119        9       1.00000000      -0.00182962      -0.00934894      -0.19886881
Ni       6.31366392       6.43795008       6.32023355        9       1.00000000      -0.00937457       0.03496679      -0.18434971
Pt       8.91422826       6.37552738       6.38485022       10       0.00000000       0.12318690       0.15211050       0.22992813
Ni      11.46942958       6.42818132       6.29072607        9       1.00000000      -0.02024709       0.10049955      -0.14083058
