64
Lattice="10.394676813625425 -0.013557795219415967 0.02997501533356313 5.185597011733388 8.924550663636092 -0.019412012500604644 0.024474497533110325 -0.03243217863989622 8.87327157538513" Properties=species:S:1:pos:R:3:tags:I:1:initial_magmoms:R:1:forces:R:3 unique_id=153a6a93855440a8aa20f3eb57bac184 stress="-0.0031830124429487877 2.1151827063623267e-05 -2.409008402349099e-05 2.1151827063623267e-05 -0.0031714211536249537 9.26465294582227e-06 -2.409008402349099e-05 9.26465294582227e-06 -0.0026843109424108183" energy=-402.9571815422954 pbc="T T T"
Ni      -0.01272749      -0.02266884       0.19852573        4       1.00000000      -0.01264686      -0.00190478       0.19999766
Ni       2.63008267      -0.02202848       0.13377365        4       1.00000000       0.08959646      -0.01658107       0.16225114
Ni       5.19919609      -0.04909159       0.18142415        4       1.00000000       0.03407639      -0.04289331       0.15807721
Ni       7.78917555      -0.08896169       0.21307776        4       1.00000000      -0.02231832      -0.12487867       0.21762562
Pt       1.30671039       2.22997815       0.18555345        4       0.00000000       0.03793629       0.03036235      -0.02058686
Pt       3.88014997       2.16138073       0.11354831        4       0.00000000       0.03900595      -0.03485395      -0.10728826
Pt       6.49789959       2.12078091       0.11904523        4       0.00000000       0.04552278      -0.08415274      -0.10716062
Pt       9.12153283       2.20448853       0.14759180        4       0.00000000       0.04048985       0.01054011      -0.14062735
Ni       2.57670972       4.49927754       0.12415882        4       1.00000000       0.03027531      -0.01140970       0.03629270
Pt       5.15482026       4.48306954       0.14740961        4       0.00000000       0.04864524      -0.01665381      -0.11444376
Pt       7.83382791       4.50228452       0.13991729        4       0.00000000       0.00163418       0.01722881      -0.16186927
Ni      10.42356388       4.50088137       0.09421941        4       1.00000000       0.03469807       0.05759645       0.05512413
Ni       3.84401942       6.73511682       0.09488165        4       1.00000000      -0.03004336       0.04347315       0.12920187
Pt       6.49572774       6.79519759       0.20058353        4       0.00000000      -0.00176310       0.03455502       0.00229222
Ni       9.12678534       6.72401181       0.08415448        4       1.00000000       0.05828656       0.04922916       0.08287095
Ni      11.70508209       6.68733447       0.08270967        4       1.00000000       0.07249924      -0.02860598       0.04708233
Ni       1.33858325       0.74382897       2.23798854        3       1.00000000       0.04105810       0.05407994      -0.01724840
Ni       3.86040800       0.74606406       2.24344527        3       1.00000000      -0.06208049      -0.00072021       0.02995245
Ni       6.51427877       0.73312494       2.27410161        3       1.00000000       0.04334322       0.01140853       0.07883565
Pt       9.09945914       0.72515028       2.28479651        3       0.00000000       0.00946452       0.01587690       0.08837610
Ni       2.60811647       2.91917277       2.30034392        3       1.00000000       0.02087451      -0.06132221       0.05557009
Ni       5.18813593       2.93166507       2.25877044        3       1.00000000      -0.05159526      -0.03488831      -0.04699560
Ni       7.79065062       2.92889468       2.26791112        3       1.00000000       0.02211425      -0.05137761      -0.09570710
Ni      10.41551390       2.93242393       2.33019418        3       1.00000000       0.04255416      -0.04506240       0.04942970
Pt       3.87766603       5.20406498       2.25933878        3       0.00000000      -0.01084776      -0.00675536       0.06891445
Ni       6.49953016       5.21144645       2.24892735        3       1.00000000      -0.02605976       0.08625692      -0.01597570
Pt       9.06018507       5.17338160       2.31037990        3       0.00000000      -0.00589654       0.00142660       0.05427915
Pt      11.69701518       5.13641677       2.22730802        3       0.00000000      -0.04297070      -0.06118339       0.04388677
Ni       5.18318988       7.44684234       2.21515812        3       1.00000000      -0.09238683       0.02061041       0.07561773
Ni       7.79755881       7.46816471       2.23155920        3       1.00000000       0.05708835       0.06557110       0.02733197
Pt      10.41881775       7.48622707       2.17860621        3       0.00000000       0.03371483      -0.05567668       0.10287756
Ni      12.98210507       7.42738613       2.21971828        3       1.00000000      -0.02142114      -0.03068318       0.07622208
Ni       0.02862440       1.53087870       4.34177506        2       1.00000000       0.06523602       0.04358568      -0.11265437
Ni       2.61095471       1.52076792       4.35012638        2       1.00000000       0.00154577       0.03709809      -0.17338827
Pt       5.19954090       1.47896502       4.35989096        2       0.00000000      -0.00027127       0.00177201      -0.05274387
Ni       7.79744168       1.46111212       4.39310989        2       1.00000000      -0.05761363      -0.04536372      -0.09187423
Ni       1.31992724       3.66736103       4.35000287        2       1.00000000       0.04284816      -0.05520771      -0.10436185
Ni       3.83461888       3.66879854       4.37364432        2       1.00000000      -0.07404310      -0.00545099      -0.09279501
Pt       6.57411440       3.67609570       4.29745029        2       0.00000000       0.05424878      -0.00757619      -0.15449552
Ni       9.15305963       3.65188810       4.36336400        2       1.00000000       0.09736462      -0.10803812      -0.15493813
Ni       2.58241680       5.92553924       4.40781777        2       1.00000000      -0.01253616      -0.01643578      -0.04439378
Pt       5.18979449       5.92417546       4.37125794        2       0.00000000      -0.00151761       0.03615202      -0.01847486
Ni       7.80923341       5.93089404       4.37754661        2       1.00000000      -0.02834564       0.08445462      -0.08278771
Pt      10.44218944       5.87647858       4.51802049        2       0.00000000      -0.01752752      -0.03493997       0.00378037
Pt       3.81656704       8.16477273       4.36146769        2       0.00000000      -0.07226484       0.01713596       0.07182452
Pt       6.49678087       8.25644643       4.29278367        2       0.00000000      -0.10278130       0.11105589       0.00956523
Pt       9.07515061       8.15503865       4.38836429        2       0.00000000      -0.04668063       0.00152069       0.02543348
Ni      11.69164645       8.15190673       4.38928459        2       1.00000000      -0.06454633       0.01826829      -0.04312334
Pt       0.01962250      -0.04137968       6.64216352        1       0.00000000      -0.06062065       0.01458124       0.20923539
Ni       2.63209808      -0.01843946       6.59086307        1       1.00000000      -0.05508209       0.06776718      -0.04207967
Pt       5.14975338      -0.04417512       6.66024657        1       0.00000000      -0.11200142       0.08275264       0.13838714
Pt       7.74861509      -0.08889809       6.65112400        1       0.00000000      -0.09338186      -0.00026101       0.21169562
Pt       1.37090883       2.20880512       6.45620995        1       0.00000000       0.00740366      -0.00578209      -0.05242710
Ni       3.90241122       2.18670476       6.48839397        1       1.00000000      -0.06065487       0.01632281      -0.17345674
Ni       6.50107849       2.18451249       6.50831923        1       1.00000000       0.02385811      -0.02766005      -0.15978015
Pt       9.10423999       2.21361342       6.45580257        1       0.00000000       0.00547256      -0.06480363      -0.11740743
Pt       2.55880796       4.51382222       6.54438546        1       0.00000000      -0.02057024       0.06752768       0.02677886
Pt       5.17737585       4.36408978       6.50233865        1       0.00000000       0.01356193      -0.07403490      -0.00265518
Pt       7.88198950       4.46462153       6.47966507        1       0.00000000       0.06777474       0.03299465      -0.05971370
Ni      10.41671740       4.45307300       6.58667965        1       1.00000000       0.02945385      -0.06708549      -0.01466290
Ni       3.87672676       6.66597928       6.56871553        1       1.00000000       0.00334156      -0.00265269      -0.01734044
Pt       6.56752387       6.69676274       6.52796612        1       0.00000000       0.07860315       0.01894130       0.04830164
Ni       9.14113392       6.66011074       6.59292314        1       1.00000000       0.04037868       0.00699861       0.00884591
Ni      11.68151401       6.64803133       6.59355653        1       1.00000000      -0.07350056       0.06775087      -0.00250051
