64
Lattice="10.22285673420216 -0.023374216952657904 0.015947295114871814 5.0911857014265065 8.84475774490938 -0.018221501352081268 0.0 0.0 21.62396958403516" Properties=species:S:1:pos:R:3:tags:I:1:initial_magmoms:R:1:forces:R:3 unique_id=0d0c803c634b4c22a7d363b8ecb121f8 energy=-371.71754334116554 stress="0.0039749033502691055 -0.00017930611856844608 0.0001773909222841777 -0.00017930611856844608 0.003930513597564437 -0.00038381545268770945 0.0001773909222841777 -0.00038381545268770945 -0.0027343015147643594" pbc="T T T"
Ni       0.05506786       0.04222335       0.18501390        2       1.00000000       0.18028031       0.08948336      -0.59011354
Ni       2.57544184       0.02829235       0.23831991        2       1.00000000       0.00335827      -0.01768762      -0.24370117
Ni       5.06052519      -0.02598693       0.10891219        1       1.00000000      -0.02237682       0.08915338       0.20059078
Pt       7.67883886      -0.06160009       0.02267252        0       0.00000000      -0.07189820       0.14523424      -0.53737457
Ni       1.27887202       2.22038259       0.13357772        1       1.00000000       0.05208899       0.04738625       0.40105605
Ni       3.78337787       2.20844540       0.22345294        2       1.00000000       0.00758848       0.04977374      -0.06389623
Pt       6.35369521       2.28795872       0.19621140        2       0.00000000      -0.01504035       0.03924202      -0.96182853
Ni       8.99415479       2.24846601       0.10550186        1       1.00000000      -0.04504143       0.04338198       0.16525510
Ni       2.55752917       4.39249569       0.08743768        1       1.00000000       0.01407107      -0.14234509       0.24764323
Ni       5.04339641       4.41848879       0.09936377        1       1.00000000      -0.14398321       0.00456659       0.16825378
Ni       7.72627654       4.40395539       0.09913215        1       1.00000000       0.18320686       0.01461388       0.08654630
Ni      10.20364467       4.37606495       0.09446299        1       1.00000000      -0.01622189       0.00464882       0.20151071
Ni       3.80750926       6.56792372       0.06024804        1       1.00000000      -0.04252915      -0.10295494       0.04359621
Pt       6.42078718       6.61848522       0.00000000        0       0.00000000       0.18172146       0.09976349      -0.44379810
Ni       8.94533604       6.59933225       0.16323280        2       1.00000000      -0.05699502      -0.13812963      -0.16695923
Ni      11.46438601       6.56763899       0.06547048        1       1.00000000      -0.04328068      -0.07346737       0.09180013
Ni       1.33899303       0.77984445       2.19377574        3       1.00000000       0.04632848       0.10068213       0.04724678
Ni       3.78670802       0.74671816       2.21117714        3       1.00000000      -0.00402960      -0.01440912       0.09753693
Pt       6.30040894       0.75895451       2.30812372        4       0.00000000      -0.07933193       0.06125826       0.18204865
Pt       9.02038041       0.81718486       2.22034967        3       0.00000000      -0.02483825      -0.02057820       0.03958213
Ni       2.57015582       2.92020450       2.19274946        3       1.00000000      -0.06779130       0.01854023       0.03814015
Ni       5.01582311       2.95738484       2.26407953        4       1.00000000      -0.14846076       0.01298946       0.23085768
Ni       7.72332610       2.97429473       2.24045254        3       1.00000000       0.13596438       0.03152502       0.14134309
Ni      10.22852213       2.93566414       2.22227640        3       1.00000000       0.05091574      -0.02920214       0.06722523
Ni       3.82777125       5.07785058       2.22507484        3       1.00000000      -0.01726579      -0.10059102       0.06126887
Pt       6.41659612       5.09542865       2.21413180        3       0.00000000       0.02386111      -0.12653622       0.01533225
Ni       8.93000145       5.09337415       2.23537286        3       1.00000000       0.02204147      -0.10550199       0.08501059
Pt      11.47344025       5.03806511       2.18520850        3       0.00000000      -0.01963649      -0.07717612      -0.03253966
Pt       5.12914012       7.34771940       2.19098022        3       0.00000000       0.00123010      -0.05385445      -0.05139029
Ni       7.66349954       7.37718894       2.21931238        3       1.00000000      -0.04351748      -0.02188289       0.13318642
Pt      10.10458091       7.32958994       2.25130377        4       0.00000000      -0.10431051      -0.07193260       0.10398845
Pt      12.74631605       7.28366387       2.23883788        3       0.00000000      -0.01097333      -0.03490561       0.05203588
Ni       0.01826164       1.49554342       4.41014426        6       1.00000000       0.10285454      -0.04485970      -0.09166915
Pt       2.59973269       1.47892783       4.30240542        5       0.00000000       0.06054649       0.00316367      -0.01982232
Ni       5.09579313       1.42984212       4.41139995        6       1.00000000      -0.03490733       0.00778830      -0.01082170
Pt       7.72174610       1.47585004       4.41662886        6       0.00000000       0.09872188       0.07208865       0.10251704
Pt       1.24463218       3.71301913       4.44892720        6       0.00000000      -0.01849087      -0.00431444       0.03559896
Ni       3.82954522       3.72594563       4.37571050        6       1.00000000      -0.06675735       0.05041247      -0.10456788
Pt       6.35911301       3.72023144       4.40511242        6       0.00000000      -0.04492313       0.07330848      -0.03345266
Ni       8.95094740       3.70299658       4.41342883        6       1.00000000      -0.01852956       0.15904137      -0.06725183
Ni       2.53949919       5.85513556       4.43625563        6       1.00000000      -0.10707839      -0.07223619      -0.04904727
Ni       5.06128065       5.84343492       4.42854220        6       1.00000000      -0.06129442      -0.05739617      -0.14357005
Ni       7.71707003       5.85566765       4.38759880        6       1.00000000       0.20133015      -0.03479496      -0.21392659
Ni      10.21134411       5.87772693       4.40292776        6       1.00000000      -0.02386346      -0.01219480      -0.11258023
Pt       3.78180651       8.00905539       4.43243017        6       0.00000000       0.01673023      -0.02169658      -0.00707079
Pt       6.43411408       8.02837455       4.36092614        6       0.00000000       0.12829799      -0.02342817      -0.06227702
Ni       8.98102496       8.06763826       4.39160761        6       1.00000000       0.00583382       0.02360327      -0.03659449
Ni      11.42807384       8.04173608       4.44945678        6       1.00000000      -0.10759739      -0.04832067      -0.01577125
Pt      -0.04799726       0.01880505       6.61498549        9       0.00000000      -0.09328216       0.01406422       0.34005472
Pt       2.59378644      -0.03249558       6.62396958        9       0.00000000       0.04046182      -0.09417018       0.21450678
Ni       5.16063644      -0.06100067       6.52539336        8       1.00000000       0.00635439       0.03335390      -0.14663187
Ni       7.62584236      -0.07961856       6.46092135        8       1.00000000      -0.07241147      -0.04695851       0.60633197
Ni       1.24240799       2.24174533       6.55621901        9       1.00000000       0.00491313      -0.03827191      -0.11094116
Pt       3.81134248       2.29116326       6.58357985        9       0.00000000       0.13302737       0.20449653       0.06794240
Pt       6.42211117       2.18665328       6.54085692        8       0.00000000      -0.13809457       0.02262976       1.11762424
Ni       8.98336103       2.23576725       6.55393093        9       1.00000000       0.02937893       0.12433919      -0.10441370
Ni       2.54258917       4.46923324       6.53737510        8       1.00000000       0.00425296       0.10260925      -0.21066441
Ni       5.09281130       4.47840259       6.53600065        8       1.00000000      -0.06321021      -0.02746433      -0.15394400
Ni       7.68244254       4.40317141       6.53985691        8       1.00000000       0.05153354      -0.05159781      -0.17610052
Ni      10.22935705       4.36933431       6.55546783        9       1.00000000      -0.02028949       0.05467110      -0.14777018
Ni       3.80026885       6.55773368       6.52666175        8       1.00000000       0.00193616       0.00834920      -0.17530793
Ni       6.35413609       6.54819251       6.42078979        7       1.00000000       0.05648013      -0.04408541       0.33411201
Pt       8.99401111       6.53364069       6.52583291        8       0.00000000      -0.03465301       0.01039652      -0.09038230
Ni      11.52866950       6.59195653       6.51294024        8       1.00000000       0.03759476      -0.06361392      -0.34356290
