64
Lattice="10.340225316200206 0.0030423447837271884 -0.03290633219385423 5.1727474059698855 8.834216319351755 -0.10023637436407633 0.0 0.0 21.578389402407456" Properties=species:S:1:pos:R:3:tags:I:1:initial_magmoms:R:1:forces:R:3 unique_id=ef88a6f29b7d4461853715a8a055abad stress="0.005813888006984221 0.00011748284679459253 -6.380418842695172e-05 0.00011748284679459253 0.004542443892092464 -6.48528057817316e-05 -6.380418842695172e-05 -6.48528057817316e-05 -0.0017779632142521477" energy=-375.18536741975777 pbc="T T T"
Ni       0.01329822      -0.06509504       0.20675887        2       1.00000000       0.08605425      -0.02858660      -0.07819032
Ni       2.54858428      -0.05367040       0.21312260        2       1.00000000      -0.00259461      -0.04042172       0.00358572
Pt       5.16886469      -0.06899521       0.14803600        1       0.00000000      -0.06418669      -0.00009275      -0.89171601
Ni       7.76960756      -0.05720623       0.17247548        2       1.00000000      -0.05554667      -0.08759794      -0.20061789
Pt       1.28003528       2.20565973       0.10724168        1       0.00000000      -0.07041943      -0.07881877       0.09758063
Pt       3.84550414       2.22204965       0.18322023        2       0.00000000       0.04057337       0.00634362      -0.51999194
Pt       6.48839399       2.21656117       0.08752827        1       0.00000000      -0.03210141      -0.04744964      -0.25165078
Pt       9.05682553       2.25122626       0.10368771        1       0.00000000       0.08479253       0.08545410      -0.53846869
Ni       2.56178993       4.46159954       0.02900088        0       1.00000000       0.03177506       0.04005840       0.16458318
Pt       5.20151010       4.52371753       0.00063547        0       0.00000000       0.08390579       0.11636617      -0.19777901
Ni       7.76271063       4.47002071       0.03088978        0       1.00000000      -0.02938519       0.09300372       0.12555931
Ni      10.34264939       4.46227290       0.00845835        0       1.00000000      -0.01667637       0.05016658       0.19181374
Ni       3.85834944       6.66434003       0.03640071        0       1.00000000       0.01153025       0.12955912       0.31336371
Ni       6.48033789       6.66530449       0.05674210        1       1.00000000       0.02248217       0.09965765       0.37645991
Ni       9.01350981       6.59329996       0.08859607        1       1.00000000      -0.11201010       0.05345301      -0.09798064
Ni      11.66504292       6.59018545       0.00000000        0       1.00000000       0.05864322       0.02801495       0.28584438
Ni       1.31052369       0.70377249       2.26269527        5       1.00000000       0.03152277       0.01228372       0.30563369
Ni       3.80886822       0.72707744       2.23910501        4       1.00000000      -0.24333559      -0.03304969       0.13153888
Ni       6.48274460       0.73547225       2.23968185        4       1.00000000       0.09922728       0.02680149       0.17487522
Pt       9.05792953       0.71638003       2.22696811        4       0.00000000       0.11132767       0.11045011      -0.05236706
Ni       2.56350990       2.88325468       2.29026811        5       1.00000000      -0.01827812      -0.17034011       0.37717221
Ni       5.17959475       2.92509221       2.22515019        4       1.00000000       0.03179149       0.04802875       0.14336051
Ni       7.73126927       2.92528490       2.23306465        4       1.00000000      -0.03124238      -0.09556866       0.16544357
Ni      10.35663826       2.90614419       2.25398166        5       1.00000000       0.06196077      -0.14002835       0.37538617
Pt       3.88493152       5.14139310       2.20095292        4       0.00000000      -0.00041674      -0.02272346      -0.00837070
Ni       6.46918903       5.15925344       2.16512626        4       1.00000000      -0.05145245       0.04301637       0.07663499
Pt       8.97085363       5.09361863       2.17917201        4       0.00000000      -0.01023718      -0.10627935       0.06817895
Pt      11.63519110       5.07560027       2.17478711        4       0.00000000      -0.00638317      -0.24715652       0.09917130
Ni       5.21628825       7.34421436       2.12441448        3       1.00000000       0.08598839      -0.04698968       0.05535812
Ni       7.68284591       7.35964407       2.11790968        3       1.00000000      -0.14233357      -0.00091643       0.08068356
Pt      10.36520316       7.34179330       2.18577456        4       0.00000000       0.03791491       0.01969194      -0.02164292
Ni      12.92132765       7.35215666       2.10235967        3       1.00000000       0.00946521      -0.02302896       0.02772894
Ni       0.04084742       1.47179213       4.36150839        8       1.00000000       0.14334696       0.02655643      -0.22102961
Ni       2.50990559       1.46970093       4.32943496        7       1.00000000      -0.09256508       0.04221828      -0.24671937
Pt       5.16731088       1.44514070       4.26059919        7       0.00000000      -0.08590292      -0.07168551      -0.14269998
Ni       7.74794212       1.44177531       4.33527498        7       1.00000000       0.02080302      -0.07587897      -0.26805578
Ni       1.27834956       3.63239380       4.38659940        8       1.00000000       0.01179638      -0.02397313      -0.05366166
Ni       3.80202407       3.66734438       4.32966433        7       1.00000000      -0.16019422       0.03022574      -0.22906758
Pt       6.53272400       3.65278241       4.33305759        7       0.00000000       0.10801234      -0.03068818      -0.11880049
Ni       9.08497746       3.66718868       4.31136179        7       1.00000000       0.20847000       0.02452312      -0.17597503
Ni       2.53521002       5.81888293       4.39072587        8       1.00000000      -0.04964055      -0.09877541       0.00896105
Pt       5.18581248       5.86520963       4.37660322        8       0.00000000       0.10108614       0.05119479      -0.00830244
Ni       7.74539292       5.83772371       4.31976063        7       1.00000000       0.00416491      -0.00423058      -0.12759121
Ni      10.36388147       5.80374668       4.34889991        7       1.00000000       0.07855443      -0.05418699      -0.00904710
Pt       3.83902636       8.05248880       4.26026990        7       0.00000000      -0.04937101       0.03671162      -0.02205276
Ni       6.44642606       8.08076668       4.24671361        6       1.00000000      -0.13240755       0.16067744      -0.32552077
Pt       8.95385879       8.02331592       4.22534948        6       0.00000000      -0.19246589       0.05962250      -0.04093221
Ni      11.64107007       8.01561984       4.26523580        7       1.00000000       0.02116403      -0.11713216      -0.11733561
Pt      -0.00807644      -0.09402993       6.57838940       11       0.00000000       0.02065179       0.13710627       0.14518756
Pt       2.54227298      -0.05280504       6.56239245       11       0.00000000       0.01460908       0.15255340       0.23656200
Pt       5.17553924      -0.07276625       6.47046663       10       0.00000000       0.03945138      -0.00161152       0.90113682
Pt       7.73177179      -0.09794669       6.55522229       11       0.00000000      -0.09392873       0.13977293       0.27974126
Ni       1.26958548       2.21279422       6.42076694        9       1.00000000       0.01944839       0.09674142      -0.07508658
Pt       3.82896759       2.27470258       6.43929155        9       0.00000000      -0.09401210       0.11242150       0.40164674
Ni       6.45342347       2.19529147       6.44072793        9       1.00000000       0.00556165       0.00430748       0.15890398
Pt       9.04434938       2.25119612       6.37611125        9       0.00000000       0.01717568      -0.08480463       0.45476744
Ni       2.53375984       4.40891796       6.46230217       10       1.00000000       0.00179453      -0.01761765      -0.39149486
Ni       5.16223345       4.39349272       6.41083060        9       1.00000000      -0.05161405      -0.04419119       0.25804151
Ni       7.70606649       4.36618954       6.48231242       10       1.00000000      -0.06335181      -0.03633509      -0.13596129
Ni      10.38438363       4.36547742       6.44093069        9       1.00000000       0.14235084      -0.06054679      -0.34770256
Ni       3.84196545       6.50632516       6.48640893       10       1.00000000      -0.06474596      -0.10834074      -0.20242264
Ni       6.44045303       6.52176482       6.48042042       10       1.00000000       0.08023635       0.00033164      -0.11882470
Pt       9.03464042       6.43919761       6.47540445       10       0.00000000       0.09478384      -0.07378288       0.06177827
Ni      11.64748782       6.50017877       6.42815197        9       1.00000000      -0.00561734       0.03551578      -0.30962307
