64
Lattice="10.236709949021655 -0.007816328971076477 -0.03996392335896578 5.111585835057538 8.840262955254365 -0.08248118298128856 0.0 0.0 21.640512777712495" Properties=species:S:1:pos:R:3:tags:I:1:initial_magmoms:R:1:forces:R:3 unique_id=b2dadac773ec4f9a89ad66c6459e3340 stress="0.004769671884747233 -8.527514912552917e-05 -0.0002332864126127883 -8.527514912552917e-05 0.0049029939708374925 -0.00043836857624763377 -0.0002332864126127883 -0.00043836857624763377 -0.002200667855054874" energy=-372.87472938793593 pbc="T T T"
Ni      -0.00097291       0.01096724       0.24453239        2       1.00000000       0.10155780       0.01644469      -0.36921680
Ni       2.55398836      -0.00779923       0.25683652        3       1.00000000      -0.00954823       0.01507363      -0.24227340
Ni       5.11640390      -0.03422742       0.11328728        1       1.00000000       0.00507376       0.09520245       0.12256363
Ni       7.67950883      -0.03800919       0.08510807        1       1.00000000      -0.03194161       0.04886460       0.06284289
Ni       1.23762705       2.20984589       0.23039865        2       1.00000000      -0.06225290       0.04809551       0.00091853
Pt       3.77713596       2.20180977       0.13268911        1       0.00000000      -0.02336989      -0.00680914      -0.05419371
Pt       6.44235917       2.19202482       0.20427583        2       0.00000000       0.01099954      -0.01356506      -0.56058953
Ni       8.98616823       2.22729704       0.15560429        2       1.00000000       0.02482966       0.15763804      -0.10135230
Ni       2.54194261       4.43406054       0.09128586        1       1.00000000      -0.02687752      -0.01541502       0.24761235
Ni       5.07770746       4.41869963       0.17356517        2       1.00000000      -0.14593541      -0.05570367      -0.37689057
Ni       7.72524824       4.40749204       0.07985438        1       1.00000000       0.14663153      -0.04192807       0.15587617
Ni      10.21749802       4.39572279       0.06389283        1       1.00000000      -0.06222735      -0.05380563       0.30407892
Ni       3.81392781       6.61331888       0.06151546        1       1.00000000       0.08641923      -0.10973064       0.08511003
Pt       6.38842310       6.65397245       0.03800839        0       0.00000000      -0.01000915       0.11848337      -0.35057523
Ni       8.95340886       6.59843355       0.12203498        1       1.00000000      -0.13696335      -0.18130304      -0.32888222
Ni      11.50833755       6.60717028       0.00000000        0       1.00000000      -0.07591128      -0.13428906       0.08822078
Ni       1.29028546       0.74455921       2.20711592        5       1.00000000       0.04211916       0.08282041       0.04698466
Ni       3.82688779       0.74160151       2.23336399        5       1.00000000       0.07827200       0.01776887       0.14865935
Ni       6.36671428       0.74223844       2.27397659        6       1.00000000      -0.04348446       0.06788219       0.26959170
Pt       8.97275441       0.79169008       2.20332710        5       0.00000000      -0.07309980      -0.02689676       0.12706109
Ni       2.55140429       2.92572468       2.23274586        5       1.00000000       0.04314203       0.02326740       0.06644495
Ni       5.06746318       2.90775007       2.25186359        6       1.00000000      -0.16478419      -0.07688096       0.24426585
Ni       7.71719290       2.94565808       2.22974795        5       1.00000000       0.17387995       0.08484105       0.18287942
Ni      10.22493983       2.92890194       2.20560565        5       1.00000000       0.04001238      -0.00291037       0.22211499
Ni       3.82141013       5.09510603       2.18127328        5       1.00000000      -0.01879763      -0.16019620      -0.04707011
Pt       6.42247556       5.12178285       2.17415066        5       0.00000000       0.06984859      -0.04486879      -0.00732914
Ni       8.94568811       5.09668200       2.19093933        5       1.00000000       0.07333367      -0.10945145       0.13797250
Pt      11.49400009       5.04396497       2.18708061        5       0.00000000      -0.00097915      -0.02160250       0.06052288
Ni       5.11328692       7.35912296       2.15759300        5       1.00000000      -0.01085447      -0.04065277       0.05122209
Ni       7.65841756       7.37283814       2.15847360        5       1.00000000       0.00993190       0.02523487       0.12850345
Pt      10.19015521       7.36401208       2.10651021        4       0.00000000      -0.03306932      -0.02100538       0.06280126
Pt      12.80227581       7.32629120       2.09738097        4       0.00000000       0.07158488      -0.03542611      -0.00057644
Ni      -0.02895244       1.51049196       4.38037953        8       1.00000000       0.02928354       0.18981877      -0.12562383
Pt       2.56117197       1.54137663       4.30049583        7       0.00000000      -0.04943111       0.07627851      -0.04206479
Ni       5.11793476       1.42789006       4.33585017        7       1.00000000       0.03013594       0.01210763      -0.28659549
Ni       7.65336628       1.43183977       4.33935840        7       1.00000000       0.00229439       0.04893938      -0.18484245
Ni       1.23667454       3.70329235       4.38435105        8       1.00000000      -0.07035160       0.00645052      -0.06208798
Ni       3.78766580       3.66659918       4.35508943        8       1.00000000      -0.03862817       0.06082103      -0.19655599
Pt       6.42959468       3.59875347       4.30809938        7       0.00000000       0.04932965       0.00183372       0.04693015
Ni       8.98400957       3.67340819       4.32743371        7       1.00000000       0.14761394       0.06017544      -0.16569031
Ni       2.47817943       5.82808725       4.41151397        8       1.00000000      -0.14115910      -0.05136685      -0.03975670
Pt       5.02665956       5.83923236       4.33086145        7       0.00000000      -0.08818956      -0.00329166      -0.11262420
Ni       7.70887165       5.82017065       4.34131141        7       1.00000000       0.13644142      -0.06392678      -0.16406227
Ni      10.24738044       5.80768865       4.34699797        7       1.00000000       0.01404658      -0.03372451      -0.11686339
Pt       3.71589191       8.10080309       4.36979339        8       0.00000000      -0.03031024       0.06837067       0.12082569
Pt       6.38269706       8.07902288       4.25121570        7       0.00000000      -0.02150899       0.09934462      -0.11179823
Pt       9.01226858       8.05631566       4.29985195        7       0.00000000      -0.00933604      -0.01354954      -0.05374188
Ni      11.48835587       8.07072325       4.35423083        8       1.00000000      -0.06587892      -0.02168180      -0.06639735
Pt      -0.06452370      -0.09452200       6.64051278       11       0.00000000       0.09284667       0.20283336       0.38894191
Pt       2.60239215      -0.02895380       6.63236511       11       0.00000000       0.04510231      -0.03333156       0.38125628
Ni       5.14553663      -0.07834266       6.53546412       10       1.00000000       0.04447895      -0.17346723      -0.05885770
Ni       7.60013683      -0.09721389       6.53315301       10       1.00000000      -0.05539872       0.02134861       0.00470742
Pt       1.29190099       2.28222800       6.56551906       11       0.00000000      -0.08618330      -0.11480699       0.06883159
Ni       3.82752041       2.18749120       6.45034407       10       1.00000000       0.06393569       0.07228644       0.12257160
Pt       6.33377796       2.08370015       6.46383379       10       0.00000000      -0.06709402      -0.01124722       0.63429451
Pt       8.91721672       2.23019579       6.48870885       10       0.00000000       0.01485501      -0.03022767       0.02790102
Ni       2.50915799       4.44676613       6.48942735       10       1.00000000       0.01797204       0.13643037      -0.27651971
Pt       5.03491920       4.40496699       6.56243281       11       0.00000000      -0.09808077      -0.15429474       0.32115720
Ni       7.65481721       4.39551518       6.48951640       10       1.00000000      -0.11846263      -0.03030788      -0.10707021
Ni      10.24385878       4.41138685       6.45801909       10       1.00000000       0.13024485       0.01613567      -0.26525785
Ni       3.74212840       6.57921025       6.50377719       10       1.00000000      -0.07872946      -0.04531384      -0.09652820
Ni       6.38098956       6.56553112       6.40607257        9       1.00000000       0.15170733       0.00271936       0.25471035
Pt       8.98938785       6.50285703       6.49950340       10       0.00000000       0.00516563       0.04372705       0.11340521
Ni      11.52726203       6.58035986       6.43907615        9       1.00000000      -0.00424165       0.01174067      -0.32989245
