64
Lattice="10.429267778215943 0.04387163627060463 0.00862314729953551 5.252627840623906 9.102254242732544 0.009556875284399765 0.0 0.0 21.766742728454965" Properties=species:S:1:pos:R:3:tags:I:1:initial_magmoms:R:1:forces:R:3 unique_id=eb8fd5633e854a368c65498e5664fa64 energy=-382.28725267947425 stress="0.0054889108617466025 0.00011817243906564026 7.96732675146913e-05 0.00011817243906564026 0.005628746714415283 -4.160347172728104e-05 7.96732675146913e-05 -4.160347172728104e-05 -0.0015839250968952712" pbc="T T T"
Ni      -0.00605486       0.01202763       0.16166811        2       1.00000000      -0.14824265      -0.02682280      -0.14987508
Ni       2.61588986      -0.01050473       0.16422602        2       1.00000000       0.08816746      -0.15954376      -0.14165937
Ni       5.22477263       0.00467839       0.14252334        1       1.00000000       0.07741523       0.05488606      -0.23979157
Ni       7.82972560       0.05127799       0.08025399        1       1.00000000       0.04906819       0.11784186       0.33364040
Ni       1.30401490       2.25091357       0.05469523        1       1.00000000       0.01606206      -0.03873467       0.21327967
Ni       3.92042241       2.26778993       0.14800619        1       1.00000000       0.05914317      -0.00292818      -0.25287861
Pt       6.50129026       2.23755210       0.14244903        1       0.00000000      -0.06811615      -0.07630469      -0.23358117
Ni       9.15466240       2.27560439       0.07646115        1       1.00000000      -0.08936832      -0.13638564       0.35080051
Pt       2.60905372       4.52168249       0.00000000        0       0.00000000       0.08697366       0.04963778      -0.50180443
Ni       5.25292174       4.55171046       0.15730530        2       1.00000000       0.10546281      -0.10102083      -0.10304417
Pt       7.84735984       4.61418004       0.05478876        1       0.00000000      -0.12286296      -0.03716432       0.09837066
Ni      10.44272047       4.59008065       0.13414254        1       1.00000000      -0.08558508       0.06080802      -0.14990834
Pt       4.00021698       6.88784842       0.12844037        1       0.00000000       0.16072868       0.08680608      -0.96346187
Ni       6.57339333       6.86659265       0.19566363        2       1.00000000       0.12187655       0.09305607       0.18101633
Ni       9.15275987       6.86737921       0.07911896        1       1.00000000      -0.08041415       0.02810927       0.42593826
Ni      11.73843824       6.88196501       0.06365091        1       1.00000000       0.04865544       0.02837735       0.19543766
Pt       1.26827023       0.68304514       2.16584279        3       0.00000000      -0.03628210       0.03553622       0.10421857
Pt       3.97764149       0.78668633       2.20836558        3       0.00000000       0.09193396       0.00712489       0.25984534
Ni       6.53029317       0.80556522       2.28248919        4       1.00000000       0.02991424       0.09189298       0.19301631
Ni       9.11073551       0.80022884       2.22866363        3       1.00000000      -0.09154917       0.07765547      -0.06180446
Pt       2.64076687       3.01563377       2.22140563        3       0.00000000      -0.08338242       0.00152692       0.10166496
Ni       5.25551390       3.03541322       2.27668981        4       1.00000000       0.05564928      -0.01000213       0.22839206
Pt       7.76830913       3.02495291       2.37232340        5       0.00000000      -0.04630966       0.05432729       0.16832313
Pt      10.39163009       3.03401387       2.19019225        3       0.00000000      -0.13394212       0.00504214      -0.01407606
Pt       4.03987873       5.30522549       2.24360788        3       0.00000000       0.04236405      -0.03539073       0.09474920
Ni       6.55639851       5.34380319       2.25601796        4       1.00000000       0.02194192      -0.00226074       0.05695814
Pt       9.06558007       5.37314162       2.32979184        4       0.00000000      -0.07115691      -0.05384537       0.22857540
Pt      11.74282852       5.37237477       2.23816295        3       0.00000000       0.02259820       0.03164988       0.13605531
Ni       5.28979722       7.58540919       2.23968481        3       1.00000000       0.08416389      -0.07762426       0.13755199
Ni       7.82146379       7.57837139       2.23415249        3       1.00000000      -0.06108098      -0.07755555       0.02846270
Pt      10.43573854       7.62325600       2.19254757        3       0.00000000      -0.12162821      -0.00377947       0.00216690
Pt      13.08831248       7.73367701       2.23148694        3       0.00000000      -0.01999508       0.10313006      -0.03611966
Pt      -0.08230434       1.58373315       4.49734171        7       0.00000000      -0.08646195       0.10963541      -0.07519715
Pt       2.62853319       1.51326497       4.47604536        7       0.00000000      -0.00989050      -0.09302596      -0.05237905
Ni       5.26947774       1.55168611       4.45404508        7       1.00000000       0.05195540       0.02526694      -0.30616487
Ni       7.81046973       1.58355946       4.46225719        7       1.00000000      -0.05935282       0.05933847      -0.17664852
Pt       1.25837714       3.80932711       4.51993302        7       0.00000000      -0.06280910      -0.00987726      -0.18079039
Pt       4.01655710       3.76378302       4.45278343        7       0.00000000       0.12446722      -0.04951103      -0.10577420
Ni       6.59489706       3.79755954       4.47260161        7       1.00000000       0.09449682       0.02467538      -0.15263420
Ni       9.08214714       3.85367240       4.51332368        7       1.00000000      -0.17215460       0.03852121      -0.09872055
Pt       2.56969749       6.06549902       4.50818041        7       0.00000000      -0.01164562       0.03240204      -0.18554670
Pt       5.34691945       6.03413022       4.41107220        6       0.00000000       0.17650819      -0.13738383      -0.13751567
Ni       7.89289173       6.02974681       4.49461721        7       1.00000000       0.10202976      -0.15078079       0.00893674
Ni      10.40858535       6.08670065       4.51729213        7       1.00000000      -0.11328407      -0.06100832      -0.10221093
Pt       3.93476133       8.39985474       4.44219512        6       0.00000000       0.04710952       0.04357504      -0.18057005
Pt       6.57394332       8.31138069       4.41790086        6       0.00000000       0.01958245       0.01841309      -0.14124357
Pt       9.17436136       8.27788723       4.48367276        7       0.00000000      -0.02194430      -0.10329404      -0.10189083
Pt      11.76498852       8.44576288       4.49272775        7       0.00000000      -0.01589316       0.09639329      -0.04040203
Pt      -0.05249376       0.08486627       6.75675710       10       0.00000000       0.02624001      -0.08886585       0.13159385
Pt       2.60716526       0.00583878       6.76674273       10       0.00000000      -0.00283626       0.02553648       0.31182459
Pt       5.26728650      -0.03676687       6.74616193        9       0.00000000      -0.03058437       0.23305239       0.16179213
Ni       7.82495582       0.04659547       6.68699219        9       1.00000000       0.02106026       0.03245734      -0.21865272
Ni       1.29325442       2.30875204       6.70067642        9       1.00000000      -0.03030754       0.01703665      -0.13780481
Pt       3.88538030       2.31405514       6.73902159        9       0.00000000       0.24053342      -0.08384512       0.27895700
Pt       6.63068979       2.29134305       6.56829954        8       0.00000000      -0.15605498      -0.01772908       0.29950004
Ni       9.13894009       2.34161751       6.68070815        9       1.00000000       0.00451219       0.14102110      -0.25378901
Ni       2.59720378       4.55200787       6.60183034        8       1.00000000       0.01831086      -0.01669454       0.27531952
Pt       5.26468470       4.55808793       6.71992953        9       0.00000000       0.10140869      -0.03205959       0.23247519
Ni       7.87523563       4.56623809       6.57923830        8       1.00000000      -0.04136771      -0.02481029      -0.03607897
Pt      10.40070354       4.61146536       6.70867372        9       0.00000000      -0.14098185       0.02661392      -0.11245542
Pt       3.87048609       6.84752984       6.65075233        9       0.00000000       0.17621241      -0.04262796       0.82087140
Pt       6.63326109       6.79655784       6.72432360        9       0.00000000      -0.09338957       0.00561296       0.01537647
Ni       9.18350207       6.82323125       6.68364727        9       1.00000000       0.02768020      -0.00852657      -0.20546203
Ni      11.73568043       6.84418197       6.69559430        9       1.00000000      -0.08535177      -0.09755669      -0.22517398
