64
Lattice="10.169971937138703 0.014068202083638027 -0.012162444472059865 5.097169388959353 8.791899205238547 -0.027172551167622794 -0.009930594327160137 -0.01988509561568714 8.707800669951789" Properties=species:S:1:pos:R:3:tags:I:1:initial_magmoms:R:1:forces:R:3 unique_id=3577aa36abfb4f2eadfda98a5dabc6b7 stress="9.067173490422131e-05 -4.068929882166631e-06 1.530396897492518e-05 -4.068929882166631e-06 9.934392435839712e-05 1.1898160698280912e-05 1.530396897492518e-05 1.1898160698280912e-05 0.00010155024687068248" energy=-392.703036671307 pbc="T T T"
Ni       0.00542917       0.02658523       0.18394627        4       1.00000000       0.04509798       0.10852604       0.30820356
Ni       2.53916385       0.00484368       0.19831443        4       1.00000000       0.00521715       0.01265123       0.29211925
Ni       5.08594490      -0.02257184       0.07540110        4       1.00000000      -0.01552647      -0.02462540       0.09704467
Ni       7.62833931      -0.00708992       0.14114189        4       1.00000000       0.04645719       0.01168895       0.25853385
Ni       1.23308509       2.20771086       0.10482028        4       1.00000000      -0.09573765       0.05546330       0.16930721
Pt       3.75506057       2.20682519       0.17452715        4       0.00000000      -0.10593738      -0.00967515       0.28253968
Pt       6.41025238       2.21193946       0.08023699        4       0.00000000       0.05838946       0.04932628      -0.02685966
Ni       8.94250367       2.24446619       0.13014009        4       1.00000000       0.09672663       0.09939697       0.20044009
Ni       2.53207638       4.42015826       0.05087027        4       1.00000000      -0.07537897       0.02827021       0.01132698
Ni       5.06003965       4.41338049       0.06117294        4       1.00000000      -0.08559146      -0.00647888       0.10191228
Ni       7.68592606       4.40012976       0.06574011        4       1.00000000       0.15675821       0.01280263       0.13357307
Ni      10.16601950       4.39240113       0.05276921        4       1.00000000      -0.02477121      -0.03222881       0.02828417
Ni       3.80735179       6.57344646       0.04407040        4       1.00000000      -0.00357273      -0.08574900      -0.00544783
Pt       6.35932835       6.62291597       0.01254455        4       0.00000000      -0.02866387      -0.02568322      -0.29564477
Ni       8.91890288       6.58240384       0.11977374        4       1.00000000      -0.02688216      -0.09611759       0.17849974
Ni      11.44153123       6.59052463       0.01350548        4       1.00000000      -0.09836968      -0.08632469      -0.07730255
Ni       1.31007960       0.76677665       2.17116537        3       1.00000000       0.03010286       0.16081108       0.06365659
Ni       3.76825956       0.73675122       2.20640206        3       1.00000000      -0.11929103      -0.00166044       0.06044115
Ni       6.34252149       0.76290596       2.18369639        3       1.00000000       0.04628066       0.02534138      -0.02551593
Pt       8.93290020       0.81807291       2.17578735        3       0.00000000      -0.02467787       0.01644604       0.13137855
Ni       2.52973372       2.89846502       2.24383107        3       1.00000000      -0.00046143      -0.06273140       0.17389097
Ni       5.06628757       2.93512481       2.20489841        3       1.00000000      -0.06327812       0.00845107       0.00705799
Ni       7.66055775       2.95647682       2.19424437        3       1.00000000       0.05887077       0.06649718       0.10357369
Ni      10.17878521       2.93792261       2.17888916        3       1.00000000       0.04421522      -0.00332856       0.12605350
Ni       3.82866170       5.07605153       2.17417378        3       1.00000000      -0.02403808      -0.13768265       0.02784180
Pt       6.36541191       5.12509026       2.17888090        3       0.00000000      -0.01581086       0.14024161      -0.13653762
Ni       8.89588357       5.09350144       2.17128399        3       1.00000000       0.01488828      -0.07116073       0.06266418
Pt      11.43498348       5.04263442       2.17801789        3       0.00000000       0.00490835      -0.09648105       0.01050442
Ni       5.10771938       7.32597502       2.15112572        3       1.00000000      -0.01962552      -0.02663725      -0.07069635
Ni       7.63205281       7.34920657       2.15376457        3       1.00000000      -0.00806116      -0.04878407      -0.07142803
Pt      10.10993553       7.35628564       2.17530042        3       0.00000000      -0.05140852      -0.02494916       0.01632765
Pt      12.73679515       7.29630443       2.11014638        3       0.00000000       0.05318204      -0.08265462       0.00144313
Ni       0.02798689       1.51959383       4.31407625        2       1.00000000       0.08298283       0.09223240       0.01668439
Ni       2.50295981       1.50552143       4.27300544        2       1.00000000      -0.01343114       0.08643191      -0.02298458
Pt       5.07494187       1.40465712       4.24844949        2       0.00000000      -0.10194728      -0.00397823       0.07693764
Ni       7.64081266       1.48030194       4.30099919        2       1.00000000       0.05625980       0.00676496      -0.02073304
Ni       1.27180687       3.64546577       4.35077208        2       1.00000000       0.01714756      -0.03534752      -0.00399608
Ni       3.76612913       3.70775648       4.27834057        2       1.00000000      -0.05765737       0.03267412      -0.16205675
Pt       6.38096184       3.68559011       4.35263810        2       0.00000000       0.02345643       0.00634382      -0.01154684
Ni       8.94769580       3.69560985       4.27643340        2       1.00000000       0.12667586       0.05495083      -0.15020378
Ni       2.52417050       5.79560848       4.35918524        2       1.00000000      -0.06313836      -0.09284051      -0.07522513
Ni       5.05118918       5.82347992       4.33180610        2       1.00000000      -0.11824564      -0.06447907      -0.15372966
Ni       7.68018020       5.84356351       4.29830317        2       1.00000000       0.20521406      -0.01451469      -0.16444778
Ni      10.19098861       5.82456674       4.31134609        2       1.00000000       0.04944540      -0.13136369      -0.06169831
Pt       3.79010632       8.00254248       4.30613597        2       0.00000000      -0.04213160      -0.03562827       0.18219751
Pt       6.41716433       8.03621855       4.20710470        2       0.00000000       0.03790918       0.08109424       0.07493590
Ni       8.92602101       8.02702416       4.28879168        2       1.00000000      -0.03564392      -0.11066763       0.03433867
Ni      11.41094871       8.00550923       4.30407206        2       1.00000000      -0.00839757      -0.17480901      -0.01204578
Pt      -0.00515440      -0.04166697       6.51983119        1       0.00000000       0.02879230      -0.06278964       0.16808548
Pt       2.57998345       0.00037024       6.48511852        1       0.00000000      -0.01716311       0.06028951       0.14321425
Ni       5.08023326      -0.02553844       6.43670630        1       1.00000000      -0.05772319      -0.01312335      -0.19291907
Pt       7.51878693      -0.03883265       6.48583457        1       0.00000000      -0.10193690      -0.02564422       0.08920289
Ni       1.26900567       2.24579993       6.41857806        1       1.00000000       0.02944998       0.07700449      -0.15702143
Pt       3.81141288       2.29480783       6.38415877        1       0.00000000       0.02487404       0.22766847      -0.26701987
Ni       6.34606318       2.21482018       6.37661765        1       1.00000000      -0.04355839       0.03363563      -0.18019002
Pt       8.89796876       2.29476874       6.42455347        1       0.00000000      -0.00768367       0.13412764      -0.00069960
Ni       2.51638345       4.42981452       6.40878902        1       1.00000000      -0.04732047       0.10623480      -0.19186670
Ni       5.08252339       4.43973129       6.43139973        1       1.00000000      -0.02727497       0.17796518      -0.08652132
Ni       7.60138503       4.41239213       6.43804043        1       1.00000000      -0.05894859       0.07799277      -0.03471376
Ni      10.22998565       4.39637090       6.40480157        1       1.00000000       0.21762463      -0.01924418      -0.18734439
Ni       3.80335227       6.49656824       6.42411748        1       1.00000000      -0.05504363      -0.11663076      -0.14831055
Ni       6.34027190       6.51801633       6.32452262        1       1.00000000       0.02628657      -0.03689399      -0.47705858
Pt       8.95163719       6.50971692       6.41359723        1       0.00000000       0.08621407      -0.08307330       0.07681319
Ni      11.46230936       6.53780883       6.39577711        1       1.00000000       0.07090246      -0.10734399      -0.23726232
