64
Lattice="10.147795515935684 0.007757524547711462 0.007617201592012083 5.080615971296702 8.729417407234621 -0.075846439437205 0.006219419056115107 -0.07509949213945485 8.660903419076387" Properties=species:S:1:pos:R:3:tags:I:1:initial_magmoms:R:1:forces:R:3 unique_id=6b29367713cd466da1a9e27d1b9ddaac stress="-0.006881385382227413 1.728166764990111e-05 7.603773201244365e-06 1.728166764990111e-05 -0.006821495967273911 -8.153553619684548e-06 7.603773201244365e-06 -8.153553619684548e-06 -0.0058702550835448425" energy=-389.70615268806336 pbc="T T T"
Ni       0.04194167      -0.05803407       0.19967819        4       1.00000000       0.07606825      -0.07868929       0.12499795
Ni       2.48778550      -0.03671321       0.20554818        4       1.00000000      -0.02362748      -0.03992653       0.04968686
Pt       5.09774518      -0.03495778       0.16917060        4       0.00000000      -0.00919075      -0.01492897      -0.19255871
Ni       7.63417730      -0.05075656       0.20369462        4       1.00000000       0.06247966      -0.11007371       0.13382523
Ni       1.26493820       2.19148654       0.11365352        4       1.00000000      -0.01819104       0.01543016       0.10667732
Pt       3.76656553       2.24724244       0.18524407        4       0.00000000      -0.03046846      -0.01799807      -0.10404198
Ni       6.35079859       2.23247454       0.11273094        4       1.00000000      -0.02023046       0.05170186       0.09592086
Pt       8.88835518       2.23811556       0.11686289        4       0.00000000       0.01331299       0.03598204      -0.21189704
Ni       2.51691843       4.40423777       0.07438128        4       1.00000000       0.00987920       0.01337601       0.05135653
Ni       5.10022361       4.41150411       0.07907759        4       1.00000000      -0.01774786       0.03851908       0.02965029
Ni       7.58094180       4.40399428       0.08776746        4       1.00000000      -0.04319506       0.00984739       0.05043290
Ni      10.18516534       4.40202091       0.08556958        4       1.00000000       0.05582105       0.03687078       0.05595928
Ni       3.82172654       6.51576280       0.05962434        4       1.00000000       0.05510103      -0.06608070       0.03134801
Ni       6.33766893       6.52778019       0.06778719        4       1.00000000      -0.00764769      -0.03441381      -0.02111230
Ni       8.84356086       6.48699526       0.15531944        4       1.00000000      -0.08486413      -0.07808344       0.15340944
Ni      11.46166479       6.48979876       0.04409309        4       1.00000000       0.04556290      -0.06245194      -0.01174635
Ni       1.30108613       0.72326106       2.19314327        3       1.00000000      -0.01899920       0.06225591       0.06222580
Ni       3.72679450       0.70521786       2.19366225        3       1.00000000      -0.10523028      -0.05783085      -0.00951264
Ni       6.37670135       0.74403600       2.17780982        3       1.00000000       0.06329281       0.00197360       0.01310028
Pt       8.90968560       0.72225257       2.20828600        3       0.00000000       0.05119125      -0.00939190       0.13890446
Ni       2.50085229       2.92228046       2.22663597        3       1.00000000       0.00369659       0.01977234       0.06519517
Ni       5.08447340       2.95247491       2.14847926        3       1.00000000      -0.01326176       0.10583468       0.00184168
Ni       7.59416870       2.94170216       2.17107407        3       1.00000000      -0.00330097       0.02201072       0.02056647
Ni      10.20465755       2.94054598       2.20518805        3       1.00000000       0.06963474       0.01042456       0.00961495
Ni       3.80542700       5.06713982       2.13296073        3       1.00000000      -0.00302836      -0.02530017       0.00337499
Ni       6.32762948       5.08992408       2.08357334        3       1.00000000      -0.01104328       0.01836021       0.02013117
Ni       8.88283831       5.01501327       2.11091904        3       1.00000000       0.03348973      -0.11531832       0.01123471
Ni      11.45362925       5.03176181       2.15342739        3       1.00000000       0.03151812      -0.04923608       0.07049247
Ni       5.11531973       7.19639246       2.08653375        3       1.00000000      -0.02344841      -0.07453646       0.05251902
Ni       7.56885665       7.26742229       2.09373140        3       1.00000000      -0.05824223      -0.00532372       0.02151614
Pt      10.16106366       7.18616464       2.19656678        3       0.00000000       0.01904932      -0.09271290       0.09885693
Ni      12.70381208       7.18614287       2.09123858        3       1.00000000       0.04834171      -0.11980402       0.02889896
Ni       0.06676821       1.45761775       4.25523326        2       1.00000000       0.04990919       0.00925163      -0.03629481
Ni       2.48211809       1.44716997       4.22648040        2       1.00000000      -0.01023525       0.05083025      -0.04078082
Pt       5.04829549       1.39908035       4.16380220        2       0.00000000      -0.03522549       0.02809345      -0.16772733
Ni       7.61658831       1.42261857       4.26755557        2       1.00000000      -0.05336005      -0.06200343      -0.05637152
Ni       1.28049216       3.60610799       4.26284994        2       1.00000000       0.02163266      -0.01911926      -0.05086503
Ni       3.74768671       3.67315361       4.21101196        2       1.00000000      -0.01405024       0.04145640      -0.14059613
Pt       6.34101384       3.61594393       4.26631356        2       0.00000000       0.01170333      -0.00436489      -0.02941063
Ni       8.95178522       3.63198634       4.20161305        2       1.00000000       0.03251404       0.04786731      -0.18108103
Ni       2.52039257       5.72275830       4.24100479        2       1.00000000      -0.02825545      -0.04773586      -0.15540291
Ni       5.04845626       5.75862904       4.24291875        2       1.00000000       0.01766935      -0.05600840      -0.13550659
Pt       7.62693860       5.83005215       4.17567042        2       0.00000000       0.04298461       0.03071858       0.00180809
Ni      10.21750654       5.73316713       4.26437234        2       1.00000000       0.02048541      -0.06426588       0.00508562
Pt       3.82036544       7.87495900       4.18754819        2       0.00000000       0.01395690      -0.01113483       0.03941085
Ni       6.35711879       7.99487542       4.15382361        2       1.00000000      -0.03168201       0.06976712      -0.10085164
Ni       8.85406708       7.97277614       4.18981339        2       1.00000000      -0.09493226       0.04102227      -0.05373128
Ni      11.44529801       7.89878355       4.20529011        2       1.00000000       0.06240155      -0.06944913      -0.05277385
Pt       0.01845082      -0.09020403       6.46376165        1       0.00000000      -0.07802066       0.04880869       0.14760742
Pt       2.52188191      -0.04614761       6.40890553        1       0.00000000       0.07612387       0.04598297       0.05868129
Pt       5.09323577      -0.06029823       6.32437983        1       0.00000000      -0.08886579      -0.00384135       0.04136780
Pt       7.60460589      -0.08731651       6.47041521        1       0.00000000       0.03950944       0.05720869       0.18756603
Ni       1.26938682       2.20300114       6.35489098        1       1.00000000       0.01373745       0.04797868      -0.06497821
Pt       3.78309419       2.28634505       6.31976877        1       0.00000000      -0.02771622       0.09698642       0.04096000
Ni       6.34518133       2.19065247       6.40335312        1       1.00000000      -0.03801350       0.04110855       0.00278644
Pt       8.89505095       2.25004415       6.26475750        1       0.00000000      -0.01368655       0.06571168      -0.04284189
Ni       2.51170069       4.38020224       6.34202121        1       1.00000000      -0.00973916       0.07818370      -0.07538933
Ni       5.08263672       4.38664432       6.38300741        1       1.00000000      -0.03881662       0.10956882      -0.00843332
Ni       7.55976920       4.32609093       6.40085616        1       1.00000000      -0.12232030       0.02826002       0.01548142
Ni      10.23980096       4.31965408       6.35165958        1       1.00000000       0.13268822       0.00398654      -0.06973001
Ni       3.80942418       6.40479033       6.35619428        1       1.00000000      -0.02452216      -0.03362066      -0.03274720
Ni       6.31366392       6.43795008       6.36432664        1       1.00000000      -0.01389161       0.02733509      -0.09324798
Pt       8.91422826       6.37552738       6.42894331        1       0.00000000       0.02384398      -0.02779047       0.19849370
Ni      11.46942958       6.42818132       6.33481917        1       1.00000000       0.01745140       0.03894882      -0.10135602
