64
Lattice="10.255035290621052 -0.01427510382169708 -0.016436781256955867 5.115155042759276 8.861514004409454 -0.02441797115887457 -0.013420575697761375 -0.015273110993894704 8.807567073329231" Properties=species:S:1:pos:R:3:tags:I:1:initial_magmoms:R:1:forces:R:3 unique_id=581758aa06204c549aa6a24c09f5e048 stress="-0.0002889182231821455 -2.493459084100018e-06 1.083949456005971e-05 -2.493459084100018e-06 -0.00028077260873674015 2.452302997277806e-05 1.083949456005971e-05 2.452302997277806e-05 -0.0002307014699143642" energy=-395.31497450626756 pbc="T T T"
Ni       0.04928516       0.04386955       0.15521974        4       1.00000000       0.20268320       0.13859855       0.21652009
Ni       2.57976759       0.03180238       0.20024215        4       1.00000000       0.03030749       0.05186468       0.26319114
Ni       5.07320890      -0.02102286       0.06248847        4       1.00000000      -0.13441075       0.00888430       0.06648380
Pt       7.70395709      -0.05529653      -0.03297715        4       0.00000000      -0.00347089      -0.01905623      -0.20590498
Ni       1.28201480       2.22654241       0.10131445        4       1.00000000       0.01897637       0.07735565       0.14156616
Ni       3.79621785       2.21767759       0.19563454        4       1.00000000      -0.08884706      -0.00904338       0.26959064
Pt       6.37546759       2.31115266       0.14782421        4       0.00000000      -0.06953410       0.16245438       0.49488523
Ni       9.02080218       2.26053011       0.05167042        4       1.00000000       0.08941983       0.11154012       0.05657306
Ni       2.56598381       4.40366034       0.05806278        4       1.00000000      -0.00095867      -0.17186678       0.01333120
Ni       5.06110118       4.43211441       0.06136337        4       1.00000000      -0.23219858       0.04736186       0.07331916
Ni       7.75115594       4.42036352       0.05342440        4       1.00000000       0.25994586       0.01022307       0.05659321
Ni      10.23689873       4.39382329       0.03856587        4       1.00000000      -0.02802280      -0.09424336      -0.00973436
Ni       3.82369314       6.58392983       0.02855756        4       1.00000000      -0.05669421      -0.19205059       0.02849886
Pt       6.44163996       6.63773837      -0.03662729        4       0.00000000       0.03727694       0.00692778      -0.28580199
Ni       8.97412382       6.61898753       0.11120856        4       1.00000000       0.01035115      -0.09506688       0.17469791
Ni      11.50462619       6.59083501       0.00913372        4       1.00000000      -0.10655663      -0.13820786      -0.07474250
Ni       1.33313416       0.78088392       2.15852907        3       1.00000000       0.01353539       0.09399674      -0.02596776
Ni       3.78358948       0.74731261       2.16309207        3       1.00000000       0.03453880      -0.01117623       0.09468171
Pt       6.35339103       0.74782426       2.21008724        3       0.00000000      -0.02797189       0.08188822      -0.07848554
Pt       9.05107292       0.82927040       2.16603654        3       0.00000000       0.02634314      -0.04172306      -0.06693229
Ni       2.57143229       2.93021534       2.16188878        3       1.00000000      -0.06056001       0.03313319       0.02109521
Ni       5.03335390       2.97675973       2.21023079        3       1.00000000      -0.13025363      -0.01146155       0.17393040
Ni       7.74498333       2.98941684       2.19795695        3       1.00000000       0.13597132       0.03844480       0.07210700
Ni      10.25610629       2.95265951       2.16779288        3       1.00000000       0.04370536      -0.03538016       0.04012733
Ni       3.83880498       5.09174467       2.19376413        3       1.00000000      -0.03593556      -0.08686007       0.04562655
Pt       6.43784044       5.11378483       2.17242672        3       0.00000000       0.01904198      -0.02399273      -0.12108492
Ni       8.95623726       5.11135053       2.18938065        3       1.00000000       0.04577484      -0.09905408       0.05924117
Pt      11.50826540       5.05761099       2.12954303        3       0.00000000       0.01783847      -0.05088641      -0.07567765
Pt       5.14518809       7.36479112       2.15849946        3       0.00000000       0.02504039      -0.10650829      -0.19265830
Ni       7.68672561       7.39524489       2.18111962        3       1.00000000      -0.04513367      -0.02601232      -0.01142527
Pt      10.13616972       7.34712712       2.19904525        3       0.00000000      -0.10221675      -0.05504558       0.03251370
Pt      12.79218514       7.29880147       2.18226468        3       0.00000000      -0.01326825      -0.07310004      -0.11347776
Ni       0.00166968       1.50291151       4.39356993        2       1.00000000       0.04182275      -0.01405076      -0.00603424
Pt       2.51400463       1.49230033       4.28278472        2       0.00000000       0.04406980       0.00314566       0.08080335
Pt       5.07985867       1.42486489       4.36467320        2       0.00000000      -0.03736901       0.03491676       0.14544033
Pt       7.76791176       1.49931880       4.37986613        2       0.00000000       0.02421831       0.07327463       0.07933199
Pt       1.22961119       3.73825558       4.43249322        2       0.00000000      -0.02655096      -0.00285752       0.00004481
Ni       3.82310669       3.75237871       4.35342980        2       1.00000000      -0.09149157       0.05819109      -0.06889943
Pt       6.39678111       3.76483611       4.38151916        2       0.00000000      -0.02977573       0.05092173       0.01330927
Ni       8.97706843       3.72744175       4.37017624        2       1.00000000       0.01496641       0.16522398      -0.06221228
Ni       2.54008084       5.87110539       4.41663844        2       1.00000000      -0.07246554      -0.06858702      -0.05266122
Ni       5.06814354       5.86238899       4.40047672        2       1.00000000      -0.11794844      -0.09519445      -0.13718821
Ni       7.73727270       5.88216409       4.35134497        2       1.00000000       0.20777253      -0.04904046      -0.17574334
Ni      10.23318619       5.89956608       4.36004922        2       1.00000000       0.00034697      -0.01099292      -0.09134208
Pt       3.79180409       8.02375438       4.41196940        2       0.00000000       0.03863175       0.01867035       0.02997908
Pt       6.43951600       8.03741172       4.33414673        2       0.00000000       0.04643421      -0.00752339       0.06643847
Ni       8.97940537       8.05674030       4.34943170        2       1.00000000      -0.01935895      -0.04206939       0.04164756
Ni      11.47917543       8.03849519       4.40235689        2       1.00000000      -0.09088989      -0.12439560      -0.04021515
Pt      -0.06354479       0.02213140       6.60042170        1       0.00000000      -0.11468130      -0.00076663       0.10196878
Pt       2.58233200      -0.02625473       6.60335911        1       0.00000000       0.07113827       0.03425505       0.20519618
Ni       5.15919957      -0.05957243       6.51819025        1       1.00000000       0.07184994      -0.08101201      -0.09484983
Ni       7.63882070      -0.07024418       6.42294038        1       1.00000000      -0.13300576      -0.11851424      -0.33945642
Ni       1.22614498       2.25086032       6.54330391        1       1.00000000      -0.03754832       0.06014048       0.00791491
Pt       3.79244854       2.31204383       6.59555798        1       0.00000000      -0.10687460       0.23778838       0.22312881
Pt       6.44980346       2.21364401       6.52516725        1       0.00000000       0.10466019      -0.00892756      -0.15568498
Ni       9.00380068       2.25261616       6.52200892        1       1.00000000       0.12013833       0.22601300      -0.09875422
Ni       2.53413281       4.48715119       6.52249610        1       1.00000000      -0.05526126       0.22825977      -0.03574343
Ni       5.09556807       4.49496798       6.51364283        1       1.00000000      -0.03878130       0.17011604      -0.05921112
Ni       7.69968153       4.42738481       6.51499223        1       1.00000000       0.08380699       0.02875536      -0.06805392
Ni      10.24897302       4.38973875       6.51440471        1       1.00000000       0.05033741       0.00303411      -0.01205424
Ni       3.80118759       6.57630635       6.51038420        1       1.00000000      -0.03761060      -0.07581776      -0.07548563
Ni       6.36360804       6.56800492       6.39947621        1       1.00000000       0.00700048      -0.12583346      -0.45620628
Pt       9.01146918       6.55361583       6.49249929        1       0.00000000       0.11819861      -0.03487315       0.09158101
Ni      11.55244869       6.61540112       6.47288858        1       1.00000000       0.08950320      -0.05418786      -0.18966874
