64
Lattice="10.234167513825005 0.023870137741015648 -0.054394911411206774 5.137755902588056 8.796045386309887 -0.087395105372233 0.0 0.0 21.540690453954632" Properties=species:S:1:pos:R:3:tags:I:1:initial_magmoms:R:1:forces:R:3 unique_id=f0470a299e384e1d8b6dbccef541e1ac energy=-371.3381019395641 stress="0.005466950685803417 1.71344536437278e-05 -0.0003236119133814195 1.71344536437278e-05 0.004413891976151208 -9.870806037211289e-05 -0.0003236119133814195 -9.870806037211289e-05 -0.001816615867854898" pbc="T T T"
Ni       0.03303232      -0.04655751       0.22498582        2       1.00000000       0.11783394      -0.02204536      -0.18583608
Ni       2.52250880      -0.03394708       0.23033682        2       1.00000000      -0.03685183      -0.00117578      -0.11415493
Ni       5.10721435      -0.02215958       0.18006839        2       1.00000000      -0.07595361       0.08212092      -0.50308112
Ni       7.66416981      -0.04760385       0.17482756        2       1.00000000      -0.06450704      -0.02021448      -0.26105801
Ni       1.27858053       2.20008141       0.13024021        1       1.00000000      -0.01197937      -0.01772653       0.33142105
Pt       3.75522828       2.17228339       0.18809823        2       0.00000000       0.03784499      -0.00748577      -0.55621861
Pt       6.40707496       2.17274889       0.09233027        1       0.00000000      -0.03228496      -0.00725153      -0.24915170
Pt       9.02872240       2.25700291       0.10019999        1       0.00000000       0.01368592       0.04839636      -0.66252280
Ni       2.53148832       4.42320653       0.05960934        1       1.00000000       0.02995506       0.01617777       0.15948810
Pt       5.11265354       4.50128958       0.07190327        1       0.00000000      -0.08412904      -0.00099566       0.00280708
Ni       7.68763124       4.45493452       0.03753953        0       1.00000000      -0.02125258       0.03131588       0.04689924
Ni      10.27030718       4.44401051       0.01472703        0       1.00000000       0.03823905       0.07126794       0.17144720
Ni       3.82431874       6.63220126       0.07789530        1       1.00000000      -0.01814504       0.05460401       0.32311353
Ni       6.42369406       6.64086366       0.07141127        1       1.00000000      -0.01495894       0.05102855       0.33222177
Ni       8.94194141       6.60679240       0.09721861        1       1.00000000      -0.12739707       0.05148763      -0.31955119
Ni      11.54642530       6.60756224       0.00000000        0       1.00000000       0.05702148       0.00925692       0.17589955
Ni       1.29820225       0.72384871       2.23434055        4       1.00000000       0.00667728       0.04982568       0.20924634
Ni       3.77419260       0.73071053       2.21606704        4       1.00000000      -0.16444023      -0.02971199       0.10736770
Ni       6.40078341       0.74286977       2.20478372        4       1.00000000       0.07403615       0.05271771       0.15212508
Pt       8.96643426       0.72738319       2.21115607        4       0.00000000       0.07910308       0.05453963       0.00278432
Ni       2.54269508       2.89039192       2.26665688        5       1.00000000       0.04555160      -0.11287004       0.23576423
Ni       5.09849764       2.95944214       2.21277861        4       1.00000000      -0.08725281       0.15065213       0.08946292
Ni       7.64694950       2.93251369       2.21430348        4       1.00000000      -0.06518687      -0.03917789       0.14019799
Ni      10.28488550       2.91588773       2.21757046        4       1.00000000       0.12750091      -0.12177639       0.27076930
Ni       3.86299201       5.13037371       2.21766018        4       1.00000000       0.07040660      -0.01585995       0.20218254
Ni       6.37173440       5.16173081       2.17899820        4       1.00000000      -0.04537968       0.07341934       0.08764806
Pt       8.89844175       5.09685912       2.16906154        4       0.00000000      -0.02219946      -0.09644931       0.04424763
Pt      11.58573482       5.09006419       2.15720135        4       0.00000000       0.08602030      -0.13678277       0.09603696
Ni       5.15641570       7.27497303       2.13712716        3       1.00000000       0.01675326      -0.09423002       0.04672454
Ni       7.60649992       7.33890436       2.11692897        3       1.00000000      -0.17698622      -0.02819359       0.12425541
Pt      10.27572344       7.36723117       2.09605381        3       0.00000000       0.05936636      -0.00737329       0.11102917
Ni      12.82517944       7.31169587       2.08769130        3       1.00000000       0.12409029      -0.10048240       0.04598652
Ni       0.03774483       1.46877346       4.33881520        7       1.00000000       0.14033508      -0.02022599      -0.12243702
Ni       2.47201019       1.48296500       4.29974643        7       1.00000000      -0.07259651       0.01211375      -0.15925867
Pt       5.11117596       1.46055031       4.23683175        6       0.00000000      -0.07286761      -0.06008821      -0.06732714
Ni       7.66678443       1.46205644       4.29500903        7       1.00000000       0.04436839      -0.06144658      -0.22669152
Ni       1.27150028       3.62673927       4.37024656        8       1.00000000       0.05809114      -0.05732831      -0.04361779
Ni       3.77676569       3.70994688       4.28502883        7       1.00000000      -0.06145282       0.08686008      -0.26511160
Pt       6.41173019       3.71580399       4.29756586        7       0.00000000       0.03127341      -0.03618957      -0.09510590
Ni       8.98416609       3.68259394       4.27289981        7       1.00000000       0.10944705       0.01861003      -0.14100706
Ni       2.54862742       5.79242035       4.35813403        8       1.00000000      -0.00825494      -0.09879003      -0.03192804
Ni       5.10572113       5.83507406       4.30665194        7       1.00000000       0.04274048      -0.00325535      -0.17789365
Ni       7.63399895       5.84636751       4.29211324        7       1.00000000      -0.09572953       0.10194821      -0.13774720
Ni      10.26997638       5.80165282       4.31054938        7       1.00000000       0.09773915      -0.03192380      -0.03164368
Pt       3.84123743       7.95163229       4.25126212        7       0.00000000       0.01109044      -0.03799793       0.07368863
Ni       6.37717340       8.01643629       4.23111973        6       1.00000000      -0.08215868      -0.01749790      -0.25462767
Pt       8.88997502       8.00563738       4.20414914        6       0.00000000      -0.07660479       0.03424607      -0.00097630
Ni      11.52560939       8.00086129       4.23633436        6       1.00000000      -0.00113203      -0.10046166      -0.11106571
Pt      -0.01923261      -0.08179311       6.54069045       11       0.00000000       0.02146901       0.09098851       0.22575065
Pt       2.50508642      -0.02705808       6.52536204       11       0.00000000       0.00197334       0.09896948       0.23630070
Pt       5.10738133      -0.04655117       6.52622051       11       0.00000000       0.02984919       0.04842982       0.43681426
Pt       7.64420856      -0.06988128       6.49093696       11       0.00000000      -0.06079000       0.12375928       0.29520974
Ni       1.24834382       2.22455959       6.45099056       11       1.00000000       0.03817605       0.06132127      -0.22656515
Pt       3.78352711       2.29460126       6.39659125       10       0.00000000      -0.06219946       0.13701902       0.51178370
Ni       6.37961811       2.22012809       6.38304749       10       1.00000000       0.00909354       0.02516223       0.24241815
Pt       8.94572088       2.27426806       6.32155958        9       0.00000000      -0.00620548      -0.08140296       0.61802840
Ni       2.50760026       4.41118115       6.42448815       10       1.00000000       0.06242013      -0.00081658      -0.31813276
Ni       5.10086105       4.42261869       6.35970271       10       1.00000000      -0.10201008       0.06365457       0.07200996
Ni       7.61653361       4.37723079       6.42866690       10       1.00000000      -0.08038268      -0.04244448      -0.05292842
Ni      10.28341795       4.37342481       6.38690199       10       1.00000000       0.11526563      -0.03375613      -0.24193740
Ni       3.82158489       6.47500633       6.43061352       10       1.00000000       0.01627052      -0.12865728      -0.27540338
Ni       6.35716439       6.49944097       6.40499568       10       1.00000000      -0.02283161      -0.01028067      -0.30135552
Pt       8.94334704       6.43450398       6.43697474       10       0.00000000       0.04181033      -0.08143609       0.14375415
Ni      11.53155484       6.50125620       6.37578965       10       1.00000000      -0.00137818       0.06390948      -0.23054855
