64
Lattice="10.332293200433917 -0.021953520456380146 0.02594946609668634 5.147134293799232 8.830861954819213 -0.012574436011964493 0.02118765034484439 -0.02408798759496676 8.802122948791213" Properties=species:S:1:pos:R:3:tags:I:1:initial_magmoms:R:1:forces:R:3 unique_id=a2c7c51cc1af4509ad5f843800b46ddb stress="0.00022523205453514605 2.9635096312125345e-06 -1.5516760938329524e-05 2.9635096312125345e-06 0.00023516723252178795 1.052893547836274e-05 -1.5516760938329524e-05 1.052893547836274e-05 0.00022597559718549182" energy=-397.2760613492047 pbc="T T T"
Ni       0.01188778      -0.00523440       0.18512515        4       1.00000000       0.03166626       0.03795220       0.34916803
Ni       2.58421240       0.00094362       0.21083044        4       1.00000000       0.03236366       0.01297044       0.39996056
Ni       5.16150187      -0.03008912       0.17186388        4       1.00000000      -0.05249328       0.09621973       0.23520091
Ni       7.74424766      -0.07487699       0.20689655        4       1.00000000      -0.02623817      -0.09379457       0.41103667
Ni       1.29724778       2.21280920       0.10012163        4       1.00000000       0.02093994       0.01962089       0.21601399
Pt       3.79953713       2.20716895       0.10696788        4       0.00000000      -0.01463138       0.05920992      -0.14393672
Pt       6.43714698       2.15217093       0.11854349        4       0.00000000       0.04726052      -0.05001670      -0.06820187
Pt       9.12420293       2.19329139       0.13353040        4       0.00000000       0.14342070      -0.05359828       0.08368732
Ni       2.55353501       4.43512329       0.04240048        4       1.00000000      -0.04310165       0.03835978      -0.09866064
Ni       5.14427376       4.42060219       0.15716021        4       1.00000000       0.14127209      -0.05316814       0.22048089
Pt       7.78458968       4.45597933       0.10897535        4       0.00000000       0.08774732       0.06980495      -0.09821532
Ni      10.36784669       4.42761526       0.07998305        4       1.00000000       0.10514877       0.08411609       0.06388930
Ni       3.82533550       6.63835019       0.07962911        4       1.00000000      -0.08053604       0.07059807       0.12388093
Pt       6.41640825       6.67490083       0.19364013        4       0.00000000      -0.05884152       0.01326178       0.18865103
Ni       9.05380863       6.63343442       0.08017615        4       1.00000000       0.00002839       0.06286172       0.02087951
Ni      11.62846150       6.60618759       0.07140776        4       1.00000000       0.09765570      -0.01185881       0.00716746
Ni       1.32513020       0.76530290       2.18692187        3       1.00000000       0.04714385       0.19156788      -0.02075650
Ni       3.85268557       0.76192147       2.22742144        3       1.00000000      -0.04146786       0.13744252       0.12532735
Ni       6.44980894       0.74814904       2.24272095        3       1.00000000      -0.05751454       0.13110283       0.13561658
Pt       9.05014298       0.71865881       2.26275528        3       0.00000000      -0.00305946       0.21470237      -0.00468018
Ni       2.56532357       2.88505784       2.25361146        3       1.00000000      -0.04747526      -0.09370939       0.18038806
Ni       5.15905576       2.89822535       2.24986733        3       1.00000000      -0.10119770      -0.12278161       0.06083625
Ni       7.75173458       2.94035891       2.25989668        3       1.00000000       0.12104618      -0.00403860      -0.10396607
Ni      10.35434233       2.91065816       2.27497979        3       1.00000000       0.04111473      -0.06841017       0.12636999
Pt       3.87932865       5.11656869       2.16084753        3       0.00000000      -0.06240021      -0.11985770       0.00639306
Ni       6.48548320       5.12519127       2.23330422        3       1.00000000       0.09508647      -0.00514908       0.00381739
Ni       9.00757302       5.11200275       2.24648397        3       1.00000000      -0.04026230      -0.07746305       0.12454538
Pt      11.60312740       5.06215168       2.19242010        3       0.00000000      -0.01761403      -0.11945114       0.04699419
Ni       5.15244936       7.36337239       2.19804551        3       1.00000000      -0.09677378      -0.03434126       0.02249994
Ni       7.74036763       7.35051723       2.20482213        3       1.00000000       0.02528263      -0.05403113      -0.00507895
Pt      10.29395930       7.35694733       2.12396811        3       0.00000000      -0.00191698      -0.10765510      -0.03513596
Ni      12.90725248       7.32708870       2.18087586        3       1.00000000      -0.01841667      -0.12534436       0.00617847
Ni       0.04714468       1.54129165       4.34129350        2       1.00000000       0.14139628       0.17037006      -0.11271269
Ni       2.58983420       1.54107923       4.35414518        2       1.00000000      -0.02411381       0.07076265      -0.15374894
Ni       5.14253776       1.49335463       4.36419254        2       1.00000000      -0.12387617       0.03660617      -0.14511920
Ni       7.75936361       1.46988753       4.36474838        2       1.00000000       0.03998309      -0.05990028      -0.09233172
Ni       1.32021730       3.62093572       4.39084276        2       1.00000000       0.05356528      -0.05278440      -0.09491771
Ni       3.82016614       3.61358470       4.36991057        2       1.00000000      -0.09478478      -0.05041390      -0.18682854
Pt       6.50418086       3.59732864       4.32471900        2       0.00000000      -0.03709980      -0.03707385      -0.02700833
Ni       9.05512139       3.64002104       4.33033814        2       1.00000000       0.04150059      -0.12578824      -0.35617586
Ni       2.56420250       5.81649195       4.41091791        2       1.00000000      -0.04929353      -0.17519480      -0.01369393
Pt       5.14016801       5.81761817       4.32877611        2       0.00000000       0.05910147      -0.08422597       0.08221794
Ni       7.77392257       5.82611413       4.34749605        2       1.00000000       0.01649674      -0.02261933      -0.20681710
Pt      10.32203343       5.75817757       4.45013599        2       0.00000000       0.00646644      -0.04287392      -0.02643793
Pt       3.85671221       8.08551380       4.33654170        2       0.00000000      -0.07872103      -0.07221638       0.20743357
Pt       6.46125921       8.15184480       4.24344791        2       0.00000000       0.00049926       0.11467716       0.04848833
Pt       9.01661473       8.11145967       4.32127330        2       0.00000000      -0.11225829       0.10235900       0.10593386
Pt      11.62145656       8.09084972       4.31625477        2       0.00000000       0.06544647       0.03869801       0.04329961
Pt       0.02034425       0.00610831       6.58680121        1       0.00000000       0.00477996       0.05427848       0.16982733
Pt       2.60706191       0.05772099       6.59714930        1       0.00000000      -0.03046180       0.13909198       0.20416733
Pt       5.17701143      -0.01670238       6.59441010        1       0.00000000      -0.02855410       0.00585797       0.06462058
Pt       7.74535315      -0.06455656       6.62748711        1       0.00000000      -0.03954247      -0.05200468       0.22104199
Ni       1.32582185       2.26720004       6.49172114        1       1.00000000       0.02412835       0.22906149      -0.21628991
Ni       3.85014731       2.21406658       6.43107724        1       1.00000000      -0.15805850       0.03126282      -0.32888969
Ni       6.46647516       2.18598974       6.45784583        1       1.00000000       0.02781332      -0.02591617      -0.25769141
Pt       9.06292863       2.27500723       6.42116547        1       0.00000000       0.01390021       0.10735406      -0.37250569
Ni       2.54441053       4.39167851       6.49480794        1       1.00000000      -0.14462740      -0.02818021      -0.27644383
Pt       5.09826197       4.31747837       6.56731575        1       0.00000000      -0.10377882      -0.04447109       0.09483822
Ni       7.78533263       4.39459151       6.44992930        1       1.00000000       0.06317491       0.05695035      -0.31963654
Ni      10.37135976       4.39380855       6.54678974        1       1.00000000       0.13072386       0.00587284      -0.06359146
Ni       3.82441320       6.55904541       6.53035927        1       1.00000000      -0.10751180      -0.14848021      -0.10830113
Pt       6.51172916       6.54756592       6.48818851        1       0.00000000       0.05906936      -0.01485607      -0.22561300
Ni       9.07192954       6.54227942       6.54258261        1       1.00000000       0.07061388      -0.06135379      -0.12026811
Ni      11.63377648       6.52175469       6.55279559        1       1.00000000       0.04078645      -0.10997178      -0.11719707
