64
Lattice="10.286197415917986 -0.007081938872689528 -0.0296852856795982 5.136965568987195 8.850781642698498 -0.06444914144155367 0.0 0.0 21.583942743196072" Properties=species:S:1:pos:R:3:tags:I:1:initial_magmoms:R:1:forces:R:3 unique_id=d41608604c444235a6e76645cfbffec3 energy=-374.05224242723364 stress="0.00513547012776479 -2.4397655991112373e-05 -0.00011405327176776335 -2.4397655991112373e-05 0.0053895191892666255 -0.0003749396035213546 -0.00011405327176776335 -0.0003749396035213546 -0.0019431779520328492" pbc="T T T"
Ni      -0.00348847       0.01757306       0.18659671        2       1.00000000       0.11121305      -0.04278864      -0.27483255
Ni       2.56459333      -0.00232970       0.21039595        2       1.00000000      -0.04636710       0.02292036      -0.16852660
Ni       5.13688653      -0.02221541       0.15949184        2       1.00000000       0.00054980       0.19085970      -0.43338400
Ni       7.72095569      -0.05943590       0.07514142        1       1.00000000      -0.05938051      -0.11139558       0.22826415
Ni       1.24831612       2.21440759       0.09592055        1       1.00000000      -0.08725611       0.00553643       0.42711179
Pt       3.78265081       2.21492239       0.09346611        1       0.00000000       0.03094303      -0.01276325      -0.04358596
Pt       6.44625724       2.15166731       0.16683055        2       0.00000000       0.00037028      -0.03898442      -0.51895247
Ni       9.03883425       2.19848617       0.11455935        1       1.00000000       0.04754620       0.11817175      -0.12099398
Ni       2.56066814       4.44069231       0.04559725        0       1.00000000       0.05928674       0.02254665       0.24620320
Ni       5.10354897       4.43576897       0.15468145        2       1.00000000      -0.04760834       0.02025868       0.02974277
Pt       7.78317112       4.42624079       0.06362645        1       0.00000000       0.00480511      -0.01447859      -0.04341168
Ni      10.31362152       4.40868232       0.02359014        0       1.00000000       0.04583121      -0.07879075       0.25032137
Ni       3.81439768       6.63231852       0.15288669        2       1.00000000      -0.03647785      -0.05766680      -0.00894024
Pt       6.39205188       6.67426619       0.13759655        1       0.00000000      -0.07365989       0.00753914      -0.56564680
Ni       9.01405598       6.64181947       0.01400684        0       1.00000000      -0.11233897      -0.03112741       0.06010306
Ni      11.58651286       6.62794733       0.00000000        0       1.00000000       0.12719451      -0.03245251       0.16158606
Ni       1.29261302       0.75010084       2.15762697        5       1.00000000      -0.00284485       0.13143272      -0.00950094
Ni       3.84021383       0.75204063       2.18849752        5       1.00000000       0.03441583       0.08714221       0.20412109
Ni       6.41840173       0.73501508       2.22097004        5       1.00000000      -0.02032501       0.11556393       0.23397535
Pt       8.99462031       0.75322384       2.14908145        4       0.00000000      -0.04134835       0.02935121       0.08578606
Ni       2.56548805       2.93348509       2.18986280        5       1.00000000       0.04254986       0.01316459       0.08560827
Ni       5.10311504       2.95077600       2.20468296        5       1.00000000      -0.19204465       0.01022201       0.13946639
Ni       7.73439326       2.95625248       2.20463990        5       1.00000000       0.11211161       0.09491085       0.15532092
Ni      10.28324447       2.92989694       2.16320141        5       1.00000000       0.07548286       0.00272353       0.09749221
Ni       3.87840835       5.14534402       2.17593055        5       1.00000000       0.08499772      -0.08684091       0.12839225
Ni       6.40188849       5.14982487       2.18607152        5       1.00000000      -0.04635664       0.03807660       0.13606606
Ni       8.97321711       5.12269629       2.18153437        5       1.00000000      -0.04273768      -0.13729788       0.17330849
Pt      11.61204455       5.08557874       2.11312779        4       0.00000000       0.08487762      -0.09000194       0.00454164
Ni       5.10211893       7.33079048       2.14772785        4       1.00000000      -0.11248414      -0.14936054       0.08032188
Ni       7.70148562       7.35855958       2.13718529        4       1.00000000       0.03664735      -0.09283164       0.03795015
Pt      10.26132958       7.36584166       2.04402408        3       0.00000000       0.00451554      -0.14817718      -0.07981118
Ni      12.86730994       7.34027501       2.08451603        4       1.00000000       0.01046809      -0.01956997       0.03359461
Ni      -0.01490556       1.52184664       4.32620782        7       1.00000000       0.01437258       0.10438891      -0.21503041
Pt       2.54621328       1.56749591       4.28975720        7       0.00000000      -0.02342037       0.01952810      -0.05141255
Ni       5.11927817       1.48502750       4.28908643        7       1.00000000      -0.04604920       0.12647730      -0.32561429
Ni       7.72647593       1.47588742       4.29214248        7       1.00000000       0.07214187       0.04258600      -0.27017948
Ni       1.27017612       3.66195036       4.36108203        8       1.00000000      -0.03327984      -0.00599002      -0.11261342
Ni       3.82484682       3.70350853       4.29541129        7       1.00000000       0.01792282       0.13365230      -0.26716622
Pt       6.42875011       3.68336710       4.20925958        6       0.00000000      -0.05836519       0.01865700       0.00370111
Ni       8.99557761       3.63445454       4.28137011        7       1.00000000       0.01096303      -0.13086970      -0.33372491
Ni       2.56957343       5.80602254       4.31146640        7       1.00000000       0.09160522      -0.15949386      -0.12987320
Ni       5.09727175       5.83900843       4.25364841        7       1.00000000      -0.07152247      -0.04098797      -0.34887824
Ni       7.71393083       5.82825475       4.26209495        7       1.00000000       0.00074593      -0.02649383      -0.32613462
Pt      10.26756510       5.77035247       4.35484439        8       0.00000000       0.04713771       0.01136410      -0.04656716
Pt       3.83305160       8.07349424       4.25221197        7       0.00000000       0.01359032      -0.00918158       0.05866348
Pt       6.39228972       8.07283860       4.16922353        6       0.00000000      -0.06164119       0.05093893      -0.16344919
Pt       8.96896048       8.08167959       4.24224811        6       0.00000000      -0.06928574       0.03163332      -0.02840028
Pt      11.58495846       8.10874931       4.25866559        7       0.00000000       0.06090054       0.03046665      -0.00661409
Pt      -0.03139380       0.01370905       6.56678669       11       0.00000000       0.10942554       0.08258095       0.29585142
Pt       2.57291097       0.02836526       6.58394274       11       0.00000000       0.03748142       0.04573365       0.37666814
Pt       5.16355593      -0.09814485       6.56648499       11       0.00000000      -0.06469638       0.07111146       0.53342814
Ni       7.69691747      -0.03877870       6.50028682       10       1.00000000       0.03380914       0.12261105       0.01822972
Ni       1.28411051       2.25881469       6.48098993       10       1.00000000      -0.01442380       0.06492808      -0.23563617
Ni       3.80820906       2.21191505       6.41133353        9       1.00000000       0.03276072      -0.07815266       0.13127195
Pt       6.42752792       2.15816184       6.40088697        9       0.00000000      -0.02067509      -0.03207818       0.56119160
Pt       9.03145086       2.26959018       6.44788895        9       0.00000000       0.05884073       0.11285469       0.04106275
Ni       2.48642187       4.36229129       6.45024923       10       1.00000000      -0.07751136      -0.01098421      -0.33080356
Pt       5.04948605       4.35162671       6.47103394       10       0.00000000      -0.10988925       0.08018595       0.10021083
Ni       7.74758763       4.40924714       6.37331011        9       1.00000000       0.06151625       0.04429224      -0.00054108
Ni      10.30109244       4.40286874       6.45842191       10       1.00000000       0.10515844      -0.01829445      -0.14834222
Pt       3.71965148       6.58368631       6.49266554       10       0.00000000       0.13225779      -0.20581003       0.06354953
Pt       6.46731321       6.54822387       6.38554820        9       0.00000000      -0.15036241      -0.04330990       0.52411947
Ni       9.00925187       6.54392451       6.45318132       10       1.00000000      -0.03881630      -0.03731114      -0.04579259
Ni      11.53103020       6.54950054       6.45684886       10       1.00000000      -0.05326778      -0.16092550      -0.05286582
