64
Lattice="10.235412001395144 0.013932383272228486 0.006245499565259451 5.129771798546582 8.868100109508163 0.03374108409698118 0.005099429041219943 0.02886724242975307 8.761179393536482" Properties=species:S:1:pos:R:3:tags:I:1:initial_magmoms:R:1:forces:R:3 unique_id=c163baf249484180bc0e1303d62048bc stress="0.00020115681202535068 4.212477561344534e-06 -1.9027053364390034e-05 4.212477561344534e-06 0.00019455101881982878 -8.716570192513999e-06 -1.9027053364390034e-05 -8.716570192513999e-06 0.0001979233702897737" energy=-395.13892684176136 pbc="T T T"
Ni       0.00213320       0.02815505       0.17590178        4       1.00000000       0.02138595       0.07231535       0.26440805
Ni       2.52544768       0.02020165       0.21241614        4       1.00000000      -0.05382510       0.08732939       0.42473192
Pt       5.11594758      -0.02412025       0.14385150        4       0.00000000      -0.01114703      -0.03584895       0.32886966
Ni       7.71397859      -0.02720271       0.18664950        4       1.00000000       0.03245595      -0.08078078       0.32659982
Ni       1.24158016       2.22814100       0.11851500        4       1.00000000      -0.11696162       0.05861255       0.21550786
Pt       3.76167599       2.28194648       0.20110400        4       0.00000000      -0.08004850       0.13442795       0.18305214
Pt       6.44833648       2.22728536       0.12734731        4       0.00000000       0.11870040       0.09284919      -0.01763597
Ni       9.01326256       2.23155983       0.16099832        4       1.00000000       0.12769643       0.08780769       0.14397802
Ni       2.55258588       4.47297047       0.09387517        4       1.00000000       0.04043458       0.12064238       0.03460427
Ni       5.09183991       4.47288767       0.21003021        4       1.00000000      -0.00115883       0.08605405       0.34846261
Pt       7.76430658       4.46512494       0.12254624        4       0.00000000       0.12034197       0.03904793      -0.09702431
Ni      10.28328710       4.43975036       0.09692221        4       1.00000000       0.16176386      -0.02037465       0.07662831
Ni       3.80929580       6.64865327       0.13937446        4       1.00000000      -0.06592489      -0.01422057       0.20452117
Pt       6.36983800       6.70472988       0.20672273        4       0.00000000      -0.08078440       0.06181886       0.03099121
Ni       8.98501065       6.64630299       0.10825706        4       1.00000000       0.02763547       0.01328547       0.05724158
Ni      11.55699457       6.62881774       0.10083765        4       1.00000000       0.08159279      -0.03920022       0.04439201
Ni       1.28967939       0.74853907       2.18452489        3       1.00000000      -0.06267676       0.00863394       0.00666883
Ni       3.81825979       0.76769875       2.22997132        3       1.00000000       0.06868146      -0.00773897       0.01484117
Ni       6.40096376       0.79090466       2.25174442        3       1.00000000      -0.05328463       0.08231402       0.09974090
Pt       8.97617402       0.79354707       2.19733155        3       0.00000000      -0.01801812       0.07776137       0.13866152
Ni       2.54898968       2.97319219       2.24051237        3       1.00000000       0.00686301       0.04481383      -0.03017445
Ni       5.11343584       2.98976767       2.25560675        3       1.00000000      -0.09801328       0.00547778       0.03180130
Ni       7.70065219       2.99186567       2.25727307        3       1.00000000       0.12060188       0.06836177       0.01614801
Ni      10.24346031       2.97442995       2.22653093        3       1.00000000       0.03657987       0.03092368       0.10905374
Ni       3.87934961       5.18083244       2.23286090        3       1.00000000       0.06971480       0.00806349       0.09412887
Ni       6.39212483       5.18834301       2.25556154        3       1.00000000       0.01231334       0.09379617      -0.06081420
Ni       8.94113615       5.15751141       2.27158747        3       1.00000000      -0.04708554      -0.17522499       0.17357534
Pt      11.56439247       5.12385297       2.23655763        3       0.00000000       0.09076068      -0.08137230       0.09977533
Ni       5.12872880       7.37273068       2.25860836        3       1.00000000       0.03362793      -0.10504863      -0.02019842
Ni       7.64760963       7.39810014       2.25319075        3       1.00000000      -0.18146924      -0.10361409       0.01014511
Pt      10.21533825       7.33066666       2.23264098        3       0.00000000      -0.07271240      -0.09126488      -0.21285943
Ni      12.84357622       7.37762549       2.19436586        3       1.00000000       0.07963258      -0.16289710      -0.02689289
Ni      -0.00614515       1.54304883       4.33589912        2       1.00000000      -0.09763423       0.13504874      -0.07243169
Pt       2.49466228       1.55628311       4.25335718        2       0.00000000      -0.05034577       0.01156284       0.11533457
Ni       5.13604856       1.52614611       4.31439878        2       1.00000000      -0.07364436      -0.00784889      -0.16433405
Ni       7.69321294       1.52829805       4.34272932        2       1.00000000       0.06410486      -0.02196857      -0.05937179
Ni       1.26049546       3.74040611       4.39938070        2       1.00000000      -0.07259147       0.02406519       0.02130323
Ni       3.82296521       3.76646981       4.30936149        2       1.00000000      -0.05054714       0.05837424      -0.19660905
Pt       6.42779244       3.71807091       4.30123995        2       0.00000000      -0.04436461      -0.01920921       0.06181193
Ni       9.00172529       3.74837250       4.33801745        2       1.00000000       0.09734828       0.01653095      -0.22863416
Ni       2.57617979       5.86113958       4.40112212        2       1.00000000       0.02738947      -0.11831865      -0.06135394
Ni       5.11992180       5.90590054       4.31320861        2       1.00000000       0.06069836      -0.14546052      -0.20366833
Ni       7.70617260       5.89154293       4.33345249        2       1.00000000       0.02531756      -0.11498749      -0.26130440
Ni      10.24271504       5.86106468       4.42303305        2       1.00000000       0.01763509      -0.08879344      -0.02792066
Pt       3.91528406       8.08094359       4.33545126        2       0.00000000       0.04356495      -0.10175439       0.18718560
Ni       6.40099951       8.12648499       4.31242687        2       1.00000000      -0.05893804      -0.03739635      -0.20579418
Pt       8.89447846       8.08482093       4.34032610        2       0.00000000      -0.03052874      -0.00435749       0.10029113
Pt      11.56479972       8.11288316       4.31937324        2       0.00000000      -0.00597062      -0.06800048       0.03445397
Pt       0.00986266       0.04283791       6.52811920        1       0.00000000       0.02125910       0.05972847       0.07355081
Pt       2.55544769       0.02349653       6.56049000        1       0.00000000      -0.01387746       0.01931464       0.25820852
Pt       5.12718250      -0.01447151       6.44260084        1       0.00000000       0.07046179      -0.10606179      -0.38521267
Pt       7.67703065      -0.00390239       6.55971109        1       0.00000000      -0.03634146      -0.05986882       0.14083771
Ni       1.26840796       2.31385532       6.49383480        1       1.00000000      -0.06168173       0.21747459      -0.15229295
Pt       3.80538446       2.29845497       6.43514048        1       0.00000000      -0.10198052       0.07343084      -0.29860511
Ni       6.41858827       2.26241593       6.42240910        1       1.00000000      -0.01595988       0.01496528      -0.26844558
Pt       8.97494152       2.35819667       6.48466941        1       0.00000000      -0.00966840       0.11988126       0.00563355
Ni       2.50346957       4.49295338       6.48534312        1       1.00000000      -0.14117700       0.02781422      -0.21687353
Pt       5.09168552       4.47784867       6.52632005        1       0.00000000      -0.05263475       0.02096739       0.11625309
Ni       7.72571231       4.47637691       6.42499427        1       1.00000000       0.07066700       0.08447165      -0.31175038
Ni      10.27310589       4.50379440       6.48598822        1       1.00000000       0.05767984       0.06008672      -0.17716199
Ni       3.79978572       6.62686478       6.51501690        1       1.00000000      -0.11464920      -0.09169246      -0.12857324
Pt       6.44678420       6.62821851       6.41427910        1       0.00000000       0.06106044       0.01613905      -0.33916254
Ni       9.01096751       6.59143881       6.50909221        1       1.00000000       0.11513380      -0.21692291      -0.18996531
Ni      11.52682860       6.59892782       6.51794320        1       1.00000000      -0.00745779      -0.11396531      -0.17832765
