64
Lattice="10.328242361733619 0.0015255899641755488 -0.04094757552330259 5.165442380531545 8.823073820120339 -0.09410490850334113 -0.03343355541205634 -0.06942008637708572 8.7644863025743" Properties=species:S:1:pos:R:3:tags:I:1:initial_magmoms:R:1:forces:R:3 unique_id=eb971c95f1c74ab2a8f58f32cb10fbde stress="0.00019727753895355804 -2.3914468406917296e-06 1.2720098365714039e-05 -2.3914468406917296e-06 0.00021439143434238278 1.0380875981590666e-05 1.2720098365714039e-05 1.0380875981590666e-05 0.0001969947702971514" energy=-396.4694602269789 pbc="T T T"
Ni       0.01127198      -0.06795061       0.18531762        4       1.00000000       0.07336546      -0.12550633       0.27882107
Ni       2.57061023      -0.05978443       0.19069159        4       1.00000000      -0.04729604      -0.09767140       0.31751878
Ni       5.16068153      -0.03900262       0.14510418        4       1.00000000      -0.04724387      -0.06076446       0.19802116
Ni       7.73063401      -0.06531114       0.14369737        4       1.00000000      -0.06894066      -0.11831923       0.26826978
Pt       1.28450280       2.20522296       0.16384972        4       0.00000000       0.00433160      -0.02366561       0.26988459
Pt       3.85646985       2.17080701       0.16052224        4       0.00000000      -0.07620446      -0.03354823       0.24336235
Pt       6.45768010       2.16996841       0.06105861        4       0.00000000       0.00569791      -0.03030515      -0.05270544
Pt       9.03738616       2.25135230       0.07403038        4       0.00000000      -0.02163306       0.08219350       0.15813814
Ni       2.57188894       4.46181285       0.02716890        4       1.00000000       0.02739841       0.07522707       0.04077976
Pt       5.15832476       4.51507675       0.03855489        4       0.00000000      -0.04100411       0.12890350      -0.10402821
Ni       7.74201343       4.46324244       0.00615573        4       1.00000000      -0.10419026       0.15165523       0.10843879
Ni      10.33054503       4.46275938      -0.01276132        4       1.00000000       0.01425820       0.15943968       0.03699039
Ni       3.84789022       6.64718976       0.03400943        4       1.00000000      -0.08556483       0.10699631       0.19158184
Ni       6.46848594       6.65416410       0.03500030        4       1.00000000       0.03259469       0.09756763       0.19201768
Ni       9.01096651       6.61500729       0.05921273        4       1.00000000      -0.14338051       0.00984712       0.17785059
Ni      11.63869908       6.61236016      -0.03230413        4       1.00000000       0.05909339      -0.05754993      -0.01264083
Ni       1.30979326       0.69381628       2.23762681        3       1.00000000       0.00818031      -0.01546573       0.14010997
Ni       3.81656772       0.71896004       2.19107284        3       1.00000000      -0.17120517      -0.04909419      -0.00380001
Ni       6.46092007       0.72773381       2.17710116        3       1.00000000       0.11190224      -0.00465514       0.00132534
Pt       9.04042391       0.71159348       2.18059886        3       0.00000000       0.07493786       0.15190826      -0.14557575
Ni       2.59351750       2.90976545       2.26027081        3       1.00000000       0.04971454      -0.08650587       0.13823454
Ni       5.15122668       2.95376507       2.19267672        3       1.00000000      -0.05087893       0.19241614      -0.02152408
Ni       7.71324880       2.92574700       2.18923335        3       1.00000000       0.00768449      -0.05500873      -0.02415195
Ni      10.33926788       2.91696717       2.22424703        3       1.00000000       0.06917115      -0.06701874       0.15339207
Ni       3.87342627       5.13531799       2.15614149        3       1.00000000      -0.00345448       0.00984163       0.04929601
Ni       6.43958417       5.15767988       2.13155438        3       1.00000000       0.01584287       0.07740208      -0.01422791
Pt       8.97298281       5.10020653       2.14114185        3       0.00000000      -0.00560655      -0.00997984       0.03578593
Pt      11.67878900       5.09317189       2.13238319        3       0.00000000       0.06803982      -0.09722150      -0.02484799
Ni       5.18681362       7.30664241       2.08973961        3       1.00000000       0.02783229      -0.09746428      -0.01831524
Ni       7.67336791       7.34973131       2.08610966        3       1.00000000      -0.14353852      -0.07179376       0.05261621
Pt      10.35644988       7.37524229       2.06383860        3       0.00000000       0.07713575      -0.03149460       0.04026803
Ni      12.92225407       7.31736725       2.06008628        3       1.00000000       0.06981273      -0.11691503      -0.02967203
Ni       0.01305526       1.46061725       4.29222792        2       1.00000000       0.10508288       0.03238864      -0.04433796
Ni       2.52618418       1.46115071       4.26029545        2       1.00000000      -0.04833130       0.04660674      -0.07889170
Pt       5.16586513       1.43534406       4.21268303        2       0.00000000      -0.09979473      -0.02021497       0.03535829
Ni       7.73053534       1.43934726       4.27728440        2       1.00000000       0.01375465      -0.06809015      -0.12185006
Ni       1.28057370       3.66843303       4.29212509        2       1.00000000       0.04243844      -0.01592632      -0.05779071
Ni       3.79718496       3.67496198       4.26608580        2       1.00000000      -0.07949334       0.03293323      -0.15962571
Pt       6.51502548       3.65387236       4.28553656        2       0.00000000       0.05870976      -0.04610491      -0.08101100
Ni       9.06700855       3.67111942       4.26037451        2       1.00000000       0.17276603       0.02831422      -0.09865864
Ni       2.53641049       5.81624462       4.33425033        2       1.00000000      -0.01691872      -0.03573516      -0.02731157
Pt       5.14574484       5.84483238       4.27321763        2       0.00000000       0.03342865      -0.02077054      -0.11671460
Ni       7.72822299       5.83793223       4.27425317        2       1.00000000      -0.03366916       0.03485517      -0.06960623
Ni      10.35208865       5.80439268       4.29395308        2       1.00000000       0.08674167      -0.03211129      -0.03489850
Pt       3.82067634       8.03549433       4.21864643        2       0.00000000      -0.06591315      -0.02088710       0.10525233
Ni       6.43599026       8.06586509       4.20647595        2       1.00000000      -0.09072571       0.05989858      -0.15895388
Pt       8.96771867       8.00988170       4.17797587        2       0.00000000      -0.11039615      -0.07789939       0.07869852
Ni      11.61093173       8.00682630       4.21978944        2       1.00000000      -0.02510632      -0.14006299      -0.05331614
Pt      -0.02264328      -0.12391321       6.53082461        1       0.00000000       0.03939561      -0.07873233       0.10124585
Pt       2.54701831      -0.08142622       6.51521211        1       0.00000000      -0.03076682       0.01758719       0.15258523
Pt       5.16771943      -0.07634884       6.52066473        1       0.00000000       0.05770281      -0.01298435       0.01367304
Pt       7.71077998      -0.10220887       6.49909771        1       0.00000000      -0.06579033      -0.07527229       0.14523154
Pt       1.26375842       2.25612454       6.36634893        1       0.00000000       0.05395360       0.08017289      -0.17838850
Pt       3.88496665       2.27122196       6.39367613        1       0.00000000       0.07433641       0.22075523      -0.24721294
Ni       6.44008212       2.19564272       6.38626452        1       1.00000000      -0.01446668       0.02360256      -0.24442842
Pt       8.96819041       2.24753328       6.31986214        1       0.00000000      -0.01657540       0.09626828      -0.37268072
Ni       2.55557640       4.44120693       6.41407317        1       1.00000000       0.02571739       0.14555719      -0.25249205
Ni       5.15591894       4.40601769       6.37223065        1       1.00000000       0.04114870       0.12439100      -0.22600279
Ni       7.68697459       4.37333654       6.42731710        1       1.00000000      -0.15372026       0.01386967      -0.10598667
Ni      10.34252008       4.39495732       6.38387471        1       1.00000000       0.19285635       0.03355687      -0.27762128
Ni       3.83411455       6.49761450       6.43539713        1       1.00000000      -0.01095690      -0.12406168      -0.06935462
Ni       6.42537043       6.50554862       6.42212182        1       1.00000000       0.03582611      -0.07835433      -0.08686771
Pt       9.02220446       6.43646803       6.42941051        1       0.00000000       0.01120744      -0.06533126       0.09909412
Ni      11.62534582       6.49788620       6.37531047        1       1.00000000       0.03070620      -0.07166881      -0.20835009
