64
Lattice="10.301090448223258 0.019257583124876278 -0.011849233824203725 5.16722278031326 8.890197879709786 -0.008905211382709112 0.0 0.0 21.549696675844164" Properties=species:S:1:pos:R:3:tags:I:1:initial_magmoms:R:1:forces:R:3 unique_id=76da3e448ccb4269b317abdccc34adb5 energy=-374.78861132435145 stress="0.005222536469812959 0.0003617007391897829 6.17118218631216e-05 0.0003617007391897829 0.0057703399091441196 -7.486583337048325e-05 6.17118218631216e-05 -7.486583337048325e-05 -0.001557210070825571" pbc="T T T"
Ni      -0.00065481       0.02499766       0.12617307        1       1.00000000       0.09537460      -0.02306458      -0.16496293
Ni       2.54245132       0.01724732       0.15237237        2       1.00000000      -0.04635615       0.07280929      -0.16005470
Pt       5.14663083      -0.02054650       0.07905832        1       0.00000000      -0.01261124       0.22794346      -0.95904855
Ni       7.75834358      -0.02509662       0.11642756        1       1.00000000      -0.07087315      -0.11519093      -0.23075527
Ni       1.25226746       2.22972025       0.05141906        1       1.00000000      -0.08747295       0.04435492       0.45645492
Pt       3.78681554       2.28609283       0.13349541        1       0.00000000       0.03130510       0.00590144      -0.52385553
Pt       6.48762177       2.23262950       0.05467314        1       0.00000000       0.00197698      -0.01836605      -0.03913558
Ni       9.06641489       2.23707405       0.08113693        1       1.00000000       0.08158924       0.14096807      -0.02750582
Ni       2.57257447       4.47867012       0.01295722        0       1.00000000       0.07807106       0.00614223       0.26748052
Ni       5.12662217       4.47942489       0.12383211        1       1.00000000      -0.04976916       0.09162886       0.07869962
Pt       7.81317797       4.47330490       0.03887765        0       0.00000000       0.01838530       0.02111681       0.05378660
Ni      10.34291634       4.45156190       0.00876019        0       1.00000000       0.07287748      -0.10357314       0.31704119
Ni       3.83853737       6.66334230       0.05089355        1       1.00000000      -0.00140220      -0.03423841       0.44359378
Pt       6.41248371       6.71432312       0.12650185        1       0.00000000      -0.10247554       0.03093312      -0.48556291
Ni       9.03924030       6.66295178       0.01540965        0       1.00000000      -0.06176320      -0.00958931       0.10832031
Ni      11.63349429       6.64829304       0.00000000        0       1.00000000       0.07919497       0.05766778       0.21179293
Ni       1.29420747       0.76549663       2.10846543        3       1.00000000      -0.00732866       0.12892013      -0.03287353
Ni       3.84200966       0.77149699       2.16817062        4       1.00000000       0.05903982       0.01835922       0.19895820
Ni       6.44165856       0.79370491       2.18570754        4       1.00000000      -0.05054458       0.19034505       0.27195983
Pt       9.02436078       0.79391544       2.12893107        3       0.00000000      -0.00432017       0.09876312       0.16112951
Ni       2.56797513       2.97158530       2.17422278        4       1.00000000       0.04502871       0.04945461       0.04575325
Ni       5.14538445       2.99040773       2.18766958        4       1.00000000      -0.06797006       0.03218244       0.18082526
Ni       7.74533378       2.99466117       2.18459486        4       1.00000000       0.05055209       0.07683324       0.21139667
Ni      10.30646470       2.97524425       2.14625815        3       1.00000000       0.03771908       0.01124703       0.11878564
Ni       3.90437159       5.18311940       2.15925524        4       1.00000000       0.11621324      -0.05728033       0.11950424
Ni       6.43082565       5.18746564       2.17765558        4       1.00000000      -0.04237406       0.01933406       0.14934059
Ni       8.99465633       5.16388965       2.17143459        4       1.00000000      -0.08217133      -0.22137262       0.22891313
Pt      11.65270712       5.12959221       2.11040893        3       0.00000000       0.12033824      -0.12692544       0.08190028
Ni       5.13089392       7.37414198       2.14382329        3       1.00000000      -0.19064921      -0.17683514       0.03953208
Ni       7.72638512       7.40381721       2.13439810        3       1.00000000       0.03265528      -0.09796002       0.02779415
Pt      10.29067838       7.35867367       2.12068373        3       0.00000000      -0.01650426      -0.19931477      -0.29240843
Ni      12.92239149       7.39487546       2.09201541        3       1.00000000       0.07407689      -0.10966443      -0.01945531
Ni      -0.01893085       1.54288346       4.29946353        6       1.00000000      -0.07968906       0.06708727      -0.15554340
Pt       2.53097448       1.58144962       4.20754378        5       0.00000000      -0.03901132      -0.00987383      -0.01319882
Ni       5.16663601       1.52920243       4.26865589        6       1.00000000      -0.03253726       0.06540856      -0.35574907
Ni       7.73412175       1.52638976       4.28804971        6       1.00000000       0.05296732      -0.05241440      -0.24796111
Ni       1.28813507       3.69757934       4.34354475        6       1.00000000       0.01320505      -0.02990863      -0.02533708
Ni       3.85076105       3.76243079       4.25964216        6       1.00000000      -0.02338573       0.07825718      -0.31009319
Pt       6.45831077       3.70846756       4.24077728        5       0.00000000      -0.05780638       0.02479021      -0.01188946
Ni       9.02148750       3.69300757       4.27214533        6       1.00000000       0.01789914      -0.14370518      -0.34065044
Ni       2.61077908       5.86076976       4.33822292        6       1.00000000       0.06848078      -0.16874444      -0.06978247
Ni       5.12595791       5.88513412       4.25880112        6       1.00000000      -0.03410238      -0.13079073      -0.35284220
Ni       7.73811178       5.88067270       4.27315505        6       1.00000000      -0.02116633      -0.08540571      -0.33570504
Pt      10.30711320       5.82645915       4.37116692        7       0.00000000       0.06918065      -0.02585559       0.01661335
Pt       3.87787732       8.09037351       4.26694843        6       0.00000000       0.03493684      -0.09656765       0.04889374
Pt       6.42532581       8.12271362       4.17059371        5       0.00000000      -0.09216636       0.02517225      -0.23443882
Pt       8.99212639       8.14406647       4.25264436        6       0.00000000      -0.07893080       0.02703175      -0.06438391
Pt      11.63469083       8.16703725       4.22385150        5       0.00000000       0.04408711      -0.03628115      -0.09331590
Pt      -0.00495698       0.02150740       6.52932870        9       0.00000000      -0.01610361       0.16669803       0.22684433
Pt       2.56534103       0.00791345       6.54969668        9       0.00000000       0.08183748       0.03609025       0.42472558
Pt       5.15813070      -0.02453724       6.41951674        8       0.00000000      -0.03031172       0.17923946       1.11684883
Pt       7.71502829      -0.01576064       6.53104692        9       0.00000000       0.03094040       0.17872800       0.32524969
Ni       1.26936706       2.29388072       6.46095517        9       1.00000000      -0.03579659       0.14838551      -0.27081141
Pt       3.82665355       2.28575633       6.40506199        8       0.00000000       0.07792058       0.01438834       0.51093483
Ni       6.45195191       2.25030460       6.38117563        8       1.00000000      -0.03160135      -0.02717778       0.06417812
Pt       9.02053068       2.34213318       6.44041622        8       0.00000000      -0.02515382      -0.04211100      -0.00835564
Ni       2.52103690       4.48006675       6.44559974        8       1.00000000      -0.06913121      -0.00054954      -0.38409338
Pt       5.11649760       4.46519099       6.47256634        9       0.00000000      -0.04925578       0.03513883       0.00384872
Ni       7.76265475       4.46283999       6.37652105        8       1.00000000       0.02930837       0.10539544      -0.03648428
Ni      10.33235846       4.46883303       6.47063097        9       1.00000000       0.06131363      -0.06571486      -0.16889878
Ni       3.81969520       6.62416926       6.46228428        9       1.00000000      -0.06982854      -0.05135384      -0.26035404
Pt       6.48080511       6.61478623       6.39816269        8       0.00000000       0.04464901      -0.11108617       0.44088961
Ni       9.04917061       6.60543651       6.46900065        9       1.00000000       0.00020491      -0.10809995      -0.09189915
Ni      11.60922770       6.61304362       6.47032197        9       1.00000000       0.05923481       0.00229964      -0.18458334
