64
Lattice="10.35281310036417 -0.002000185977469998 0.022417338130687695 5.174674338313302 8.974033007788083 0.019889610268621932 0.018303679937207242 0.008184469855892816 8.85639695690216" Properties=species:S:1:pos:R:3:tags:I:1:initial_magmoms:R:1:forces:R:3 unique_id=3453c4cebd90432283376ff65d5af239 stress="3.6387078665309214e-05 7.846813909911564e-07 -7.040764400667484e-06 7.846813909911564e-07 3.193637883671524e-05 5.377598218282376e-06 -7.040764400667484e-06 5.377598218282376e-06 5.180568223624865e-05" energy=-401.2400708981131 pbc="T T T"
Ni      -0.01416928       0.02527155       0.19005014        4       1.00000000      -0.07462708       0.13829090       0.41828431
Ni       2.58684412       0.00253012       0.10585341        4       1.00000000      -0.00276451       0.00491487       0.28670160
Ni       5.17461123      -0.02063195       0.16106097        4       1.00000000       0.02641325       0.09409734       0.29184600
Ni       7.78873053      -0.03756357       0.12332967        4       1.00000000       0.12892256      -0.15988606       0.29312334
Ni       1.27434854       2.22870365       0.17484857        4       1.00000000      -0.06687118      -0.11427732       0.35536469
Pt       3.80496523       2.18698784       0.12837132        4       0.00000000      -0.04092629      -0.02747495      -0.08258808
Pt       6.51948674       2.15149767       0.21019829        4       0.00000000       0.09851924      -0.14195743       0.11946919
Ni       9.08224121       2.20879597       0.16350990        4       1.00000000       0.03340507      -0.21355308       0.13929301
Ni       2.55794501       4.49457593       0.15071042        4       1.00000000       0.03248337      -0.05222314       0.22602323
Pt       5.15791573       4.49441319       0.16281018        4       0.00000000       0.08386743      -0.02758566       0.22540860
Pt       7.86893835       4.49780756       0.12794908        4       0.00000000       0.20075814      -0.00093178      -0.09096516
Ni      10.37549232       4.49501054       0.08662108        4       1.00000000       0.14095690       0.01147555       0.06773382
Ni       3.84244423       6.77539635       0.18715317        4       1.00000000      -0.04379231       0.14802146       0.35720402
Pt       6.48489471       6.82170270       0.22349505        4       0.00000000       0.00274950       0.08564096       0.13124823
Ni       9.08458964       6.74760813       0.09868460        4       1.00000000       0.07261057       0.07487645       0.12143655
Ni      11.65567142       6.74345076       0.09352510        4       1.00000000       0.11630726       0.10973246       0.03524783
Ni       1.30189082       0.73186793       2.18721259        3       1.00000000       0.02524762      -0.02394093      -0.13356237
Ni       3.87383033       0.76198014       2.23031269        3       1.00000000      -0.01027793       0.01014923       0.02443657
Ni       6.50043731       0.75205013       2.26809591        3       1.00000000       0.11151908       0.01876222       0.20007974
Ni       9.04289880       0.73563591       2.21857804        3       1.00000000      -0.15106816      -0.00857890      -0.10655074
Ni       2.60334764       2.96618032       2.22348134        3       1.00000000      -0.03238360       0.00031712      -0.00120146
Ni       5.17493366       2.95273413       2.28033452        3       1.00000000      -0.12119267      -0.17396190       0.05581066
Ni       7.77357218       2.97204856       2.26636614        3       1.00000000       0.08151049      -0.14808626      -0.06490576
Pt      10.30666461       2.92504642       2.22271053        3       0.00000000      -0.10665511      -0.05529862       0.06566160
Pt       3.87408400       5.24800958       2.26779119        3       0.00000000      -0.04180664      -0.06593787      -0.04531057
Ni       6.52220835       5.23747051       2.26242186        3       1.00000000       0.15797127       0.05190725      -0.06592371
Ni       9.02946228       5.23949033       2.27113667        3       1.00000000      -0.08670186       0.01110389       0.18612537
Pt      11.63137792       5.24623317       2.18850592        3       0.00000000      -0.20746712       0.03731381      -0.01932374
Ni       5.16581146       7.52534606       2.21848267        3       1.00000000      -0.12495984       0.14916005      -0.06813382
Ni       7.76821600       7.49348505       2.25252436        3       1.00000000       0.06310611       0.04184646       0.02877581
Pt      10.32761086       7.51986218       2.16172229        3       0.00000000      -0.01285154      -0.00257502      -0.00104958
Ni      12.95810097       7.52093551       2.22432686        3       1.00000000      -0.06821623       0.13560436      -0.06903696
Ni      -0.02420462       1.52212940       4.38109234        2       1.00000000      -0.04049049       0.07296042      -0.11457142
Pt       2.65074326       1.53835520       4.35018625        2       0.00000000       0.03169222       0.05705772      -0.17162448
Ni       5.19085743       1.52359091       4.37556173        2       1.00000000       0.08386892       0.04294267      -0.26739714
Ni       7.79375041       1.51524345       4.37446124        2       1.00000000       0.10536144       0.06833974      -0.30520413
Pt       1.28670310       3.73496844       4.38341252        2       0.00000000       0.00921064      -0.05229902      -0.00478359
Ni       3.89836683       3.72205286       4.39760635        2       1.00000000       0.07982312       0.00902061      -0.14116023
Pt       6.54122678       3.70239367       4.30170714        2       0.00000000      -0.02587824      -0.06634227      -0.06698195
Ni       9.05053816       3.73075769       4.41897255        2       1.00000000       0.00641027      -0.05903341      -0.22279977
Ni       2.58834326       5.98453737       4.41392055        2       1.00000000      -0.07398395       0.06872588      -0.07151140
Pt       5.18680448       5.97519488       4.35352075        2       0.00000000       0.12135086       0.07779390       0.08262376
Ni       7.79070369       5.94576043       4.39716251        2       1.00000000      -0.01693856      -0.08586041      -0.27639224
Pt      10.31441202       5.94927601       4.49405040        2       0.00000000      -0.01786981      -0.02077122      -0.04902193
Pt       3.87173180       8.29526089       4.32545349        2       0.00000000      -0.02258734       0.07557757      -0.12688397
Pt       6.47785594       8.26146867       4.32327006        2       0.00000000      -0.02680075       0.12267301      -0.12991588
Pt       9.05110739       8.22189133       4.41479057        2       0.00000000      -0.06007354       0.01780603      -0.02857448
Pt      11.67659301       8.27169077       4.41909453        2       0.00000000      -0.01480298       0.05542584      -0.05849866
Pt       0.01146795       0.01448633       6.62486022        1       0.00000000      -0.00959291      -0.03280693       0.20119115
Ni       2.62549038       0.00518918       6.59924106        1       1.00000000       0.00650283      -0.00126516      -0.13032484
Pt       5.15710817      -0.04663204       6.64379529        1       0.00000000      -0.13837942      -0.18659906       0.17907508
Ni       7.76118321      -0.00040656       6.60491941        1       1.00000000      -0.05515830       0.03295284      -0.11680598
Pt       1.34149955       2.23475677       6.63739061        1       0.00000000       0.10712010      -0.04228049       0.20419839
Ni       3.89312050       2.22997657       6.51571744        1       1.00000000       0.03317902      -0.04723446      -0.26784219
Pt       6.48264149       2.19875916       6.51648398        1       0.00000000      -0.03709036      -0.10702561      -0.15854746
Pt       9.06349560       2.30535563       6.57153517        1       0.00000000       0.04335649       0.08699988      -0.00730572
Pt       2.54613852       4.51777167       6.60555784        1       0.00000000      -0.17044726       0.06082778       0.06483430
Pt       5.19114058       4.45223622       6.52521828        1       0.00000000       0.00767952      -0.02783076      -0.27700645
Ni       7.82194984       4.50716030       6.51292634        1       1.00000000       0.07729404       0.00699720      -0.34191169
Ni      10.32961790       4.52879773       6.61444924        1       1.00000000      -0.14117301       0.06402766      -0.09287576
Pt       3.81344950       6.77728279       6.63032409        1       0.00000000      -0.08369299       0.08745535       0.14841060
Pt       6.59613827       6.72592294       6.55227132        1       0.00000000       0.12858761       0.00178406      -0.10023773
Ni       9.09142406       6.70208645       6.61576112        1       1.00000000       0.06650880      -0.17261217      -0.07531244
Ni      11.62688883       6.73009957       6.62156325        1       1.00000000      -0.15677176      -0.01435264      -0.15756395
