64
Lattice="10.149350957347869 -0.005303880630773438 -0.0015789533491542553 5.070082183309098 8.714514601107638 -0.035165755375075526 0.0 0.0 21.44852450751656" Properties=species:S:1:pos:R:3:tags:I:1:initial_magmoms:R:1:forces:R:3 unique_id=90083d07c0d14b02910bc88317322b63 energy=-367.99696537122304 stress="0.002016545738172894 -8.82914351795261e-05 4.3990286081649077e-05 -8.82914351795261e-05 0.0013723107885362622 3.391253168798324e-05 4.3990286081649077e-05 3.391253168798324e-05 -0.0049493742451969" pbc="T T T"
Ni       0.04239628      -0.05175254       0.15369088        2       1.00000000       0.07364401      -0.01822342      -0.47654288
Ni       2.49035936      -0.03431981       0.16723954        2       1.00000000       0.06623908       0.01460407      -0.28515599
Pt       5.10041047      -0.01878764       0.10260535        1       0.00000000      -0.10861863       0.21881087      -1.10925171
Ni       7.62424496      -0.05731352       0.12971680        1       1.00000000      -0.06457854      -0.06996397      -0.51738793
Ni       1.25995759       2.19301571       0.07208088        1       1.00000000      -0.04179850       0.03208486       0.23127700
Pt       3.76458806       2.25232741       0.12327869        1       0.00000000       0.04332115      -0.05902971      -0.58954751
Ni       6.34570634       2.23158874       0.06714015        1       1.00000000      -0.04861888       0.01592439       0.15804341
Pt       8.87893399       2.23850413       0.08067039        1       0.00000000       0.02381072       0.19253507      -1.02359140
Ni       2.51101676       4.40213172       0.03911451        0       1.00000000       0.05740046       0.00850697       0.35693829
Ni       5.09460486       4.40818171       0.04533468        0       1.00000000      -0.07454547       0.03785767       0.29652739
Ni       7.57164730       4.39937203       0.05195046        1       1.00000000       0.05036162       0.02439298       0.25233476
Ni      10.17877054       4.39199276       0.04482982        0       1.00000000      -0.03890333       0.02034387       0.33371884
Ni       3.81411910       6.50935526       0.03470821        0       1.00000000       0.05070584       0.00299099       0.27517907
Ni       6.32746167       6.51825971       0.03708768        0       1.00000000      -0.00262098       0.03520803       0.30029840
Ni       8.83048082       6.47372594       0.10486510        1       1.00000000      -0.09702310      -0.01404986      -0.32065307
Ni      11.45860484       6.47290836       0.00000000        0       1.00000000       0.03635056       0.06599440       0.14997247
Ni       1.31598472       0.71693333       2.11403101        3       1.00000000       0.04106037       0.05840064       0.14361829
Ni       3.77292549       0.75487266       2.15623877        4       1.00000000      -0.03601472       0.02636608       0.20744875
Ni       6.32798562       0.76615673       2.17586804        4       1.00000000      -0.05544159       0.09432256       0.16315904
Pt       8.86035695       0.69058671       2.12239406        3       0.00000000       0.01206312      -0.12503511       0.17913269
Ni       2.50935391       2.93008036       2.17926686        4       1.00000000      -0.00213025       0.01909768       0.09766994
Ni       5.07612280       2.92667572       2.13938931        3       1.00000000      -0.00568678       0.04644714       0.05450006
Ni       7.58101839       2.94155129       2.13460760        3       1.00000000      -0.05574869       0.01634481       0.11779821
Ni      10.19286917       2.96283365       2.12675083        3       1.00000000       0.05142051       0.04914651       0.11084802
Ni       3.80641168       5.06402772       2.10421548        3       1.00000000       0.03261271      -0.08046802       0.04046919
Ni       6.33403295       5.08843119       2.08250254        3       1.00000000      -0.02106982      -0.03201175       0.05989530
Ni       8.84746266       5.02332483       2.11294657        3       1.00000000      -0.04516966      -0.08594167       0.07209161
Ni      11.45568838       5.01546832       2.11479931        3       1.00000000       0.08043678      -0.08509209       0.12870299
Ni       5.10662572       7.18376592       2.07156531        3       1.00000000      -0.03200635      -0.07628534       0.09258740
Ni       7.54621608       7.21597066       2.06959115        3       1.00000000      -0.02345792      -0.06934913       0.10591424
Pt      10.19071888       7.14795863       2.11283629        3       0.00000000       0.04254181      -0.21504942       0.07469653
Ni      12.69788804       7.16317726       2.06035271        3       1.00000000       0.09056786      -0.13068918       0.06810149
Pt       0.09042579       1.49733677       4.20128168        6       0.00000000       0.13868523      -0.11823262      -0.01111455
Ni       2.56632414       1.49467509       4.17661473        6       1.00000000       0.09330071       0.04061109      -0.22126542
Ni       5.08009611       1.45710559       4.16530138        6       1.00000000      -0.01154757      -0.01678505      -0.27370207
Ni       7.56356945       1.43001565       4.22149704        6       1.00000000      -0.07644401      -0.09282055      -0.16649255
Ni       1.30265268       3.67065461       4.23513174        6       1.00000000       0.05750817      -0.00520298      -0.10126248
Ni       3.76730511       3.67422072       4.16586713        6       1.00000000      -0.00921717       0.09752556      -0.20088212
Pt       6.33063854       3.62914028       4.22238192        6       0.00000000       0.00803448      -0.04842173       0.01985885
Ni       8.89695857       3.69468662       4.17721318        6       1.00000000       0.03335786       0.08472339      -0.18209278
Ni       2.51056725       5.73105374       4.22082361        6       1.00000000      -0.02718704      -0.02645321      -0.16609140
Ni       5.07135746       5.76004691       4.22013557        6       1.00000000       0.02064518      -0.04644779      -0.15949483
Ni       7.58606910       5.77790527       4.18426075        6       1.00000000      -0.02256815       0.00734935      -0.16799285
Ni      10.18696100       5.72864002       4.22837228        6       1.00000000       0.01473933       0.02146787      -0.09415825
Pt       3.79068480       7.85339362       4.17898526        6       0.00000000       0.04372167       0.02655905       0.00366643
Ni       6.33080218       7.90801375       4.15770207        6       1.00000000      -0.03942297      -0.08233513      -0.17652812
Pt       8.81832977       7.96293037       4.13426277        5       0.00000000      -0.09445084       0.00090931      -0.11173848
Ni      11.42435451       7.92969149       4.17621279        6       1.00000000      -0.00507047      -0.11421692      -0.20018647
Pt       0.00621545      -0.08730975       6.44852451        9       0.00000000      -0.18234162       0.07723933       0.40425952
Pt       2.51021777      -0.01391036       6.41953757        9       0.00000000       0.21500791       0.08950210       0.28849466
Pt       5.10191850      -0.01041339       6.26660923        8       0.00000000      -0.11193425       0.10035653       1.09234241
Pt       7.60285135      -0.07536622       6.40953350        9       0.00000000       0.11622636       0.16683864       0.42344728
Ni       1.27672240       2.23771153       6.35897800        9       1.00000000       0.02984844       0.03408092      -0.01141392
Pt       3.80147903       2.29998474       6.24587603        7       0.00000000      -0.03525887      -0.12564923       0.57836266
Ni       6.33402789       2.21546705       6.35140688        9       1.00000000      -0.00323530      -0.02812745       0.03341104
Pt       8.85890833       2.27727522       6.26148086        8       0.00000000      -0.14937124      -0.11326862       1.05315055
Ni       2.51032998       4.39586684       6.31862329        8       1.00000000       0.05856869      -0.03514668      -0.30654462
Ni       5.07934054       4.40052949       6.35017076        9       1.00000000      -0.07169557       0.01153946      -0.21338181
Ni       7.53523190       4.34610819       6.35759786        9       1.00000000      -0.02273169       0.00403421      -0.09042849
Ni      10.23203342       4.33333566       6.32117829        8       1.00000000       0.02343825      -0.00849573      -0.22781853
Ni       3.79531296       6.41017615       6.34498547        8       1.00000000       0.01376061      -0.00755360      -0.19609523
Ni       6.30943391       6.44031372       6.32184204        8       1.00000000       0.00466671       0.07792749      -0.24529673
Pt       8.88035556       6.37483112       6.37241891        9       0.00000000       0.00540842       0.04280547       0.08095844
Ni      11.44934322       6.43615385       6.30644620        8       1.00000000      -0.01354467       0.06749658      -0.20276306
