64
Lattice="10.693317637297064 -0.003145964554984681 0.017050388568046724 5.34393433342451 9.242603210694963 -4.8948023315510634e-05 0.0 0.0 21.89044056891318" Properties=species:S:1:pos:R:3:tags:I:1:initial_magmoms:R:1:forces:R:3 unique_id=84bfc2f205704c40a5baec025533aa47 energy=-397.933833460846 stress="0.006096443804919333 7.540238197545145e-06 -4.6712499692101095e-05 7.540238197545145e-06 0.006160832743718389 -7.456442682062455e-05 -4.6712499692101095e-05 -7.456442682062455e-05 -0.0009963168427253293" pbc="T T T"
Pt      -0.03421907      -0.00070297       0.12239764        1       0.00000000       0.06397996      -0.03272579      -0.15357798
Pt       2.68332860      -0.02484535       0.08901390        1       0.00000000      -0.15522850       0.15855961      -0.15360803
Pt       5.36363530      -0.02354470       0.06385372        1       0.00000000       0.00299902       0.12373361      -0.09179200
Ni       8.02152531      -0.00363397       0.10400081        1       1.00000000       0.00399400      -0.03903416       0.24572690
Pt       1.33615753       2.32545763       0.11851511        1       0.00000000      -0.14470092      -0.10033243      -0.33493984
Pt       4.01426619       2.37899188       0.07092669        1       0.00000000       0.02081850      -0.04199148      -0.31378341
Pt       6.68311008       2.30940517       0.00000000        0       0.00000000      -0.05181267       0.03994947       0.01838847
Pt       9.34973697       2.27235557       0.13161295        1       0.00000000       0.11916492       0.03539542      -0.31484617
Ni       2.68611308       4.61841184       0.09992160        1       1.00000000      -0.02326843       0.03011136       0.14740304
Ni       5.33578451       4.61943865       0.08900169        1       1.00000000       0.05107303       0.01952513       0.18555787
Pt       8.00999557       4.63497741       0.08018143        1       0.00000000      -0.04672144      -0.11197957      -0.43664045
Pt      10.70128003       4.63338896       0.10305452        1       0.00000000      -0.00486907      -0.26931920      -0.40578560
Pt       4.00111542       6.88938067       0.07343316        1       0.00000000       0.06136623      -0.01304736      -0.34454137
Pt       6.68550410       6.90966440       0.07752195        1       0.00000000      -0.15901799       0.03462709      -0.25282275
Ni       9.35997999       6.93195191       0.04129412        0       1.00000000       0.01242912      -0.00751146       0.46339207
Pt      12.03277260       6.93006126       0.09234272        1       0.00000000       0.10836477       0.01066432      -0.34184547
Ni       1.29346326       0.78779215       2.33839153        2       1.00000000      -0.14384253       0.06909215       0.46767222
Pt       3.99952691       0.76688965       2.37294310        3       0.00000000       0.02593850       0.05192521       0.35410928
Pt       6.71656501       0.76047733       2.35055553        3       0.00000000       0.10753691       0.02658346       0.26532958
Ni       9.40426805       0.78756534       2.33237213        2       1.00000000       0.10316237       0.03806682       0.44883050
Pt       2.61759773       3.03980752       2.31449219        2       0.00000000      -0.02169216      -0.04209859       0.26443896
Pt       5.36404587       3.05938352       2.32481618        2       0.00000000       0.12048273       0.00439428       0.28221308
Pt       8.08472549       3.03240220       2.34018795        2       0.00000000       0.02250176      -0.04135981       0.29647961
Ni      10.69582898       3.01575994       2.32495808        2       1.00000000      -0.00930417      -0.17626648       0.45890037
Pt       4.01743426       5.38720101       2.29195737        2       0.00000000      -0.02818565      -0.08376609       0.23056360
Pt       6.66080375       5.39611999       2.33658364        2       0.00000000      -0.04370648      -0.01623536       0.36995629
Pt       9.36546164       5.38703221       2.31998804        2       0.00000000      -0.02144328       0.13142145       0.28844446
Pt      12.03680366       5.35822806       2.30863399        2       0.00000000       0.07427379      -0.01305094       0.32615150
Pt       5.37157538       7.77224211       2.38511369        3       0.00000000       0.06822045       0.05590644       0.37931645
Pt       8.00858766       7.74356685       2.37552132        3       0.00000000       0.07549486       0.03735088       0.31076035
Pt      10.68356417       7.70858516       2.36365894        3       0.00000000      -0.08108191      -0.04764081       0.28123000
Pt      13.38637240       7.75661790       2.32948853        2       0.00000000       0.12149007       0.16540831       0.27170789
Ni       0.01884377       1.51383780       4.52318643        4       1.00000000       0.01950926      -0.06738905      -0.56085279
Pt       2.64815050       1.43938896       4.53752297        4       0.00000000      -0.08578336      -0.09517701      -0.32296774
Ni       5.35708346       1.49861156       4.60050764        5       1.00000000      -0.01540372      -0.05590760      -0.42877754
Pt       7.99440820       1.48396052       4.57990850        5       0.00000000      -0.13121823      -0.02065732      -0.18965797
Pt       1.32098003       3.80880938       4.53068446        4       0.00000000       0.06977400       0.00686366      -0.36933147
Pt       4.03001152       3.84005552       4.55505701        5       0.00000000      -0.09766678      -0.02793532      -0.25859318
Pt       6.66994818       3.82585217       4.60119828        5       0.00000000      -0.01725115      -0.09010644      -0.24842205
Pt       9.38615629       3.80267723       4.54455613        4       0.00000000      -0.02209255      -0.04020845      -0.41460968
Pt       2.68683875       6.18855509       4.55043633        5       0.00000000      -0.01610914       0.02109519      -0.34660943
Ni       5.36425381       6.16859413       4.57919117        5       1.00000000       0.00831762       0.01555856      -0.42115393
Pt       8.00585434       6.23687465       4.58402782        5       0.00000000       0.04934967       0.12123584      -0.21370190
Pt      10.66678070       6.24591002       4.60467553        5       0.00000000      -0.12172651       0.15272683      -0.20197011
Pt       4.06263788       8.50780927       4.53556954        4       0.00000000      -0.00932438       0.07155329      -0.24429607
Ni       6.68023637       8.48189379       4.56982511        5       1.00000000      -0.05988773       0.02435150      -0.42563289
Ni       9.37435117       8.48335983       4.59192767        5       1.00000000       0.03924618       0.05090484      -0.35440254
Ni      12.01461769       8.49436951       4.59158669        5       1.00000000       0.01817789       0.04789223      -0.39297620
Pt       0.02102050       0.00311175       6.76372292        7       0.00000000       0.14897267       0.09447304       0.19488421
Pt       2.71620739      -0.06306345       6.75072959        7       0.00000000      -0.00200367      -0.09771889       0.13502879
Pt       5.35349190      -0.01014597       6.71735286        6       0.00000000       0.03348190      -0.02273247       0.04440283
Pt       7.99651483       0.01165261       6.86276460        8       0.00000000      -0.12876070      -0.13673023      -0.17582019
Pt       1.34512588       2.29640527       6.78521794        7       0.00000000      -0.08367339      -0.09423574       0.24282248
Pt       4.06837042       2.28940238       6.76959996        7       0.00000000       0.05926565      -0.17515282       0.18347400
Ni       6.68645221       2.29816809       6.78215122        7       1.00000000      -0.03773972      -0.01681478      -0.21413410
Pt       9.33311776       2.29846662       6.80278639        7       0.00000000       0.13222681      -0.01006648       0.19754858
Pt       2.68339902       4.61264833       6.89044057        8       0.00000000      -0.05535832       0.00490703       0.05003351
Pt       5.37280536       4.59512029       6.87571745        8       0.00000000       0.07355178       0.17155403      -0.02149352
Pt       8.02859339       4.62239809       6.79901904        7       0.00000000       0.06137848       0.01210947       0.35578811
Pt      10.67756328       4.64991315       6.81231735        7       0.00000000      -0.03479509      -0.04356398       0.37584997
Pt       4.02904069       6.92415849       6.78098899        7       0.00000000       0.10410689      -0.04339347       0.39553574
Pt       6.70798179       6.92688134       6.76982777        7       0.00000000      -0.19859190       0.03996303       0.36823765
Ni       9.36209095       6.93578844       6.84567579        7       1.00000000       0.00013757       0.01218290      -0.35643005
Pt      12.00426419       6.95148193       6.80373190        7       0.00000000       0.07147416       0.19406308       0.40583803
