64
Lattice="10.803706506926279 0.000658409899500159 0.0011335082343506674 5.402423453162211 9.356975397836473 -0.0011171589909401967 0.0009255055978007449 -0.0015876085035698767 9.481180423638486" Properties=species:S:1:pos:R:3:tags:I:1:initial_magmoms:R:1:forces:R:3 unique_id=43857a1391bc489daa0b821a33838094 stress="0.00013495384408723082 -1.8510601837276973e-07 7.727076013593561e-08 -1.8510601837276973e-07 0.00013455518359078988 -9.410793600336595e-07 7.727076013593561e-08 -9.410793600336595e-07 0.0001235648305804235" energy=-433.95021871650766 pbc="T T T"
Pt      -0.00129777      -0.00110055       0.08594902        4       0.00000000      -0.01550593      -0.00867361       0.07770863
Pt       2.70106612      -0.00010024       0.08757924        4       0.00000000      -0.00722636       0.00090410       0.08759548
Pt       5.40152535       0.00009285       0.08817132        4       0.00000000       0.00886865      -0.00187070       0.09137895
Pt       8.10438085      -0.00067170       0.08598779        4       0.00000000       0.01478267      -0.01678180       0.07183874
Pt       1.35342854       2.34243293       0.08198070        4       0.00000000       0.00674622       0.01028018       0.07960193
Pt       4.04873557       2.34257417       0.08179686        4       0.00000000      -0.01174300       0.01539200       0.08183704
Pt       6.75248303       2.33959125       0.08713669        4       0.00000000       0.00045616      -0.00259148       0.08500917
Pt       9.45346317       2.34022437       0.08561335        4       0.00000000       0.00597741      -0.01188196       0.10003334
Pt       2.70111922       4.67825966       0.01455445        4       0.00000000       0.00144383       0.00583199      -0.05005608
Pt       5.39806712       4.67928431       0.08192441        4       0.00000000      -0.02147782       0.00942448       0.07842272
Pt       8.10284531       4.67886149       0.08860625        4       0.00000000      -0.00204359      -0.00322415       0.11243101
Pt      10.80854918       4.67956720       0.08344834        4       0.00000000       0.02258175       0.00085680       0.09915568
Pt       4.05045090       7.01563568       0.08042871        4       0.00000000      -0.00837227      -0.00110358       0.07072080
Pt       6.75338702       7.01761406       0.08487291        4       0.00000000      -0.01544706       0.00481430       0.10324778
Pt       9.45350125       7.01843530       0.08797865        4       0.00000000       0.00317093       0.00081280       0.10872365
Pt      12.15552522       7.01396966       0.08037240        4       0.00000000       0.01972904      -0.01145551       0.09121341
Pt       1.34820480       0.77905919       2.39271926        3       0.00000000      -0.00014977       0.01587276       0.10601201
Pt       4.05167665       0.78043768       2.39059691        3       0.00000000      -0.00508360       0.01433340       0.12246434
Pt       6.75489239       0.77817034       2.39640068        3       0.00000000       0.00336558      -0.00417778       0.12701179
Pt       9.45361474       0.76805204       2.41918386        3       0.00000000       0.00110365      -0.06026133       0.20559910
Pt       2.70110141       3.12395237       2.39466356        3       0.00000000      -0.00481869       0.04565035       0.13736631
Pt       5.40270643       3.11886536       2.38941798        3       0.00000000      -0.01195943       0.01215432       0.14168226
Pt       8.10471173       3.11617251       2.39658740        3       0.00000000       0.00861923      -0.01945191       0.15850496
Pt      10.80249230       3.11595103       2.39286126        3       0.00000000       0.00868357      -0.01169150       0.15606566
Pt       4.04777027       5.45803667       2.39653382        3       0.00000000      -0.03376575      -0.01802618       0.11904476
Pt       6.75001933       5.46035058       2.39298513        3       0.00000000      -0.03355133       0.01314213       0.13757760
Pt       9.45463796       5.45773168       2.39182299        3       0.00000000       0.01839196      -0.00549564       0.13336194
Pt      12.16082858       5.45856267       2.39781111        3       0.00000000       0.04670569      -0.00493202       0.14752027
Pt       5.39154318       7.80249066       2.41496581        3       0.00000000      -0.06256594       0.01444449       0.18836940
Pt       8.10019263       7.79760744       2.39327163        3       0.00000000      -0.02197935       0.00326298       0.13915736
Pt      10.80881911       7.79716697       2.39305093        3       0.00000000       0.03755873      -0.01120756       0.13760108
Pt      13.51537734       7.80374042       2.41491084        3       0.00000000       0.04960901       0.00745321       0.21130665
Pt      -0.01493550       1.53245673       4.72042202        2       0.00000000      -0.01768357      -0.03534409      -0.10705949
Pt       2.69627609       1.55850883       4.72261011        2       0.00000000      -0.02997623      -0.01549105      -0.12079266
Pt       5.40592837       1.55922632       4.72257027        2       0.00000000       0.01733260       0.00337679      -0.10398609
Pt       8.12068207       1.52951186       4.71998891        2       0.00000000       0.03312860      -0.06093684      -0.10279148
Pt       1.36339266       3.90507378       4.74733165        2       0.00000000       0.02615100       0.02266989      -0.04560776
Pt       4.04020866       3.91109796       4.74753355        2       0.00000000      -0.02475170       0.05240736      -0.04149273
Pt       6.74927234       3.89808988       4.72188988        2       0.00000000      -0.02683903       0.00288769      -0.10915063
Pt       9.45766573       3.89202933       4.72135478        2       0.00000000       0.02648072      -0.03163672      -0.11247126
Pt       2.71737396       6.25266558       4.74305204        2       0.00000000       0.02479226       0.02866698      -0.06823378
Pt       5.38284494       6.26608060       4.72088988        2       0.00000000      -0.04645587       0.06865371      -0.12099090
Pt       8.09816700       6.24039761       4.71824793        2       0.00000000      -0.03005701       0.00786384      -0.12380429
Pt      10.81175752       6.23956996       4.72156815        2       0.00000000       0.02317280       0.01851855      -0.12892467
Ni       4.05111576       8.57587208       4.73559743        2       1.00000000      -0.01249662      -0.01213360      -0.03289988
Pt       6.71868053       8.57636174       4.71749666        2       0.00000000      -0.07872385       0.00614867      -0.11770231
Pt       9.45441978       8.57691052       4.71884879        2       0.00000000       0.00724454       0.00462507      -0.12093410
Pt      12.19219724       8.57331542       4.72042761        2       0.00000000       0.09470744      -0.02426691      -0.10645799
Pt      -0.00846491      -0.00670479       7.00166781        1       0.00000000      -0.02843082      -0.02180834      -0.13639132
Pt       2.69915738       0.00408362       7.02010507        1       0.00000000      -0.02037988       0.02726003      -0.12391265
Pt       5.40469037      -0.00178072       7.01954467        1       0.00000000       0.01866477      -0.00714145      -0.12780007
Pt       8.11258525      -0.01034762       7.00258228        1       0.00000000       0.02852429      -0.05076151      -0.13969161
Pt       1.36551230       2.36350537       7.01722364        1       0.00000000       0.02803094       0.04389530      -0.11217036
Pt       4.03586051       2.36583108       7.01974366        1       0.00000000      -0.04466836       0.06444687      -0.10998429
Pt       6.75096546       2.33892746       7.01920379        1       0.00000000      -0.01612678       0.00248650      -0.12989947
Pt       9.45804265       2.33909787       7.01936288        1       0.00000000       0.02899701       0.02216710      -0.11088250
Ni       2.70220839       4.67692482       7.02989193        1       1.00000000       0.00655700       0.00689756      -0.36007663
Pt       5.37004077       4.68056850       7.01714208        1       0.00000000      -0.08880120       0.03105371      -0.11331846
Pt       8.10384833       4.67806649       7.02289642        1       0.00000000      -0.00236147       0.00047008      -0.10883755
Pt      10.83671159       4.67840209       7.02143300        1       0.00000000       0.08199933       0.00560897      -0.09574355
Pt       4.03747489       6.99999445       7.00043007        1       0.00000000      -0.02516909      -0.02853096      -0.11554875
Pt       6.74724181       7.01460868       7.01894827        1       0.00000000      -0.02074642      -0.01977924      -0.10495539
Pt       9.45940175       7.01371627       7.02332862        1       0.00000000       0.02925417      -0.01355785      -0.10615571
Pt      12.17288240       6.98993059       7.01673578        1       0.00000000       0.03652625      -0.08051968      -0.09883938
