64
Lattice="10.280047853788249 0.00351518854515589 0.028862934228420345 5.143068169473321 8.88943941213726 0.0041246353978297455 0.023566487113047138 -0.009717374132268234 8.808888911703201" Properties=species:S:1:pos:R:3:tags:I:1:initial_magmoms:R:1:forces:R:3 unique_id=a806f4b4dc304e7eb4671d45df8e1ddc stress="0.0002578786937179889 4.355994541682546e-06 -2.8647819695546247e-05 4.355994541682546e-06 0.00025954916446673665 1.1104792810734098e-05 -2.8647819695546247e-05 1.1104792810734098e-05 0.0002475226202552014" energy=-397.0627398957348 pbc="T T T"
Ni       0.01545572      -0.00693533       0.17724237        4       1.00000000       0.04371262       0.04730493       0.33910013
Ni       2.54203773       0.01467076       0.20559757        4       1.00000000      -0.05369994       0.09167267       0.42949137
Pt       5.13412659      -0.03460704       0.14778964        4       0.00000000      -0.03948823      -0.03959277       0.32145778
Ni       7.73734969      -0.05346387       0.20529985        4       1.00000000       0.03880811      -0.08806205       0.38279106
Ni       1.29572452       2.22949657       0.10914299        4       1.00000000       0.04543084       0.03938342       0.26316294
Pt       3.77338719       2.27717083       0.19236721        4       0.00000000      -0.05231005       0.12409031       0.12554451
Pt       6.42690095       2.22783377       0.13103890        4       0.00000000       0.04509522       0.05491262       0.00224367
Pt       9.09323913       2.22759922       0.14257139        4       0.00000000       0.13426084       0.02708773       0.09922180
Ni       2.56888801       4.48037551       0.07369933        4       1.00000000       0.06612034       0.10400307       0.02662340
Ni       5.09927821       4.47993019       0.20457453        4       1.00000000      -0.07243673       0.07102039       0.34110155
Pt       7.72982257       4.49217449       0.05793590        4       0.00000000       0.06300365       0.09917289      -0.18225214
Ni      10.34426067       4.47153305       0.08493956        4       1.00000000       0.18423547       0.06895695       0.06016239
Ni       3.82131673       6.66029492       0.11528213        4       1.00000000      -0.07876394      -0.02938261       0.21025309
Pt       6.39002668       6.72662343       0.20228182        4       0.00000000      -0.05368798       0.04620464       0.11801977
Ni       9.02062883       6.66361103       0.08946518        4       1.00000000       0.03202219      -0.01771222       0.10099680
Ni      11.60488750       6.63737872       0.09379188        4       1.00000000       0.11900757      -0.04660846       0.06045770
Ni       1.32301587       0.75168008       2.23499131        3       1.00000000       0.04644776       0.06538338       0.14869932
Ni       3.82111212       0.77760150       2.26479609        3       1.00000000      -0.02566906       0.10406165       0.07437580
Ni       6.42926884       0.77972469       2.27146803        3       1.00000000      -0.08352789       0.06371877       0.11477502
Pt       9.02131918       0.74049142       2.26835632        3       0.00000000       0.05385526       0.22160878      -0.04379361
Ni       2.56841964       2.93472905       2.29079735        3       1.00000000       0.01034484      -0.12773943       0.21339490
Ni       5.12265722       2.97245936       2.26955134        3       1.00000000      -0.16290390      -0.03449253       0.07064516
Ni       7.69940501       2.94619404       2.27248545        3       1.00000000       0.07812247      -0.08247055      -0.06548805
Ni      10.33762339       2.94042540       2.28937618        3       1.00000000       0.15196488      -0.08310932       0.15485263
Ni       3.88246212       5.17004595       2.19827863        3       1.00000000      -0.02188762      -0.08589111      -0.04278735
Ni       6.39857915       5.17135279       2.22935863        3       1.00000000       0.05840273      -0.05508457      -0.12866347
Pt       8.96692157       5.14264789       2.30927171        3       0.00000000      -0.08942982      -0.18949928      -0.10245749
Pt      11.65665330       5.12555991       2.25118643        3       0.00000000       0.09236151      -0.13301433       0.10170212
Ni       5.14576378       7.40155360       2.23035455        3       1.00000000       0.00669267       0.01318995       0.02024759
Ni       7.67652314       7.44238904       2.24627550        3       1.00000000      -0.14684367      -0.00821149       0.04306507
Pt      10.28957725       7.38441981       2.23607659        3       0.00000000       0.01648788      -0.01184936      -0.25338965
Ni      12.89684129       7.37983093       2.20140872        3       1.00000000       0.10298103      -0.15144582       0.00657753
Ni       0.07136725       1.52898174       4.34396487        2       1.00000000       0.15890974       0.11696933      -0.09783283
Ni       2.53905845       1.52002416       4.32248544        2       1.00000000      -0.09158001       0.07926871      -0.16310894
Ni       5.13627647       1.50072820       4.33747034        2       1.00000000      -0.14411384      -0.01657546      -0.19640007
Ni       7.72501372       1.49676568       4.37370778        2       1.00000000       0.05030585      -0.05603086      -0.08314509
Ni       1.29940713       3.68664976       4.40167379        2       1.00000000       0.00691376      -0.02938804      -0.01939353
Ni       3.81176426       3.69178308       4.32320137        2       1.00000000      -0.13613229      -0.04523956      -0.22477471
Pt       6.47655767       3.64770108       4.33457369        2       0.00000000      -0.01347130      -0.05434457      -0.00030152
Ni       9.05611305       3.72185298       4.37910934        2       1.00000000       0.17875793      -0.07272829      -0.13073667
Ni       2.55820690       5.85901448       4.41302867        2       1.00000000      -0.03845597      -0.14850902       0.00810954
Pt       5.13205931       5.88814894       4.27998482        2       0.00000000       0.02267132      -0.10653368       0.05914824
Ni       7.75629093       5.89835564       4.39119152        2       1.00000000      -0.02605602      -0.04047275      -0.07560392
Ni      10.29936226       5.86237142       4.45815066        2       1.00000000       0.08094185      -0.08293770       0.03169823
Pt       3.90517815       8.14702238       4.34641370        2       0.00000000       0.04050800      -0.05798509       0.22251464
Ni       6.44184363       8.17982011       4.32406990        2       1.00000000      -0.09848715       0.07592096      -0.14681739
Pt       8.92299411       8.13929448       4.33338944        2       0.00000000      -0.07330778       0.07336363       0.08897831
Pt      11.60023064       8.11632085       4.34026653        2       0.00000000       0.00552554      -0.03868470       0.06395722
Pt       0.01987450       0.01653096       6.56035397        1       0.00000000       0.00020046       0.06242957       0.15490799
Pt       2.57106595       0.01308805       6.57264740        1       0.00000000      -0.04945943       0.04451181       0.18685917
Pt       5.15286509      -0.04135504       6.49198218        1       0.00000000      -0.00849500      -0.05824643      -0.38124798
Pt       7.71417023      -0.03799015       6.61659523        1       0.00000000      -0.07993519      -0.04292786       0.20837339
Ni       1.28884835       2.28735634       6.49781964        1       1.00000000      -0.07858699       0.23076849      -0.23057778
Pt       3.81151506       2.26822147       6.42867406        1       0.00000000      -0.11522336       0.12146373      -0.25595694
Ni       6.45180510       2.22769260       6.46798522        1       1.00000000      -0.03966740      -0.01486447      -0.24639844
Pt       9.02541396       2.32283297       6.43026036        1       0.00000000      -0.01620266       0.10763467      -0.33145011
Ni       2.52062471       4.47056337       6.50637646        1       1.00000000      -0.16378306       0.05489967      -0.23427254
Pt       5.12756220       4.44163089       6.58621421        1       0.00000000      -0.05372564       0.03334247       0.17598708
Ni       7.76744424       4.45393585       6.44354471        1       1.00000000       0.09799476       0.07689592      -0.42635749
Ni      10.32598574       4.48086111       6.51933901        1       1.00000000       0.07350024       0.07778744      -0.22606521
Ni       3.82096506       6.62181303       6.54335793        1       1.00000000      -0.11704662      -0.09129072      -0.11741628
Pt       6.49538336       6.62180702       6.47484364        1       0.00000000       0.02729411       0.01749975      -0.24563531
Ni       9.05572672       6.58615839       6.53216544        1       1.00000000       0.12591470      -0.16229605      -0.20753874
Ni      11.57820515       6.58267755       6.54963970        1       1.00000000      -0.03441759      -0.11130714      -0.16963367
