64
Lattice="10.238607930832838 0.03263674897592956 -0.014236936604785554 5.14756821912651 8.88808739810026 -0.058790013462851384 -0.011624410060692198 -0.048716399969796535 8.771332965011156" Properties=species:S:1:pos:R:3:tags:I:1:initial_magmoms:R:1:forces:R:3 unique_id=59c29d02420f4f0a912866d45a5620bc stress="-0.00017884326869216371 -3.1899765883579935e-06 1.9105376692003664e-05 -3.1899765883579935e-06 -0.00017425128659478983 1.5470584859290785e-05 1.9105376692003664e-05 1.5470584859290785e-05 -0.00014208106237881268" energy=-394.5143382981476 pbc="T T T"
Ni       0.02763838       0.00686038       0.16186991        4       1.00000000       0.13906028       0.02039462       0.24139157
Ni       2.57974263       0.02928465       0.20067316        4       1.00000000       0.08699859       0.01654861       0.22537888
Ni       5.09653388      -0.00777244       0.06099198        4       1.00000000      -0.06677137      -0.02665124       0.02725213
Ni       7.68018957      -0.01161146       0.02896473        4       1.00000000      -0.06504509      -0.03674175      -0.03489952
Ni       1.31129536       2.21005188       0.06905041        4       1.00000000       0.08665514      -0.05096031       0.05214069
Ni       3.81449649       2.22309682       0.18577770        4       1.00000000      -0.00937063      -0.06463250       0.24402426
Pt       6.40232783       2.27962343       0.12920910        4       0.00000000      -0.05287908       0.00996877       0.45661703
Ni       8.99062115       2.25279396       0.02299940        4       1.00000000       0.04635267      -0.02987869      -0.03364280
Ni       2.59509496       4.41747710       0.03847391        4       1.00000000       0.03482771      -0.14761279       0.02553130
Ni       5.08378700       4.45014658       0.04671328        4       1.00000000      -0.14182316       0.00215785       0.04909646
Ni       7.74467383       4.44902660       0.03909446        4       1.00000000       0.14627354      -0.00106932       0.08605733
Ni      10.24611401       4.46016203       0.00586913        4       1.00000000      -0.00793410      -0.02848330       0.00468387
Ni       3.85358878       6.63183564       0.01022266        4       1.00000000       0.00415892      -0.13442457      -0.01255763
Pt       6.42167269       6.69103379      -0.01605363        4       0.00000000       0.01538070      -0.03405784      -0.27735537
Ni       8.98559138       6.65961688       0.08989504        4       1.00000000      -0.04918891      -0.08130065       0.17190653
Ni      11.53859502       6.67714434      -0.02342805        4       1.00000000      -0.07881145      -0.06796184      -0.13297373
Ni       1.32640595       0.71850547       2.15328465        3       1.00000000      -0.00806408       0.01294401      -0.01853358
Ni       3.79432636       0.75959371       2.16306503        3       1.00000000       0.00774235      -0.01493465       0.05197767
Pt       6.31822052       0.76596100       2.23462775        3       0.00000000      -0.10223629       0.13451078      -0.04175970
Pt       9.00502338       0.74608654       2.12939993        3       0.00000000       0.01681051      -0.00967488      -0.04402098
Ni       2.59924025       2.92806967       2.13145152        3       1.00000000      -0.05179065       0.01642271      -0.01884356
Ni       5.06454431       2.98337335       2.17873107        3       1.00000000      -0.01606004       0.00356616       0.06188868
Ni       7.70753802       3.00744426       2.17530296        3       1.00000000       0.02348090       0.01355381       0.03316078
Pt      10.24418529       2.97903927       2.13005158        3       0.00000000       0.00700176      -0.09441244       0.01495720
Ni       3.87685562       5.14253690       2.13291005        3       1.00000000       0.00985732      -0.00500220      -0.09494602
Pt       6.41611725       5.19204778       2.15953703        3       0.00000000       0.01542852       0.06662378      -0.13506506
Ni       8.94784059       5.18482425       2.16195869        3       1.00000000       0.00120843      -0.03653519       0.05052321
Pt      11.55700589       5.16848962       2.11327325        3       0.00000000       0.02801719      -0.05760857      -0.06415079
Ni       5.16591278       7.38364516       2.13476623        3       1.00000000       0.00955769      -0.06654798      -0.09651304
Ni       7.68614187       7.42802995       2.13914841        3       1.00000000      -0.04225884      -0.01659611      -0.05471496
Pt      10.15800545       7.40639914       2.16370838        3       0.00000000      -0.10501821      -0.05555000       0.00149494
Pt      12.85775357       7.37288133       2.08366609        3       0.00000000       0.00932506      -0.06573351      -0.10395627
Ni       0.00588997       1.47218311       4.38057826        2       1.00000000       0.09354522      -0.06450939      -0.01215688
Pt       2.57401963       1.43935516       4.25870702        2       0.00000000       0.04897014      -0.03929897       0.09978921
Ni       5.10673249       1.42703688       4.35470464        2       1.00000000      -0.02723314       0.04003718       0.12872379
Pt       7.73397191       1.48215394       4.35061228        2       0.00000000       0.02571676       0.08040932       0.17132263
Pt       1.22113806       3.72330535       4.42757465        2       0.00000000      -0.03379762       0.01438424       0.03551921
Pt       3.84832290       3.76015384       4.29237449        2       0.00000000      -0.00345536       0.02165504       0.02061314
Pt       6.45083684       3.76251106       4.33264142        2       0.00000000      -0.03190940      -0.00429193       0.04675263
Ni       8.96845176       3.74705795       4.35703420        2       1.00000000       0.04235360       0.12228391      -0.04599938
Ni       2.53408222       5.91230155       4.37746312        2       1.00000000      -0.17213486       0.00633753      -0.03706682
Ni       5.12175855       5.90615531       4.34647369        2       1.00000000      -0.02408183      -0.04606328      -0.11817244
Ni       7.75219671       5.90723772       4.31071908        2       1.00000000       0.22645730       0.03557757      -0.13058417
Ni      10.24358767       5.94830826       4.31398169        2       1.00000000      -0.00958120       0.02991944      -0.07928633
Pt       3.82160162       8.02618712       4.34751919        2       0.00000000       0.01197494      -0.05674034       0.04739330
Pt       6.44846853       8.04945250       4.23093802        2       0.00000000       0.03662090       0.03816371       0.05550806
Ni       9.02264229       8.11100985       4.30582588        2       1.00000000      -0.02226841       0.00165507       0.06893507
Ni      11.49117475       8.11155595       4.35592612        2       1.00000000      -0.04844796      -0.03732617       0.00223316
Pt      -0.07341060      -0.00117978       6.57424605        1       0.00000000      -0.12395027       0.02402484       0.09268586
Pt       2.56672978      -0.03942268       6.57231198        1       0.00000000       0.02834011       0.03020633       0.16045528
Ni       5.15406679      -0.04984479       6.47414015        1       1.00000000       0.02595512      -0.01680237      -0.13311131
Ni       7.62515019      -0.05812025       6.50374043        1       1.00000000      -0.10983858      -0.13203536      -0.11489332
Ni       1.23436549       2.23181679       6.50436766        1       1.00000000      -0.03840814       0.02635138      -0.01920696
Pt       3.80972352       2.27580157       6.56031612        1       0.00000000      -0.11857903       0.21140746       0.21010280
Pt       6.42809980       2.21007455       6.46451837        1       0.00000000       0.07625116       0.00045472      -0.26158797
Ni       8.98837628       2.27371367       6.47830489        1       1.00000000       0.08227529       0.21345621      -0.14383247
Ni       2.54243732       4.48412000       6.49663995        1       1.00000000      -0.05408105       0.23354496       0.00351418
Ni       5.11901408       4.50162009       6.48598631        1       1.00000000       0.00405313       0.16328241      -0.05376967
Ni       7.70745445       4.44069691       6.46880318        1       1.00000000       0.06326204       0.04113444      -0.03663302
Ni      10.23903381       4.41982770       6.48169726        1       1.00000000       0.01097512      -0.00025858      -0.01573369
Ni       3.82113760       6.58881761       6.45979556        1       1.00000000      -0.04251961      -0.05654387      -0.07510789
Ni       6.38445496       6.58628483       6.35614055        1       1.00000000       0.01863346      -0.06009923      -0.39251614
Pt       9.02593990       6.58156566       6.44322023        1       0.00000000       0.11950380      -0.00765358       0.07910870
Ni      11.56498535       6.66310046       6.42167607        1       1.00000000       0.05451295       0.01701657      -0.18714807
