64
Lattice="10.323244529752126 0.009371601918104789 0.007626029188188799 5.169738310211291 8.903208882128213 -0.008220028852497249 0.006226626758211212 -0.011344862159196433 8.798526587586991" Properties=species:S:1:pos:R:3:tags:I:1:initial_magmoms:R:1:forces:R:3 unique_id=dc079c4bf0cc4d5b80abcb1702b92132 stress="0.0002317982871520713 2.4647217829409942e-06 -1.1065520234913364e-05 2.4647217829409942e-06 0.00023406802590833498 9.340871940136769e-06 -1.1065520234913364e-05 9.340871940136769e-06 0.00022706579137821148" energy=-398.42240464798914 pbc="T T T"
Ni      -0.01849793       0.02971512       0.20213294        4       1.00000000      -0.08219292       0.09687529       0.29756574
Ni       2.58009368       0.00588084       0.21145371        4       1.00000000       0.02499271       0.00033763       0.37638712
Ni       5.16519279      -0.00775348       0.16971761        4       1.00000000      -0.00224452       0.15127408       0.27142533
Ni       7.76748709      -0.02936210       0.12149638        4       1.00000000       0.07649653      -0.11255704       0.20266492
Ni       1.27338815       2.21926252       0.08888692        4       1.00000000      -0.07034936      -0.05421915       0.13510928
Pt       3.81496926       2.22928102       0.19202293        4       0.00000000      -0.05552918       0.04814601       0.20189966
Pt       6.48668203       2.16920340       0.19611424        4       0.00000000       0.06563861      -0.08586646       0.19208302
Ni       9.05717394       2.19245056       0.15020518        4       1.00000000      -0.02220440      -0.19577994       0.11302032
Ni       2.57022315       4.46646666       0.06270859        4       1.00000000       0.01985932       0.04390877       0.07041660
Ni       5.15606848       4.45889993       0.15674591        4       1.00000000       0.10545546      -0.05180109       0.23733352
Pt       7.82147548       4.46458073       0.10495843        4       0.00000000       0.14702439      -0.02833029      -0.07777619
Ni      10.35894946       4.46563871       0.05532864        4       1.00000000       0.11169136      -0.00228320       0.02506303
Ni       3.84622331       6.69953270       0.16633603        4       1.00000000      -0.04109272       0.07432537       0.23135763
Pt       6.43644207       6.73055242       0.18818261        4       0.00000000      -0.06395985       0.03367501       0.08344171
Ni       9.06449356       6.69574811       0.07302637        4       1.00000000      -0.00077239       0.02955352      -0.00404856
Ni      11.63641472       6.69431089       0.05806812        4       1.00000000       0.11223926       0.06253821      -0.05067191
Ni       1.28863468       0.72468696       2.16188502        3       1.00000000      -0.06313643       0.00010165      -0.10382484
Ni       3.86975590       0.74802615       2.21501097        3       1.00000000       0.07748271       0.02685430       0.03708893
Ni       6.48082601       0.74910364       2.25308986        3       1.00000000       0.08375627       0.04732808       0.15388129
Ni       9.01068146       0.72864598       2.19022412        3       1.00000000      -0.13049352       0.00578488      -0.03051686
Ni       2.57885120       2.95980165       2.21824606        3       1.00000000      -0.05918978       0.12164276      -0.02749035
Ni       5.16950623       2.94880526       2.25093232        3       1.00000000      -0.05431015      -0.14409261       0.01894667
Ni       7.75152642       2.95519365       2.24643044        3       1.00000000       0.06629745      -0.07298781      -0.03385939
Pt      10.28531073       2.91233244       2.19495114        3       0.00000000      -0.02993354      -0.00039349       0.02734611
Pt       3.93248913       5.19513899       2.22470087        3       0.00000000       0.02891433       0.00372544       0.04610244
Ni       6.48539292       5.19594381       2.23517706        3       1.00000000       0.12599179       0.12268854      -0.05169406
Ni       9.00831564       5.20191749       2.25104564        3       1.00000000      -0.01082050      -0.01644477       0.15789997
Pt      11.62327800       5.20716564       2.17113555        3       0.00000000      -0.00565430       0.00679748      -0.01117713
Ni       5.14925873       7.44682456       2.19105171        3       1.00000000      -0.10408486       0.02469900      -0.12673718
Ni       7.75109270       7.41610252       2.20033221        3       1.00000000       0.04367515      -0.10382130      -0.06172273
Pt      10.30608035       7.44288831       2.12288765        3       0.00000000       0.01189130      -0.07783908      -0.01887449
Ni      12.93294806       7.46077774       2.16432898        3       1.00000000      -0.04642590       0.02214165      -0.10247308
Ni      -0.02302602       1.50379278       4.34934484        2       1.00000000      -0.05031833       0.01362002      -0.09483615
Pt       2.58000575       1.51579897       4.25548059        2       0.00000000       0.01298983       0.02595788       0.00019731
Ni       5.17972421       1.49848603       4.31932189        2       1.00000000       0.00506381       0.00887123      -0.14796658
Ni       7.77351945       1.50185773       4.31791526        2       1.00000000       0.08562407       0.08575759      -0.21104732
Pt       1.26396223       3.75776531       4.44027421        2       0.00000000      -0.02357479      -0.02517167      -0.03646662
Ni       3.88569246       3.74067135       4.33744032        2       1.00000000      -0.00418271      -0.00574310      -0.08191926
Pt       6.48859519       3.72676349       4.26124481        2       0.00000000      -0.03955555      -0.06392914       0.10536606
Ni       9.03366076       3.73709084       4.36289305        2       1.00000000       0.00215418       0.05915962      -0.21004869
Ni       2.58686507       5.90590708       4.37838769        2       1.00000000      -0.00068772       0.01258877      -0.08708225
Ni       5.15699465       5.90928275       4.33413076        2       1.00000000       0.01003340       0.02058442      -0.03035513
Ni       7.79592268       5.88140027       4.33312574        2       1.00000000       0.08153289      -0.06820853      -0.20838654
Ni      10.30562518       5.90853261       4.41271206        2       1.00000000      -0.05590416      -0.00014395      -0.09870944
Pt       3.87015666       8.17248142       4.27108270        2       0.00000000       0.00128610      -0.00359645      -0.00098865
Pt       6.44129257       8.12048081       4.23341250        2       0.00000000      -0.00448600      -0.08337917       0.01789752
Pt       9.04298330       8.09680822       4.33571445        2       0.00000000      -0.01806110       0.00458092       0.12044196
Pt      11.65161004       8.15056306       4.34304100        2       0.00000000      -0.03889010      -0.02214730       0.00932071
Pt      -0.02433561       0.02993975       6.58102610        1       0.00000000      -0.05015426       0.03786758       0.17076590
Pt       2.58589154      -0.00749390       6.60785189        1       0.00000000      -0.01630019       0.00397878       0.22453778
Pt       5.21182671      -0.09713494       6.59766287        1       0.00000000       0.05178591      -0.20326252       0.12745314
Ni       7.74412648      -0.00937357       6.54194993        1       1.00000000       0.03846282       0.07619992      -0.12572313
Ni       1.28306357       2.26932338       6.53537848        1       1.00000000      -0.00232325       0.07734442      -0.09437999
Pt       3.82144012       2.26774516       6.46907215        1       0.00000000      -0.08979526      -0.01879953      -0.28365728
Pt       6.50138029       2.19832584       6.45632444        1       0.00000000       0.04467494      -0.00983723      -0.25029753
Pt       9.08666331       2.31667881       6.51034910        1       0.00000000       0.11206716       0.15998135       0.00095873
Ni       2.52040613       4.45741630       6.52406331        1       1.00000000      -0.15501555       0.04753599      -0.07364202
Pt       5.14621540       4.45615170       6.52467850        1       0.00000000      -0.04076093       0.02581451       0.01079860
Ni       7.80931886       4.46828842       6.43681765        1       1.00000000       0.09932949       0.06243788      -0.29427433
Ni      10.33596981       4.50109554       6.52496757        1       1.00000000      -0.02801462       0.20275666      -0.08356005
Pt       3.75989584       6.66020991       6.54398810        1       0.00000000      -0.14872424       0.03647262       0.12355238
Pt       6.52584876       6.61657979       6.45347964        1       0.00000000       0.05424802       0.00658191      -0.25507633
Ni       9.08468874       6.59524216       6.51331371        1       1.00000000       0.06292436      -0.20273889      -0.19305743
Ni      11.59326893       6.61405057       6.52224243        1       1.00000000      -0.15444051      -0.23711606      -0.22798187
