64
Lattice="10.692045354660396 0.01314045022232801 -0.0234428848331883 5.357402641039897 9.258093979647098 -0.007548657404936253 0.0 0.0 21.949162764276075" Properties=species:S:1:pos:R:3:tags:I:1:initial_magmoms:R:1:forces:R:3 unique_id=0bdf7d8ad5c74344b8294de6a5ed6f7f energy=-395.2422913320155 stress="0.0046482679203890785 0.00012501996803707208 1.0803831249287967e-05 0.00012501996803707208 0.004610915497616979 -4.225147569667741e-05 1.0803831249287967e-05 -4.225147569667741e-05 -0.0013760042263480186" pbc="T T T"
Ni      -0.01344742      -0.00163995       0.16425115        2       1.00000000       0.05005711       0.03887724       0.09203562
Pt       2.66314295      -0.00138773       0.15304654        2       0.00000000      -0.11792987       0.06965789      -0.50093705
Ni       5.38560952      -0.01782297       0.06592249        1       1.00000000       0.00744616      -0.02527504       0.40934509
Ni       7.99026198      -0.00963469       0.06244364        1       1.00000000      -0.03257997       0.00334136       0.46852627
Pt       1.30922009       2.26885254       0.15749902        2       0.00000000       0.01659078      -0.10962081      -0.46400009
Pt       4.03315562       2.27908346       0.12990670        1       0.00000000      -0.05624575       0.04422553      -0.64529140
Pt       6.69159003       2.22789623       0.01379992        0       0.00000000       0.05785846       0.01605617      -0.05203555
Pt       9.35226181       2.25025588       0.11529589        1       0.00000000      -0.03452563       0.00020268      -0.48264672
Pt       2.65435435       4.67742557       0.13117160        1       0.00000000       0.11271294      -0.00149841      -0.47029151
Pt       5.35167855       4.63539683       0.12620383        1       0.00000000      -0.10856676       0.01676658      -0.63222066
Pt       8.03295840       4.63675736       0.01159084        0       0.00000000       0.04200674      -0.10999064      -0.09785250
Pt      10.70883136       4.66995016       0.01372539        0       0.00000000      -0.04547341      -0.11378314      -0.00701575
Pt       3.95936844       7.03909205       0.12171308        1       0.00000000       0.02863825       0.00754970      -0.41822146
Pt       6.67654197       6.98140805       0.02915853        0       0.00000000      -0.05243020       0.04920386      -0.08637949
Pt       9.42727891       6.99624172       0.00000000        0       0.00000000      -0.06672127       0.04520883       0.09838343
Ni      12.03383899       6.99811746       0.05644519        1       1.00000000       0.03407872       0.03662590       0.43052332
Ni       1.32006931       0.77386118       2.36253386        4       1.00000000      -0.02597378      -0.01757426       0.35896503
Pt       3.99227589       0.76010633       2.36982743        4       0.00000000       0.08773097      -0.05795134       0.31574596
Pt       6.69056501       0.76060622       2.31471295        3       0.00000000       0.03134117      -0.02075162       0.14378066
Pt       9.39261794       0.76890036       2.34001976        3       0.00000000      -0.05689914      -0.08836547       0.21751774
Pt       2.65167655       3.05538118       2.37515536        4       0.00000000      -0.00297285      -0.01806922       0.33383041
Pt       5.34875944       3.08166499       2.38917968        4       0.00000000       0.04290998       0.01237745       0.37153975
Pt       8.02132368       3.08445476       2.36664977        4       0.00000000      -0.01203558       0.03069203       0.29708490
Pt      10.70418475       3.05316571       2.39911855        4       0.00000000      -0.01642558       0.05264662       0.37801995
Pt       3.99597507       5.42680818       2.40139350        4       0.00000000       0.03592855       0.04245441       0.42065888
Pt       6.69010955       5.42415831       2.39153552        4       0.00000000       0.05018881       0.05859670       0.34111259
Pt       9.36872414       5.41280953       2.38136648        4       0.00000000       0.01377317       0.00233304       0.30922295
Pt      12.02520159       5.43303468       2.37538772        4       0.00000000      -0.10960111       0.03226000       0.27781341
Pt       5.37246546       7.76792829       2.33790216        3       0.00000000       0.09790666       0.04233261       0.22787464
Pt       8.01475407       7.74331290       2.38774386        4       0.00000000       0.05844825      -0.08611040       0.33683692
Pt      10.70574721       7.73340833       2.29951964        3       0.00000000      -0.01696464       0.00786937       0.11271875
Pt      13.35396707       7.73859038       2.33618580        3       0.00000000      -0.08293724       0.10620667       0.19544174
Ni      -0.01040029       1.53737904       4.64625042        5       1.00000000      -0.02701414      -0.04228572      -0.33455097
Pt       2.61533287       1.53549288       4.61884077        5       0.00000000      -0.02141927       0.00673884      -0.40107526
Pt       5.35775390       1.52467422       4.68965759        6       0.00000000       0.06011045      -0.08907655      -0.22221242
Pt       8.03017691       1.52885704       4.68050552        6       0.00000000      -0.02118467      -0.10226002      -0.22913803
Pt       1.31303128       3.87111930       4.66066667        6       0.00000000      -0.03836922      -0.00354429      -0.28670884
Pt       3.98303980       3.88717316       4.64854334        5       0.00000000      -0.02041102      -0.02458239      -0.37083503
Pt       6.70494872       3.85096656       4.69496643        6       0.00000000       0.08962400      -0.08512644      -0.23806435
Pt       9.37251518       3.86304409       4.68583684        6       0.00000000       0.05145914       0.07906672      -0.23733020
Ni       2.66018985       6.18343611       4.66572915        6       1.00000000      -0.00569338       0.03650235      -0.30989890
Pt       5.32806710       6.19874034       4.67259193        6       0.00000000       0.06764699       0.10795977      -0.32021936
Pt       8.02200246       6.18772288       4.75601587        7       0.00000000      -0.01790374       0.05007316      -0.06741833
Pt      10.73312249       6.18692308       4.75215770        7       0.00000000       0.09974705      -0.03510410      -0.02990865
Pt       3.99754381       8.50448034       4.65252848        6       0.00000000       0.00741150       0.06513236      -0.26161893
Pt       6.65575050       8.52213434       4.63569450        5       0.00000000      -0.08572195      -0.04588399      -0.28730532
Pt       9.38814814       8.47830964       4.69000538        6       0.00000000       0.11837107      -0.01727151      -0.20705625
Pt      12.05603578       8.45841510       4.74537015        6       0.00000000       0.09423607      -0.03731811       0.07537661
Pt      -0.03693578      -0.00899623       6.94916276        9       0.00000000       0.03004648       0.15725123      -0.06957909
Pt       2.70013814      -0.07085597       6.88924550        9       0.00000000       0.03120222      -0.05781105       0.50637260
Ni       5.37192898      -0.01975103       6.92669898        9       1.00000000       0.00559825      -0.04686181      -0.54389854
Ni       7.96965820       0.01000430       6.92345696        9       1.00000000      -0.03971873       0.03582751      -0.50583613
Pt       1.29294631       2.32719465       6.86378431        9       0.00000000      -0.13539331      -0.12734152       0.43650770
Pt       4.05444026       2.28612751       6.87217014        9       0.00000000      -0.01636504       0.03587112       0.62599499
Ni       6.68401319       2.29377565       6.84516134        8       1.00000000      -0.00768913      -0.03100320      -0.11483502
Pt       9.28447056       2.34820198       6.86517519        9       0.00000000       0.08420202      -0.00203377       0.53897997
Pt       2.60349035       4.69683598       6.85453300        9       0.00000000       0.00767381       0.16007376       0.47741169
Pt       5.41602980       4.64353266       6.87450376        9       0.00000000      -0.04637665       0.02925748       0.67994033
Ni       8.02983019       4.65109746       6.84049226        8       1.00000000       0.07602960       0.01071772      -0.14444413
Ni      10.66480400       4.67182647       6.83963352        8       1.00000000      -0.09522140       0.00112349      -0.11899863
Pt       3.93835239       6.98042597       6.85825258        9       0.00000000      -0.21190399      -0.11091797       0.43499772
Ni       6.69255602       6.94046748       6.84962659        8       1.00000000       0.01182738       0.02147493      -0.13931915
Ni       9.37949423       6.93883236       6.84142697        8       1.00000000       0.05760228      -0.02578810      -0.12874628
Ni      11.99944000       6.98065094       6.91049871        9       1.00000000      -0.03173665       0.02064581      -0.48666965
