64
Lattice="10.27527987139351 0.0025939940942544186 0.010711289257301401 5.139886400479648 8.925993399312068 0.053555011856001714 0.008745731055914493 0.045442799220481146 8.827692798619731" Properties=species:S:1:pos:R:3:tags:I:1:initial_magmoms:R:1:forces:R:3 unique_id=a6ba91fa4c66451b8ee5c55131e1ba3b stress="0.00027405775704054947 2.8229659048519177e-06 -2.2505998561341327e-05 2.8229659048519177e-06 0.0002637209449940503 -1.727189944080469e-05 -2.2505998561341327e-05 -1.727189944080469e-05 0.00026242638657696105" energy=-397.97688295333575 pbc="T T T"
Ni       0.04038756       0.03215195       0.16953571        4       1.00000000       0.11991827       0.11217884       0.25036834
Ni       2.53118005       0.01766434       0.20607560        4       1.00000000      -0.09025474       0.10349012       0.43190549
Pt       5.08199544      -0.01563612       0.14160189        4       0.00000000      -0.12245869       0.01498974       0.28001622
Pt       7.75508336      -0.07343465       0.17744234        4       0.00000000       0.06160800      -0.07493259       0.37589416
Ni       1.24666019       2.24570792       0.11992120        4       1.00000000      -0.14624137       0.08663285       0.23502034
Pt       3.76483592       2.30093950       0.21056850        4       0.00000000      -0.12062098       0.17521564       0.14474878
Pt       6.43966914       2.27327961       0.14182089        4       0.00000000       0.05657500       0.12195011       0.01250590
Ni       9.04993787       2.25790822       0.18104683        4       1.00000000       0.10354322       0.09599747       0.25164508
Ni       2.55957559       4.49702064       0.10140116        4       1.00000000       0.02652376       0.11180969       0.02028444
Ni       5.10812500       4.49930599       0.21496318        4       1.00000000      -0.00186457       0.08732699       0.37897468
Pt       7.79116742       4.49711511       0.13767583        4       0.00000000       0.10943936       0.03899824      -0.13598602
Ni      10.31482166       4.46009825       0.11295173        4       1.00000000       0.14596519      -0.04060947       0.16025584
Ni       3.83885513       6.65218735       0.14942474        4       1.00000000      -0.03486249      -0.17932016       0.26551936
Pt       6.39660161       6.74248359       0.22835415        4       0.00000000      -0.03996495       0.05928045      -0.00044400
Ni       9.00925432       6.68176746       0.12897696        4       1.00000000       0.02170881       0.01894887       0.11909707
Ni      11.57299999       6.64358552       0.11693053        4       1.00000000       0.01358423      -0.10787090       0.08169156
Ni       1.31322886       0.75660902       2.20466005        3       1.00000000       0.10879519       0.00736257      -0.00958517
Ni       3.82628540       0.77893141       2.24695158        3       1.00000000       0.02946916       0.03782100       0.00490846
Ni       6.40233448       0.79938432       2.25951751        3       1.00000000      -0.07328494       0.08171739       0.00919931
Pt       9.08396633       0.80102871       2.23427433        3       0.00000000       0.07498246       0.00349958      -0.06558489
Ni       2.55938769       2.99251451       2.26338554        3       1.00000000       0.00179156       0.06822149       0.00180030
Ni       5.12245610       3.01515041       2.27981188        3       1.00000000      -0.13693915       0.04825491       0.06916414
Ni       7.72413465       3.02873976       2.25520987        3       1.00000000       0.09108969       0.15249400      -0.01333274
Ni      10.29054024       2.99307533       2.24785617        3       1.00000000       0.09417651       0.09360760       0.12172504
Ni       3.89358209       5.21359146       2.26067360        3       1.00000000       0.11842007      -0.03481997       0.11101655
Ni       6.41125894       5.22749427       2.27715771        3       1.00000000      -0.00678755       0.12565396      -0.07659755
Ni       8.96542335       5.19019554       2.28205657        3       1.00000000      -0.06629866      -0.14855796       0.17721075
Pt      11.61598184       5.14663470       2.22858828        3       0.00000000       0.11044367      -0.08987683       0.10396171
Ni       5.15289684       7.41853338       2.28657344        3       1.00000000       0.07239957      -0.13306431      -0.00839713
Ni       7.66783971       7.45012811       2.28444578        3       1.00000000      -0.18050551      -0.07873132       0.03228274
Pt      10.24238280       7.38892450       2.24999621        3       0.00000000      -0.07731407      -0.09331262      -0.30414875
Ni      12.89164148       7.39348240       2.27525093        3       1.00000000       0.16439441      -0.24800159       0.00567624
Ni       0.02305132       1.55515922       4.38008542        2       1.00000000      -0.03012028       0.12554676      -0.01704111
Pt       2.50998578       1.57559151       4.29170692        2       0.00000000       0.00945899      -0.03215114       0.08831129
Ni       5.12937567       1.54676508       4.35730335        2       1.00000000      -0.10738275       0.05641052      -0.17935381
Pt       7.72490429       1.57157739       4.35350941        2       0.00000000      -0.01996326      -0.02845246       0.08361791
Ni       1.29272994       3.73410643       4.43579974        2       1.00000000      -0.00478878      -0.02423202      -0.01051044
Ni       3.83136683       3.79393412       4.35863556        2       1.00000000      -0.08580045       0.07859395      -0.21424949
Pt       6.40413929       3.80886926       4.34353345        2       0.00000000      -0.08365639      -0.02239127       0.01266816
Ni       9.01509092       3.75097229       4.38598420        2       1.00000000      -0.00390364      -0.07888728      -0.25148317
Ni       2.60797733       5.90660060       4.44271965        2       1.00000000       0.05791668      -0.18031739      -0.07692975
Ni       5.13507371       5.95514721       4.36802016        2       1.00000000       0.02201553      -0.09884092      -0.22991347
Ni       7.69792777       5.95423679       4.38547300        2       1.00000000      -0.04699953      -0.03220391      -0.28895219
Pt      10.27094398       5.86383087       4.49599615        2       0.00000000       0.00646739      -0.04318100      -0.00527202
Pt       3.94492529       8.10572193       4.38008219        2       0.00000000       0.02041914      -0.06966698       0.11597294
Ni       6.42183010       8.18562629       4.37133913        2       1.00000000      -0.05746173      -0.02824322      -0.22174597
Pt       8.90631981       8.17930103       4.38097425        2       0.00000000      -0.03937573       0.01299364       0.06928228
Pt      11.59079006       8.15966850       4.35907682        2       0.00000000       0.02881263      -0.03356833      -0.01592431
Pt       0.01170837       0.05379335       6.56965723        1       0.00000000       0.02938215       0.04343943       0.06034961
Pt       2.56562049       0.03324506       6.61079822        1       0.00000000       0.01251835       0.00731895       0.22168332
Pt       5.14872316      -0.00564286       6.49169489        1       0.00000000       0.06906231      -0.10165714      -0.41228574
Pt       7.71284977      -0.02006167       6.53736417        1       0.00000000      -0.02458031      -0.07552319      -0.23562743
Ni       1.27893392       2.33150293       6.55266716        1       1.00000000      -0.01788550       0.18093074      -0.15373137
Pt       3.81832752       2.32099301       6.49408704        1       0.00000000      -0.10437346       0.05039271      -0.23323724
Ni       6.43705618       2.28876952       6.49967570        1       1.00000000      -0.02122591       0.06362653      -0.23470896
Pt       9.02977968       2.38186738       6.58855082        1       0.00000000      -0.01728491       0.11266740       0.11727747
Ni       2.51861958       4.52992692       6.55272343        1       1.00000000      -0.15446655       0.03994523      -0.23432826
Pt       5.10359858       4.51673827       6.59165462        1       0.00000000      -0.06562228       0.01524286       0.13255264
Ni       7.74502269       4.50946424       6.49620906        1       1.00000000       0.04014415       0.07803968      -0.32547711
Ni      10.31382458       4.51197946       6.59537718        1       1.00000000       0.12498918      -0.00054901       0.01676066
Ni       3.81674887       6.67761582       6.58136009        1       1.00000000      -0.10522900      -0.12033381      -0.13579625
Pt       6.46083054       6.68292597       6.48714265        1       0.00000000       0.03489787       0.01117639      -0.26387403
Ni       9.02619568       6.65976200       6.60087599        1       1.00000000       0.05903958      -0.18055092      -0.09181854
Ni      11.57467094       6.65414781       6.60606010        1       1.00000000       0.04756606      -0.14192857      -0.11701184
