64
Lattice="9.89352568880726 -0.0052391638893145975 0.004706641209104508 4.942225595380899 8.557575279340028 0.019607760843359575 0.0 0.0 21.22950568623119" Properties=species:S:1:pos:R:3:tags:I:1:initial_magmoms:R:1:forces:R:3 unique_id=d24ddd5f8f0a42068a2a288c3b994550 stress="0.003955880128538157 1.1599308589436912e-05 1.1034768629589441e-05 1.1599308589436912e-05 0.0037807306570451287 0.0002663866607584148 1.1034768629589441e-05 0.0002663866607584148 -0.0022248613502125134" energy=-357.1900567056282 pbc="T T T"
Ni      -0.00159025       0.04652858       0.02340678        0       1.00000000       0.00170604       0.06867792      -0.18691910
Ni       2.44593072       0.04500119       0.05116720        1       1.00000000       0.03721731      -0.04758056       0.06022286
Ni       4.96911675       0.04421105       0.05500352        1       1.00000000      -0.04271356      -0.04056062       0.04957582
Ni       7.42771913       0.03576823       0.02763704        0       1.00000000       0.00591866       0.06793825      -0.19368458
Ni       1.23136021       2.14848633       0.05032051        1       1.00000000       0.00383642       0.01690258       0.11327803
Ni       3.68333808       2.13523974       0.02007131        0       1.00000000      -0.02256795       0.01995316       0.00186375
Ni       6.20576164       2.13233092       0.01855989        0       1.00000000       0.00723512       0.01404714       0.00849214
Ni       8.66296903       2.14353574       0.04877717        0       1.00000000       0.00226874      -0.01813432       0.08461138
Ni       2.46849720       4.26848621       0.05607492        1       1.00000000       0.01494305      -0.00846722       0.05345974
Ni       4.94063120       4.29374591       0.02106767        0       1.00000000      -0.01886585       0.01366557      -0.04757318
Ni       7.40473075       4.22912051       0.05767768        1       1.00000000       0.01884562       0.05808845       0.01060275
Ni       9.91022683       4.22653319       0.06082425        1       1.00000000      -0.01856332       0.06589162       0.04951227
Ni       3.70507042       6.40281374       0.01157614        0       1.00000000       0.00125972      -0.03557994      -0.28946688
Ni       6.16261442       6.40373392       0.00000000        0       1.00000000       0.08780007      -0.04115830      -0.21420094
Pt       8.65407467       6.41380254       0.00857004        0       0.00000000       0.00590846       0.00589115      -0.19609467
Ni      11.14568527       6.39315186       0.00457675        0       1.00000000      -0.09125051      -0.05097851      -0.19123230
Ni       1.26261235       0.77098586       2.09324452        2       1.00000000       0.03077063       0.02587147       0.06506788
Ni       3.68519977       0.68981383       2.09138453        2       1.00000000      -0.01042444       0.01818294       0.03544991
Ni       6.17886646       0.72561646       2.09501089        2       1.00000000      -0.03442588       0.01977334       0.08280000
Ni       8.66369958       0.78536566       2.07094323        2       1.00000000       0.00998159      -0.01547540       0.06958027
Ni       2.42829929       2.85290498       2.09556853        2       1.00000000      -0.00616213      -0.00542379       0.06255811
Pt       4.94389357       2.85048186       2.09996850        2       0.00000000       0.00840305      -0.00332220      -0.06275648
Ni       7.46573765       2.85612186       2.09773874        2       1.00000000       0.00027544       0.01153489       0.05678430
Ni       9.89302888       2.85326669       2.10010295        2       1.00000000       0.00642358       0.01263743       0.05640783
Ni       3.67697560       4.96526586       2.09677131        2       1.00000000      -0.02136146      -0.02500859       0.07912219
Ni       6.24765288       4.97790732       2.09524518        2       1.00000000       0.05770804      -0.01798784       0.01965704
Ni       8.66473891       4.96441681       2.13073223        2       1.00000000       0.02402845       0.00196421       0.00474878
Ni      11.08828781       4.93525413       2.09987295        2       1.00000000      -0.04748902      -0.02557606       0.01471303
Pt       5.02020892       7.12990113       2.07167883        2       0.00000000      -0.05872660      -0.00927009      -0.02040789
Ni       7.46471120       7.14294883       2.13994345        2       1.00000000       0.07071730      -0.00680529       0.06071484
Ni       9.84263904       7.13718455       2.14228320        2       1.00000000      -0.06664447      -0.01082189       0.05532454
Pt      12.28820127       7.11436133       2.07678356        2       0.00000000       0.05255914      -0.01147799      -0.00743424
Ni       0.03054046       1.48918708       4.15457288        3       1.00000000       0.01964280       0.04689210      -0.02154364
Ni       2.47921217       1.44116731       4.15715383        3       1.00000000       0.00140122       0.02776065      -0.01948985
Ni       4.93707299       1.41815364       4.19213648        3       1.00000000      -0.02144229       0.02078582       0.00529230
Ni       7.39684173       1.48338789       4.16034847        3       1.00000000      -0.00351170       0.04398578      -0.02373157
Ni       1.23264043       3.57053791       4.15921906        3       1.00000000      -0.01548567      -0.01017613      -0.03196334
Ni       3.68917020       3.56781259       4.19486485        3       1.00000000      -0.01775817      -0.02351288       0.00912026
Ni       6.20310506       3.57896746       4.19151769        3       1.00000000       0.01668790       0.00404312      -0.01956297
Ni       8.66220205       3.57780042       4.16318827        3       1.00000000       0.01723274       0.02820402      -0.05251992
Ni       2.44605286       5.65696257       4.19097722        3       1.00000000      -0.00693621      -0.02364373      -0.02384643
Ni       4.96792112       5.65787812       4.18889300        3       1.00000000      -0.00289597      -0.01804419      -0.04927133
Ni       7.42515426       5.70062194       4.15334056        3       1.00000000       0.01458248      -0.02250848      -0.08737531
Ni       9.89092782       5.69532197       4.15241281        3       1.00000000       0.00162791      -0.03721864      -0.09050036
Pt       3.70762081       7.88506358       4.24892931        3       0.00000000       0.00099313      -0.04025477       0.06793946
Ni       6.24919735       7.86676221       4.20158551        3       1.00000000       0.03596907       0.02332596      -0.04448664
Ni       8.65309717       7.86175440       4.16711828        3       1.00000000      -0.01039530       0.02607266      -0.05851453
Ni      11.06086206       7.85857218       4.20676816        3       1.00000000      -0.03203454       0.00108183      -0.03269520
Ni       0.04413887       0.03143417       6.22521804        5       1.00000000       0.04393817       0.05547393       0.22462920
Ni       2.48720901       0.01470456       6.18377683        5       1.00000000       0.02654529      -0.02184748      -0.06905236
Ni       4.93798750       0.01013344       6.19054591        5       1.00000000      -0.03512464      -0.02344579      -0.04339346
Ni       7.38098108       0.02860376       6.22950569        5       1.00000000      -0.03830837       0.04259854       0.22278168
Ni       1.24561711       2.15531678       6.18735038        5       1.00000000       0.00282528       0.01232584      -0.10413239
Ni       3.71004946       2.14576743       6.18109341        5       1.00000000      -0.02646998      -0.00560611       0.02444384
Ni       6.17846725       2.15265548       6.18290890        5       1.00000000       0.00821922      -0.00001265       0.02416978
Ni       8.65844653       2.15228495       6.18780888        5       1.00000000       0.01082408      -0.00181647      -0.10992518
Ni       2.46888400       4.27759572       6.19999395        5       1.00000000      -0.00665077      -0.03405499      -0.07932845
Ni       4.95022395       4.27619893       6.18880770        5       1.00000000      -0.00449526      -0.00995122       0.02402321
Ni       7.42125133       4.28529360       6.18898321        5       1.00000000       0.02702287       0.01116573      -0.11110383
Ni       9.89547344       4.28323445       6.18521147        5       1.00000000      -0.01638031       0.00337381      -0.12401448
Ni       3.70991698       6.38143622       6.22582229        5       1.00000000      -0.00522483      -0.06695718       0.28306657
Ni       6.18718878       6.41941171       6.17263842        5       1.00000000       0.06287876      -0.01862844       0.05961604
Ni       8.65683549       6.42247501       6.07945622        4       1.00000000      -0.00003581      -0.00912923       0.49142209
Ni      11.12398556       6.41600705       6.17575277        5       1.00000000      -0.05585230      -0.02767289       0.07516960
