64
Lattice="10.243648575621783 0.00015523016029878883 -0.026631078272061837 5.121958721073148 8.844744044496528 -0.032727992626123734 -0.021744184355557215 -0.018302236669750824 8.760269012964057" Properties=species:S:1:pos:R:3:tags:I:1:initial_magmoms:R:1:forces:R:3 unique_id=643a11e4dff04a218804b1b1eee03739 stress="0.00015064003220070094 8.375260016482629e-07 5.415890384160576e-06 8.375260016482629e-07 0.00015480344578513994 9.130908608890772e-07 5.415890384160576e-06 9.130908608890772e-07 0.0001519511973019777" energy=-395.45365987854865 pbc="T T T"
Ni       0.00370008       0.01997870       0.18689090        4       1.00000000       0.03096713       0.09414886       0.29767091
Ni       2.55780057       0.00082964       0.20701680        4       1.00000000       0.02711670       0.02391676       0.36554470
Ni       5.12035682      -0.02019485       0.06341275        4       1.00000000      -0.01276085       0.04195111       0.04376660
Ni       7.68139797      -0.01555254       0.12552546        4       1.00000000       0.00963919       0.02894634       0.26133639
Ni       1.24342530       2.21961970       0.18560766        4       1.00000000      -0.11847872       0.06913674       0.29151966
Pt       3.79021430       2.21911264       0.16748576        4       0.00000000      -0.07733903       0.00835875       0.15795796
Pt       6.45015982       2.21531415       0.07687461        4       0.00000000       0.05430590       0.03803856      -0.00600965
Ni       8.99706573       2.24533671       0.11964697        4       1.00000000       0.12030200       0.13913745       0.14818606
Ni       2.55037836       4.44554311       0.05855664        4       1.00000000      -0.06430324       0.02845946       0.02693307
Ni       5.09108468       4.43746675       0.05302289        4       1.00000000      -0.08923628      -0.00226971       0.13239238
Ni       7.72936066       4.41856170       0.05245117        4       1.00000000       0.16338031      -0.00256762       0.10510812
Ni      10.22908621       4.41021145       0.04346134        4       1.00000000      -0.05454965      -0.05371017       0.04530463
Ni       3.82578729       6.61420086       0.04453666        4       1.00000000       0.00229138      -0.09907724       0.03089578
Pt       6.39523207       6.66046597       0.01957559        4       0.00000000      -0.04065098      -0.00888003      -0.21028731
Ni       8.96432426       6.61382797       0.11183755        4       1.00000000      -0.11628263      -0.14040244       0.16315854
Ni      11.52015509       6.61909015      -0.00349843        4       1.00000000      -0.05009670      -0.11129653      -0.13968426
Ni       1.29276565       0.75521482       2.15044131        3       1.00000000       0.00855045       0.09673768       0.01987852
Ni       3.83488976       0.74327717       2.19439570        3       1.00000000       0.10139172       0.03021666       0.02890850
Ni       6.37161455       0.77177963       2.21736610        3       1.00000000      -0.02690346       0.08046255       0.12850458
Pt       8.98448465       0.81609045       2.16052938        3       0.00000000      -0.06061161       0.02653376       0.11534462
Ni       2.54872119       2.94986533       2.19597971        3       1.00000000       0.01371795       0.07645463      -0.04407550
Ni       5.10068969       2.92754833       2.22439113        3       1.00000000      -0.07696559      -0.08631982       0.08993716
Ni       7.70912201       2.95721629       2.18914078        3       1.00000000       0.10333307       0.04428730       0.05936702
Ni      10.23384748       2.94987801       2.17489220        3       1.00000000      -0.00382496       0.03662492       0.14982823
Ni       3.84021196       5.10513170       2.15447429        3       1.00000000       0.00156656      -0.16896524      -0.06917374
Pt       6.42082392       5.12540434       2.15981928        3       0.00000000       0.02292378       0.07174563      -0.15217968
Ni       8.95446658       5.11345785       2.16972697        3       1.00000000       0.02793808      -0.09061072       0.07923035
Pt      11.50660350       5.06589236       2.16626464        3       0.00000000      -0.01475981      -0.01837794      -0.01976248
Ni       5.12618375       7.37058804       2.14219340        3       1.00000000      -0.02345496      -0.06352601      -0.06390277
Ni       7.67110044       7.38264126       2.14487349        3       1.00000000       0.01541851      -0.06535002      -0.00222745
Pt      10.20506352       7.38046878       2.09894888        3       0.00000000      -0.01360998      -0.02325828      -0.00275956
Pt      12.81965764       7.33544689       2.09744987        3       0.00000000       0.07452923      -0.08719116      -0.01319147
Ni      -0.03359634       1.53130022       4.33098164        2       1.00000000      -0.00153971       0.16902701       0.03467919
Pt       2.54773410       1.55428321       4.22431907        2       0.00000000      -0.00344374       0.07418742       0.12794129
Ni       5.16268770       1.44923832       4.30301982        2       1.00000000       0.05612503      -0.06876324      -0.15942308
Ni       7.65444510       1.46763308       4.30900086        2       1.00000000       0.01157547      -0.05855381      -0.09807990
Ni       1.24414361       3.72677897       4.34664440        2       1.00000000      -0.05396871       0.00206812       0.00239568
Ni       3.80073708       3.70529841       4.30273133        2       1.00000000      -0.11895405       0.00144535      -0.20324721
Pt       6.42920248       3.61029056       4.34779708        2       0.00000000       0.02881022      -0.03013520      -0.03077260
Ni       8.99128479       3.70369065       4.29075056        2       1.00000000       0.11139741       0.05263283      -0.18616026
Ni       2.49451798       5.84584793       4.38347927        2       1.00000000      -0.13765479      -0.02940925      -0.06452858
Pt       5.04783033       5.82952480       4.36112066        2       0.00000000      -0.10035258       0.01294395      -0.15485445
Ni       7.71898692       5.84028847       4.31986411        2       1.00000000       0.14999950      -0.07521031      -0.13984327
Ni      10.26269478       5.83249230       4.32858592        2       1.00000000       0.00416045      -0.03373979      -0.11186090
Pt       3.75924111       8.10908331       4.31919652        2       0.00000000      -0.01991698       0.00734286       0.17786510
Pt       6.40186434       8.08424161       4.23000677        2       0.00000000      -0.04553356       0.03671073       0.01807621
Pt       9.02735160       8.08403597       4.29186466        2       0.00000000      -0.04319402      -0.08223713       0.04837605
Ni      11.50051158       8.08932807       4.30792070        2       1.00000000       0.00942708      -0.09563762      -0.14146058
Pt      -0.03623701      -0.07185121       6.56950181        1       0.00000000      -0.01644978      -0.05709230       0.16118971
Pt       2.59115974      -0.03519405       6.57449912        1       0.00000000       0.00504307       0.01001441       0.24890241
Ni       5.12339357      -0.02392356       6.47686476        1       1.00000000      -0.06569507      -0.03984233      -0.16605799
Pt       7.55240173      -0.04942462       6.51639136        1       0.00000000      -0.08065485      -0.06275272       0.11909961
Pt       1.26752887       2.30585128       6.51070504        1       0.00000000       0.06808979       0.06469565       0.18193935
Pt       3.92622360       2.27377272       6.41578986        1       0.00000000       0.08731667       0.16965751      -0.27984807
Ni       6.38566154       2.20970747       6.40435473        1       1.00000000       0.00816229      -0.00790182      -0.17806842
Pt       8.88299157       2.28953868       6.45221732        1       0.00000000      -0.01139432       0.10821114      -0.00369765
Ni       2.55015759       4.48449530       6.45337087        1       1.00000000       0.06430437       0.11613781      -0.20463811
Ni       5.11905285       4.44435504       6.48931190        1       1.00000000       0.07098892       0.12983006      -0.02957341
Ni       7.63502680       4.42713943       6.46374694        1       1.00000000      -0.13891784       0.05637664      -0.10629022
Ni      10.25832463       4.44218833       6.43344297        1       1.00000000       0.16326996      -0.01078300      -0.21835851
Ni       3.79571265       6.55419357       6.48272527        1       1.00000000      -0.10841163      -0.06715372      -0.09010382
Ni       6.38304645       6.55816789       6.38830055        1       1.00000000       0.08588056      -0.04424594      -0.38682486
Pt       8.99956580       6.51844433       6.48277831        1       0.00000000       0.04588057      -0.03250676       0.09506955
Ni      11.52712653       6.57277524       6.42635100        1       1.00000000       0.04210680      -0.12867081      -0.27936215
