64
Lattice="10.466469090465912 -0.004003634756153051 0.04782904975204032 5.229767295826649 9.069477745905472 -0.01598268663576988 0.039052255591563195 -0.0376154517472277 9.019792306015965" Properties=species:S:1:pos:R:3:tags:I:1:initial_magmoms:R:1:forces:R:3 unique_id=f5125e1a3bd146e6b21ed10af2427031 stress="0.000766093558877988 7.989649210051204e-06 -5.77059856707363e-06 7.989649210051204e-06 0.0007623643446125969 6.907118291453379e-06 -5.77059856707363e-06 6.907118291453379e-06 0.0006331836901413215" energy=-407.45933905333953 pbc="T T T"
Ni      -0.05733652      -0.03077507       0.17656523        4       1.00000000      -0.19273484      -0.07186368       0.15415944
Ni       2.64447297      -0.04357165       0.08615689        4       1.00000000       0.12630908      -0.08894665       0.05426847
Ni       5.26259661      -0.05043986       0.17519731        4       1.00000000       0.12654213      -0.01394969       0.14571205
Ni       7.87695163      -0.05053735       0.15730125        4       1.00000000       0.03769172      -0.11458106       0.13642764
Pt       1.25231209       2.22469507       0.10836159        4       0.00000000       0.01864094      -0.03049540      -0.15237640
Pt       3.95989424       2.23523755       0.12314828        4       0.00000000       0.07626500       0.02142617      -0.11311019
Pt       6.59057989       2.18020420       0.16778777        4       0.00000000       0.06284780      -0.12861071      -0.04879105
Ni       9.14566118       2.22632169       0.19376080        4       1.00000000      -0.05478027      -0.12712179       0.15946587
Pt       2.62059907       4.62049208       0.09204412        4       0.00000000       0.06916550       0.04932205      -0.18099835
Ni       5.26200474       4.53674980       0.15619179        4       1.00000000       0.18661864      -0.07937842       0.12701680
Pt       7.91397666       4.55408509       0.17399269        4       0.00000000       0.07513136      -0.03348203      -0.00829335
Ni      10.45704656       4.57346763       0.09398719        4       1.00000000       0.02700939       0.11278355       0.02961574
Ni       3.91589192       6.86341408       0.17323254        4       1.00000000       0.00199314       0.13502125       0.17303320
Pt       6.53075256       6.84874540       0.21127160        4       0.00000000       0.01935557      -0.01484775       0.05715649
Ni       9.18455255       6.81149407       0.09251614        4       1.00000000       0.01893710      -0.00595277       0.04249428
Ni      11.76933558       6.84187293       0.08871379        4       1.00000000       0.06407344       0.09582951      -0.01502848
Pt       1.27968428       0.63638393       2.21334159        3       0.00000000       0.04264100      -0.03231374       0.01146052
Pt       4.00715626       0.72582459       2.28407764        3       0.00000000       0.03436998       0.01876451       0.04714731
Ni       6.59463964       0.72449133       2.31019475        3       1.00000000       0.06123214      -0.04607894       0.03124657
Ni       9.10774176       0.70369855       2.25432093        3       1.00000000      -0.11083810      -0.00337469      -0.03885840
Pt       2.67041817       3.04177611       2.31141791        3       0.00000000      -0.03503568       0.04665560       0.02028893
Ni       5.27074918       3.02355702       2.33634547        3       1.00000000      -0.00455174       0.02279415       0.09773087
Pt       7.78627607       3.00173570       2.40575314        3       0.00000000      -0.06042221       0.00624018       0.00030920
Pt      10.37863370       3.03921822       2.27234367        3       0.00000000      -0.07045601       0.05136119      -0.02715605
Pt       4.03006336       5.33285772       2.22647768        3       0.00000000       0.07223688       0.02189074       0.04382444
Ni       6.59475330       5.28790414       2.29315959        3       1.00000000       0.10848016       0.01164624       0.05688763
Ni       9.12226685       5.31312948       2.33192403        3       1.00000000      -0.05885680       0.04271667       0.11397848
Pt      11.73048547       5.33896994       2.27426920        3       0.00000000      -0.01728108       0.00774697      -0.01189618
Ni       5.20756719       7.55495928       2.23167763        3       1.00000000      -0.06937315       0.03241703       0.05650709
Ni       7.86982058       7.48729464       2.27549762        3       1.00000000       0.06192807      -0.09026746       0.07399662
Pt      10.46351634       7.53558447       2.19327072        3       0.00000000      -0.01955476      -0.00943955       0.04813420
Ni      13.10778215       7.60359690       2.23757744        3       1.00000000      -0.04935960       0.04694033      -0.05090879
Pt      -0.08190244       1.52570826       4.41589514        2       0.00000000      -0.11577128       0.02386802      -0.08144389
Pt       2.68462335       1.48907630       4.46775996        2       0.00000000      -0.06549463      -0.04140048      -0.12741012
Ni       5.29694761       1.53217072       4.44618735        2       1.00000000       0.04808700       0.07159046      -0.19314791
Ni       7.83145960       1.51789201       4.47520485        2       1.00000000      -0.03344695       0.00403626      -0.09101761
Pt       1.23069474       3.81947717       4.47667020        2       0.00000000      -0.12726469       0.02033047      -0.11941762
Ni       3.99914621       3.73969498       4.46446452        2       1.00000000       0.06407955      -0.01003548      -0.08715217
Ni       6.56778147       3.73128852       4.47322648        2       1.00000000      -0.03445363      -0.02305149       0.03084367
Ni       9.13049096       3.80706435       4.48502303        2       1.00000000      -0.09157267       0.04308633      -0.11795176
Pt       2.60046388       6.05292842       4.44286997        2       0.00000000       0.00507919       0.07073224      -0.07761244
Pt       5.32815843       5.94533381       4.41968202        2       0.00000000       0.02317278      -0.04417513       0.03768256
Ni       7.91641610       5.97015956       4.43593991        2       1.00000000       0.02440630      -0.10428395      -0.17118496
Ni      10.42595543       6.00746715       4.54779374        2       1.00000000      -0.05545452      -0.00657526      -0.03230716
Pt       3.91543429       8.31989491       4.37173155        2       0.00000000      -0.00771926      -0.03447828      -0.05171615
Pt       6.57740209       8.25024043       4.42368172        2       0.00000000      -0.03028749       0.00543020      -0.03898207
Pt       9.18244374       8.19792605       4.51224367        2       0.00000000      -0.02474076      -0.02973783      -0.00518036
Pt      11.77977741       8.35963858       4.47095670        2       0.00000000      -0.02192853       0.05807755      -0.03275647
Pt       0.01847564      -0.02610958       6.77995696        1       0.00000000      -0.02888683       0.02469941       0.12687956
Ni       2.66487876      -0.04442026       6.71645432        1       1.00000000       0.02107034       0.01672119      -0.09112936
Pt       5.25634411      -0.13326705       6.79607762        1       0.00000000      -0.01924300      -0.06428022       0.14709814
Ni       7.85575459      -0.03819205       6.73724605        1       1.00000000      -0.04023298       0.01524771      -0.08645294
Pt       1.32092651       2.23956977       6.64245981        1       0.00000000      -0.01925092       0.01134791      -0.00837397
Pt       3.96501464       2.20184256       6.61716297        1       0.00000000       0.06045773       0.00035771      -0.01334493
Pt       6.58449192       2.18721194       6.59417695        1       0.00000000      -0.01932071      -0.03387800      -0.04252117
Pt       9.17214089       2.25170407       6.76220837        1       0.00000000      -0.00324026       0.04575380       0.13307240
Pt       2.57649374       4.54813378       6.62364443        1       0.00000000       0.02292390       0.00725626      -0.02247716
Pt       5.27059989       4.51295177       6.69920878        1       0.00000000      -0.00633634       0.04114063       0.10627256
Pt       7.96057297       4.55738309       6.59426650        1       0.00000000      -0.01081309       0.01673373      -0.02144109
Ni      10.47775707       4.57179430       6.70511640        1       1.00000000      -0.02814369       0.11829423      -0.08801363
Pt       3.87039036       6.83113810       6.76377047        1       0.00000000      -0.09017068       0.05423875       0.15654809
Pt       6.65771268       6.81126347       6.67118925        1       0.00000000       0.07042284       0.05307304       0.05681929
Ni       9.22942640       6.75376293       6.69828674        1       1.00000000       0.07525515      -0.08570800      -0.08520558
Ni      11.74887749       6.76335311       6.72296290        1       1.00000000      -0.08940665      -0.05726357      -0.14242038
