64
Lattice="10.242903648805234 0.04426533629989324 -0.026905417210887177 5.159786730145391 8.839038910132622 -0.05111325784227496 -0.02196818116112338 -0.035506706331431305 8.763201168089335" Properties=species:S:1:pos:R:3:tags:I:1:initial_magmoms:R:1:forces:R:3 unique_id=066cd877ccaa4078bc59a2b5d2a204aa stress="-0.007257236494380516 -2.5302305139748297e-05 3.787627764115718e-05 -2.5302305139748297e-05 -0.007189974962897118 -1.2216033909403286e-05 3.787627764115718e-05 -1.2216033909403286e-05 -0.006171775677680957" energy=-394.75625589024537 pbc="T T T"
Ni       0.01553204      -0.06918956       0.19837912        4       1.00000000       0.06386627      -0.07330372       0.18109404
Ni       2.53603357      -0.00678449       0.16536157        4       1.00000000       0.00125767       0.08397289       0.06377771
Pt       5.16055496      -0.00666659       0.16285165        4       0.00000000      -0.02042264       0.01356586      -0.11215115
Ni       7.69017984      -0.02212934       0.16125674        4       1.00000000       0.01012327      -0.11024574       0.08895416
Pt       1.27974350       2.23376961       0.09580500        4       0.00000000      -0.03936058       0.07843644      -0.09056600
Pt       3.88380832       2.31026095       0.18090844        4       0.00000000      -0.00827982       0.08999592      -0.06139030
Ni       6.41158918       2.28140371       0.09796550        4       1.00000000      -0.04096695       0.12308436       0.13940754
Pt       8.89935084       2.30977816       0.11357994        4       0.00000000      -0.06310017       0.14012923      -0.16062613
Ni       2.58043090       4.48549138       0.08641509        4       1.00000000       0.03480266       0.06208443       0.08392227
Ni       5.16381137       4.48379801       0.08368383        4       1.00000000      -0.01748294       0.09471096       0.05114294
Ni       7.65750655       4.48674306       0.07940157        4       1.00000000      -0.10008999       0.11723941       0.12483376
Ni      10.26501832       4.50895182       0.07089053        4       1.00000000      -0.00152011       0.08309224       0.06715650
Ni       3.87201911       6.60200573       0.07723110        4       1.00000000       0.00489470      -0.04980745       0.05113267
Ni       6.38283647       6.60267147       0.03133278        4       1.00000000      -0.13483857      -0.04325344      -0.08403952
Ni       8.98222486       6.58435935       0.12743648        4       1.00000000       0.00371853      -0.09425393       0.12400658
Ni      11.59703737       6.60443835       0.03302977        4       1.00000000       0.07926520      -0.06646815      -0.00021711
Ni       1.30125091       0.75914988       2.20346259        3       1.00000000       0.02600067       0.06677328       0.03928313
Ni       3.79967302       0.78126252       2.19285098        3       1.00000000      -0.07447772       0.00126178      -0.02131123
Ni       6.41906224       0.79217477       2.19028294        3       1.00000000       0.02243332       0.02069013       0.01985048
Pt       8.93891620       0.74776817       2.16132150        3       0.00000000       0.03021019       0.00590155       0.09595902
Ni       2.56114626       2.98083356       2.26052018        3       1.00000000       0.00246599       0.03165448       0.05155865
Ni       5.14887809       3.01042340       2.17722614        3       1.00000000       0.02422172       0.11562075       0.01396170
Ni       7.65845235       3.00901300       2.19549159        3       1.00000000      -0.02041182       0.04916058       0.07694078
Ni      10.26830485       3.04429888       2.19324007        3       1.00000000       0.02610205       0.03664799      -0.01420925
Ni       3.86749587       5.13599072       2.14353998        3       1.00000000       0.01381783      -0.08033694      -0.01657866
Ni       6.37538967       5.13310166       2.11587367        3       1.00000000      -0.06977380      -0.00577431       0.01525325
Ni       8.98508553       5.10248217       2.14066620        3       1.00000000      -0.03569644      -0.08300721       0.03485102
Ni      11.56773770       5.11790723       2.12629884        3       1.00000000       0.05679809      -0.13982605      -0.02253532
Ni       5.12045901       7.29001736       2.12738945        3       1.00000000      -0.09330294      -0.15738102       0.02949728
Pt       7.61979288       7.34794325       2.07885903        3       0.00000000      -0.06744345      -0.05128277       0.01272340
Pt      10.35393444       7.28407849       2.17551752        3       0.00000000       0.03664707      -0.14904679       0.09983688
Ni      12.85579730       7.32818737       2.09231758        3       1.00000000       0.07922042      -0.15496484      -0.02294386
Pt       0.06877537       1.51221177       4.29429611        2       0.00000000       0.03416506      -0.06625968      -0.02053230
Ni       2.55488763       1.52199984       4.28217673        2       1.00000000       0.04273019       0.06743952      -0.10616946
Pt       5.12967568       1.49108134       4.22076490        2       0.00000000       0.01606868      -0.00400204      -0.09829648
Ni       7.67575445       1.48863495       4.30217468        2       1.00000000       0.02014970      -0.03491417      -0.06730705
Ni       1.29090061       3.67158385       4.32450052        2       1.00000000       0.02373485      -0.01140812      -0.10614898
Ni       3.82063676       3.69620936       4.26781655        2       1.00000000       0.02895625       0.02278105      -0.18286859
Pt       6.39795162       3.68818909       4.31738683        2       0.00000000       0.01023141      -0.02752331       0.01024224
Ni       9.01089487       3.73320308       4.25532130        2       1.00000000       0.04560929       0.01953981      -0.17828478
Pt       2.54575775       5.80012251       4.30627843        2       0.00000000      -0.01554119      -0.00569050      -0.10875368
Ni       5.12167552       5.85946435       4.31374569        2       1.00000000      -0.02035948      -0.07427904      -0.12468720
Pt       7.67820300       5.86749872       4.28720150        2       0.00000000       0.00853552      -0.00490582       0.01091185
Ni      10.27517085       5.83704999       4.30570608        2       1.00000000      -0.02492089      -0.07651513      -0.02072746
Pt       3.88038413       8.02271669       4.26342944        2       0.00000000       0.03431091       0.00286883       0.04622528
Ni       6.40750065       8.08144239       4.26978483        2       1.00000000      -0.02559086       0.00129893      -0.07309762
Pt       8.96250521       8.10766983       4.24299541        2       0.00000000      -0.04649356      -0.04199693      -0.03491627
Ni      11.57068882       8.08858502       4.25975747        2       1.00000000       0.04301029      -0.02325471      -0.05884441
Pt      -0.00607990      -0.08599461       6.56558731        1       0.00000000      -0.02984302      -0.01730520       0.19760625
Pt       2.51983435      -0.00161239       6.51732160        1       0.00000000       0.05893700       0.04454584       0.06363414
Pt       5.13782111      -0.00179096       6.43049230        1       0.00000000      -0.01822239       0.02049854       0.10212178
Pt       7.66414782      -0.03348488       6.51360737        1       0.00000000       0.05284644      -0.00640014       0.11732244
Ni       1.27701894       2.25844295       6.39663256        1       1.00000000       0.05223097       0.07655653      -0.10707137
Pt       3.81725234       2.33890175       6.40095685        1       0.00000000       0.00228128       0.10551399       0.00420681
Ni       6.39214192       2.26405701       6.47431607        1       1.00000000      -0.01895978       0.04017948       0.01324365
Pt       8.93874765       2.33586509       6.36825407        1       0.00000000      -0.02854811       0.07825639      -0.00178949
Ni       2.53476401       4.44318482       6.46724981        1       1.00000000      -0.01898140       0.06981821      -0.00571953
Ni       5.13305256       4.46658368       6.46756020        1       1.00000000      -0.02990874       0.09250933      -0.02164264
Ni       7.62392641       4.42609699       6.47847583        1       1.00000000      -0.13187270       0.01600716       0.05476737
Ni      10.32140234       4.42441381       6.41929262        1       1.00000000       0.16531940      -0.02072552      -0.10769119
Ni       3.86110242       6.52121289       6.47608300        1       1.00000000      -0.00222698      -0.09264064      -0.00453256
Ni       6.38160753       6.55340695       6.44978848        1       1.00000000      -0.01514612      -0.02067388      -0.13373552
Pt       9.00285572       6.49869896       6.52411420        1       0.00000000       0.04037659      -0.07371613       0.15857867
Ni      11.56646801       6.57411766       6.43647065        1       1.00000000       0.01844366      -0.01067255      -0.07461915
