64
Lattice="10.338394771879923 -0.011073629280543826 0.0076142238992290365 5.159607341670921 8.900711023240056 -0.016640098121234535 0.006216987780138686 -0.01927781452992434 8.79507210605265" Properties=species:S:1:pos:R:3:tags:I:1:initial_magmoms:R:1:forces:R:3 unique_id=e381fa01b0ea41bea55c43490b50d521 stress="0.0002408501068738092 4.5675350161851824e-06 -1.5234215682916048e-05 4.5675350161851824e-06 0.00024284301595441093 1.6720541062955347e-06 -1.5234215682916048e-05 1.6720541062955347e-06 0.00023866478906781063" energy=-397.8566947502546 pbc="T T T"
Ni       0.00391058       0.02165715       0.17917029        4       1.00000000       0.03300943       0.03604514       0.21589996
Ni       2.58146214       0.00109211       0.21238646        4       1.00000000       0.01744745       0.01606698       0.38538312
Ni       5.16619058      -0.01720997       0.17181537        4       1.00000000      -0.03415741       0.13872994       0.27542337
Ni       7.75815761      -0.05323599       0.19330688        4       1.00000000      -0.03898785      -0.16603562       0.33534648
Ni       1.25865351       2.23095900       0.10498088        4       1.00000000      -0.12037392       0.03056863       0.20850809
Pt       3.81178719       2.23245435       0.19551344        4       0.00000000      -0.06310140       0.04603234       0.15049465
Pt       6.48218723       2.17334870       0.19892234        4       0.00000000       0.06087495      -0.02789955       0.20672818
Ni       9.08612029       2.21660105       0.15050888        4       1.00000000       0.11266114       0.05113323       0.13477140
Ni       2.57286920       4.46954300       0.07138017        4       1.00000000       0.06942786       0.04920609       0.02441699
Ni       5.13497827       4.46393730       0.18285920        4       1.00000000      -0.02361949       0.01506265       0.33873574
Pt       7.82527132       4.45516718       0.10710146        4       0.00000000       0.11543065       0.00535640      -0.09024099
Ni      10.36567474       4.43548149       0.07409478        4       1.00000000       0.12339770      -0.04720638       0.12611143
Ni       3.83828225       6.67160043       0.18185741        4       1.00000000      -0.05069389      -0.06407725       0.29356443
Pt       6.42921380       6.71490666       0.18253170        4       0.00000000      -0.05911271       0.00490884       0.05972607
Ni       9.06163655       6.68138506       0.06827687        4       1.00000000      -0.01009146       0.01518762       0.01674834
Ni      11.64249752       6.66165662       0.06451442        4       1.00000000       0.13210872      -0.04957415       0.00063662
Ni       1.30161885       0.75780041       2.16087190        3       1.00000000      -0.04121050       0.11866099      -0.13760301
Ni       3.86995738       0.74532042       2.21400329        3       1.00000000       0.05818091       0.04445740       0.04214932
Ni       6.45500456       0.74678416       2.24542339        3       1.00000000      -0.02421636       0.11985735       0.15384154
Pt       9.05566066       0.76910916       2.18739619        3       0.00000000      -0.00122992       0.08717221       0.12554329
Ni       2.57278332       2.97083222       2.21876316        3       1.00000000      -0.01941497       0.12076273      -0.06129192
Ni       5.14578303       2.97785994       2.24619537        3       1.00000000      -0.16123663      -0.00059049       0.00381760
Ni       7.78051684       2.97433676       2.24358005        3       1.00000000       0.16030771       0.07003841      -0.04074737
Ni      10.34069751       2.95071526       2.21050232        3       1.00000000       0.05971413       0.06102180       0.06324395
Ni       3.90195195       5.18116206       2.21019248        3       1.00000000       0.06111503      -0.04448984       0.09413701
Ni       6.44194775       5.18697515       2.22450115        3       1.00000000      -0.01136342       0.12521042      -0.08423182
Ni       9.02413054       5.15810292       2.22981366        3       1.00000000       0.00298371      -0.09257490       0.11547757
Pt      11.67405700       5.12074097       2.17421603        3       0.00000000       0.06228483      -0.04357707       0.00731432
Ni       5.13680033       7.38011178       2.18861828        3       1.00000000      -0.14475157      -0.13198320      -0.08602107
Ni       7.74541422       7.40329304       2.18753057        3       1.00000000       0.04353892      -0.12780901      -0.09375844
Pt      10.31553091       7.40928806       2.10191387        3       0.00000000       0.02943333      -0.16933672      -0.05125520
Ni      12.94011658       7.37853285       2.15709366        3       1.00000000       0.00972836      -0.12460744      -0.01311583
Ni      -0.00758856       1.54163703       4.33775935        2       1.00000000      -0.03640087       0.12464969      -0.15276773
Pt       2.53911455       1.56797891       4.25168696        2       0.00000000       0.02094201       0.02358284       0.01147708
Ni       5.17225201       1.49864271       4.31434325        2       1.00000000      -0.06171876       0.09041527      -0.16445223
Ni       7.77994840       1.49915556       4.32606029        2       1.00000000       0.05294642       0.05728325      -0.10921942
Ni       1.28777223       3.69608346       4.38387361        2       1.00000000      -0.04244503      -0.01909702      -0.08840844
Ni       3.85933310       3.75060288       4.31013541        2       1.00000000      -0.03684920       0.08604006      -0.20770561
Pt       6.47922981       3.72267396       4.24333424        2       0.00000000      -0.05015064      -0.06729561       0.09171431
Ni       9.05290953       3.67108542       4.33104908        2       1.00000000       0.02428298      -0.10858579      -0.32505949
Ni       2.59307428       5.85649777       4.34745504        2       1.00000000       0.01076228      -0.14013278      -0.15670074
Ni       5.14263622       5.88522759       4.29409643        2       1.00000000      -0.05851142      -0.06320373      -0.20762174
Ni       7.76519600       5.87419134       4.31973917        2       1.00000000       0.03573217      -0.04152971      -0.28449357
Pt      10.32952943       5.81116955       4.41917854        2       0.00000000      -0.00567848      -0.01952223      -0.11466195
Pt       3.87357821       8.11840211       4.27664392        2       0.00000000      -0.05960602      -0.11366976       0.12075759
Pt       6.43751934       8.11872053       4.21820433        2       0.00000000      -0.05154777      -0.03355036      -0.04861610
Pt       9.01984311       8.13281287       4.30408774        2       0.00000000      -0.02514682       0.05223254       0.06557693
Pt      11.64552199       8.15250011       4.29153271        2       0.00000000       0.03105712       0.00650982       0.06215919
Pt       0.02277725       0.03222762       6.57227493        1       0.00000000       0.00630395       0.04086373       0.05725188
Pt       2.58607726      -0.01188645       6.60543381        1       0.00000000      -0.02564451       0.02697417       0.21133367
Pt       5.16483742      -0.10501250       6.58988591        1       0.00000000       0.02121329      -0.15851243       0.07078541
Pt       7.75363693      -0.03683571       6.59836757        1       0.00000000      -0.00564659       0.03589418       0.13949730
Ni       1.28433086       2.28383592       6.50803502        1       1.00000000      -0.00990146       0.17134095      -0.17791790
Pt       3.80936239       2.26521406       6.46126230        1       0.00000000      -0.11096943       0.02650333      -0.27975810
Pt       6.48923449       2.22583405       6.45004999        1       0.00000000       0.00360495       0.04563617      -0.23998725
Pt       9.11884648       2.32218973       6.50353384        1       0.00000000       0.07241890       0.12734248       0.01099808
Ni       2.50051226       4.43588026       6.49036030        1       1.00000000      -0.22906730      -0.00532252      -0.26147324
Pt       5.14946449       4.43825352       6.51867220        1       0.00000000      -0.00596484       0.01192420       0.06137856
Ni       7.81175426       4.45762429       6.43300221        1       1.00000000       0.14716948       0.07441384      -0.33249826
Ni      10.37220633       4.44820339       6.52605063        1       1.00000000       0.13398305       0.07152592      -0.04215160
Pt       3.78830378       6.59762852       6.53263301        1       0.00000000      -0.10886740      -0.05708379       0.15316328
Pt       6.52675876       6.60334696       6.44594562        1       0.00000000       0.03143542       0.01904500      -0.30356967
Ni       9.07147785       6.58388504       6.52322632        1       1.00000000       0.03934968      -0.19437218      -0.14711421
Ni      11.59937315       6.58339419       6.53079955        1       1.00000000      -0.05516844      -0.13601705      -0.13166982
