64
Lattice="10.676064731102706 -0.0019277170654411135 -0.011713107823761486 5.336362913601372 9.267119011428026 0.012797040302575719 -0.009563712490139048 0.017586777283392443 9.29839513010107" Properties=species:S:1:pos:R:3:tags:I:1:initial_magmoms:R:1:forces:R:3 unique_id=f098a8dcacee497c899a0b6b6f1c224c stress="0.00015538361765269487 -2.063161117067314e-06 -4.045649172022e-06 -2.063161117067314e-06 0.00015432126250625178 -4.999084347688885e-06 -4.045649172022e-06 -4.999084347688885e-06 0.00013799027153373056" energy=-424.1467326525001 pbc="T T T"
Ni       0.00288361       0.01082226       0.11029575        4       1.00000000       0.00301279       0.02924791       0.43349281
Pt       2.62247874       0.03452269       0.12112796        4       0.00000000      -0.09000640       0.08465094       0.08654418
Pt       5.34419746      -0.02534956       0.11528214        4       0.00000000       0.01158419      -0.05513532       0.13548647
Pt       8.03775305      -0.01223241       0.11460596        4       0.00000000       0.03874252       0.06360203       0.16479994
Ni       1.32570298       2.30491580       0.10621184        4       1.00000000      -0.00991403      -0.02298468       0.39440480
Pt       3.97839601       2.30620031       0.14271985        4       0.00000000      -0.03121211      -0.01785056       0.12985631
Pt       6.67355864       2.31852880       0.11491676        4       0.00000000       0.05615490       0.01233307       0.10873378
Pt       9.39616749       2.26977208       0.04379144        4       0.00000000       0.18710199      -0.13535509      -0.00627128
Pt       2.63568570       4.64037339       0.11511410        4       0.00000000      -0.04112941       0.03159189       0.17870705
Pt       5.33476229       4.62904294       0.12027357        4       0.00000000      -0.01434971      -0.00008211       0.13825606
Pt       8.02191067       4.63686569       0.04399255        4       0.00000000       0.03603364      -0.01186338      -0.01914270
Pt      10.68770458       4.63193942       0.10700996        4       0.00000000      -0.00693788      -0.03890050       0.11705980
Pt       3.99900664       6.98416652       0.13122667        4       0.00000000       0.00372706       0.02588431       0.15780344
Pt       6.64561811       6.98646008       0.05843432        4       0.00000000      -0.04088670       0.11329919       0.02089081
Pt       9.36333422       6.93869526       0.11879514        4       0.00000000      -0.01359196       0.00517374       0.14993089
Ni      12.01009111       6.94760004       0.05203218        4       1.00000000       0.02798913       0.01489049       0.27457095
Pt       1.29455559       0.75752646       2.31217076        3       0.00000000      -0.17268347      -0.08501330       0.00222987
Ni       3.99916372       0.79077616       2.33903346        3       1.00000000      -0.06487446       0.00387341       0.07706880
Pt       6.64592873       0.80540234       2.34737212        3       0.00000000      -0.03602962       0.06696785       0.06437712
Ni       9.35544174       0.76084626       2.31225412        3       1.00000000       0.03874055      -0.04964831      -0.01485948
Pt       2.69653156       3.03358050       2.35962395        3       0.00000000      -0.00362559      -0.21666033       0.14544029
Ni       5.32628257       3.07881550       2.33553963        3       1.00000000      -0.01060268      -0.02375621       0.04476444
Pt       8.01342769       3.09483568       2.35153571        3       0.00000000       0.08849282       0.03102958       0.02946538
Pt      10.66169934       3.06831437       2.31740733        3       0.00000000      -0.00186755      -0.02910848       0.03700715
Pt       4.02650811       5.40487841       2.35573370        3       0.00000000       0.02997654      -0.03706423       0.08492269
Pt       6.68250410       5.41706447       2.35824894        3       0.00000000       0.09103466       0.04352785       0.02868310
Ni       9.33387477       5.40585917       2.33130599        3       1.00000000      -0.03797379      -0.04103130       0.07861151
Pt      11.98180146       5.42299296       2.33203160        3       0.00000000      -0.01351212      -0.01041376       0.06494857
Ni       5.33211938       7.74852113       2.33178668        3       1.00000000       0.00982935       0.08353877      -0.02230580
Pt       7.98979205       7.73427883       2.35744484        3       0.00000000      -0.06155031       0.02200712       0.03388643
Pt      10.65989660       7.72467711       2.34483482        3       0.00000000      -0.01842347       0.02736780       0.08468329
Pt      13.37714875       7.75278569       2.33623245        3       0.00000000       0.02400470       0.05619874       0.06808112
Pt       0.01649946       1.55150526       4.61674700        2       0.00000000       0.06495836      -0.01881957      -0.10423003
Ni       2.66521029       1.55085494       4.62226592        2       1.00000000      -0.03261485      -0.03239328      -0.13855760
Pt       5.29234879       1.55809531       4.55912325        2       0.00000000      -0.09715869       0.04483001      -0.24895744
Pt       8.02136700       1.55307770       4.61559023        2       0.00000000       0.04448054      -0.05949312      -0.11793455
Pt       1.34308766       3.82653906       4.62219131        2       0.00000000       0.04073665      -0.10799964      -0.08825547
Pt       3.99640530       3.84196900       4.59644923        2       0.00000000       0.04720109       0.02084672      -0.10026060
Pt       6.66728067       3.86732228       4.61394721        2       0.00000000      -0.08535945      -0.06667515      -0.16568068
Pt       9.32654348       3.87054640       4.65714727        2       0.00000000       0.03469199       0.00830778      -0.02768712
Pt       2.65290630       6.19055737       4.64346713        2       0.00000000      -0.00433962      -0.01156411      -0.05436593
Pt       5.34419527       6.20573172       4.62967216        2       0.00000000      -0.02409476       0.07648472      -0.11874263
Pt       8.00093231       6.17897284       4.65786837        2       0.00000000       0.04859662       0.01730961      -0.01554511
Pt      10.66428807       6.18562110       4.62266005        2       0.00000000      -0.08165164      -0.03970596      -0.08655070
Pt       4.02024959       8.51797116       4.58303571        2       0.00000000       0.09237213       0.07567695      -0.27244715
Pt       6.66956392       8.51734088       4.62565620        2       0.00000000      -0.01009188       0.04666456      -0.10011382
Pt       9.30998886       8.54634127       4.60050334        2       0.00000000      -0.07704727       0.14535934      -0.16387075
Pt      12.00135200       8.49434101       4.63725003        2       0.00000000      -0.00187110       0.02160460      -0.02230283
Pt      -0.01223660       0.01360991       6.95236148        1       0.00000000      -0.02547450      -0.01614365       0.09085073
Pt       2.64695584      -0.00562793       6.86836764        1       0.00000000      -0.02315715      -0.04846356      -0.05600784
Pt       5.34727746      -0.02447877       6.87694695        1       0.00000000       0.02945174      -0.08140572      -0.08281690
Pt       8.00830765       0.01019876       6.88064769        1       0.00000000       0.03276044      -0.00101537      -0.03871458
Pt       1.29571365       2.32693057       6.95047742        1       0.00000000      -0.08139337      -0.00184939       0.11538682
Pt       3.98858172       2.32279198       6.86455564        1       0.00000000       0.04521604       0.00405301      -0.07098893
Pt       6.72052028       2.36207147       6.87629678        1       0.00000000       0.14918134       0.06198017      -0.08719720
Ni       9.33469597       2.33354680       6.88086267        1       1.00000000       0.01831178      -0.01134819      -0.29246830
Pt       2.63734930       4.67702970       6.89249705        1       0.00000000      -0.04965206       0.05378973      -0.06288405
Pt       5.38760419       4.67548189       6.88158208        1       0.00000000       0.14662802       0.07481409      -0.06294260
Ni       8.00044578       4.64685161       6.88072380        1       1.00000000       0.02006265       0.00981662      -0.30537476
Pt      10.63082563       4.64253887       6.87943877        1       0.00000000      -0.10703799      -0.04623807      -0.05381842
Pt       3.99881474       6.97066455       6.89929918        1       0.00000000       0.02684664       0.02405546      -0.05026485
Ni       6.66727939       6.95460673       6.88925804        1       1.00000000       0.00444562       0.00249712      -0.28800873
Pt       9.31401314       6.92763094       6.88492439        1       0.00000000      -0.09339498      -0.06568437      -0.04228971
Ni      11.99989148       6.96103702       6.93848540        1       1.00000000      -0.02885587      -0.01960842      -0.15908608
