64
Lattice="10.262251251105518 0.003823927833808006 0.013688507355858895 5.1344372441990735 8.872178295079436 0.006088399167653472 0.0 0.0 21.498764276211404" Properties=species:S:1:pos:R:3:tags:I:1:initial_magmoms:R:1:forces:R:3 unique_id=679f5bcb930a4d22bc023c2c8108dfc0 energy=-374.4027244466483 stress="0.00557038653077799 0.00021421253485040024 0.0002844517891636405 0.00021421253485040024 0.0057484515215110955 8.314878315710744e-05 0.0002844517891636405 8.314878315710744e-05 -0.0012391388954751358" pbc="T T T"
Ni       0.01308103      -0.00624481       0.09924402        1       1.00000000       0.07923869      -0.00409224      -0.09285264
Ni       2.53490808       0.01191415       0.13154452        1       1.00000000      -0.04768183       0.05632658      -0.10288844
Pt       5.12471012      -0.04043826       0.06860555        1       0.00000000      -0.03327639       0.22716619      -0.95293928
Ni       7.72320243      -0.05472124       0.11436649        1       1.00000000      -0.04837789      -0.09461244      -0.20062463
Ni       1.29173838       2.22724965       0.02904838        0       1.00000000      -0.00061482       0.05579833       0.35850028
Pt       3.76866611       2.27413567       0.11730361        1       0.00000000       0.08568270      -0.00661387      -0.49369687
Pt       6.41881716       2.23076684       0.04608067        0       0.00000000       0.03319399      -0.00594486      -0.10443699
Pt       9.07582312       2.22273070       0.05193501        1       0.00000000      -0.00393198       0.11848443      -0.49360577
Ni       2.55713632       4.47254599       0.00000000        0       1.00000000       0.08496217       0.03801792       0.32457942
Ni       5.09374678       4.47298312       0.11617125        1       1.00000000      -0.10245764       0.12985327       0.05744823
Pt       7.74424686       4.49597211       0.03315358        0       0.00000000       0.01299393       0.04519648      -0.01934072
Ni      10.31810949       4.46664537       0.00540713        0       1.00000000       0.10163084       0.00889044       0.30305722
Ni       3.81343909       6.64611363       0.03789930        0       1.00000000      -0.00743319      -0.05311867       0.43105274
Pt       6.37612892       6.70856387       0.10977172        1       0.00000000      -0.09541570       0.05479570      -0.33617287
Ni       9.00249516       6.64474298       0.00908992        0       1.00000000      -0.04113727       0.01861646       0.09874745
Ni      11.58235391       6.62083269       0.00637572        0       1.00000000       0.07803001       0.05936099       0.27513854
Ni       1.29766392       0.73697806       2.11007136        2       1.00000000      -0.02348546       0.00679018       0.05564387
Ni       3.82903107       0.75831769       2.15465919        3       1.00000000       0.04814279      -0.02498953       0.21813776
Ni       6.41485509       0.77782005       2.17768422        3       1.00000000      -0.05617571       0.15680351       0.27627168
Pt       8.99831946       0.73485468       2.18081921        3       0.00000000       0.00550187       0.08984508      -0.00016233
Ni       2.55705736       2.96569055       2.16288138        3       1.00000000       0.03859995       0.05513804       0.07869949
Ni       5.11995150       2.98173813       2.17868796        3       1.00000000      -0.07745151       0.02218185       0.18762268
Ni       7.70663764       2.98258748       2.18463391        3       1.00000000       0.08707933       0.02111558       0.19226477
Ni      10.28760459       2.96487960       2.19161778        3       1.00000000       0.02557023      -0.03851804       0.22517787
Ni       3.88421022       5.17374664       2.14393767        2       1.00000000       0.09216636      -0.03002803       0.14906252
Ni       6.40119977       5.18286859       2.17136434        3       1.00000000      -0.02710548       0.03132044       0.13153056
Ni       8.96037476       5.14943090       2.18446484        3       1.00000000      -0.09204919      -0.22358546       0.23006827
Pt      11.59376048       5.11467637       2.15480916        3       0.00000000       0.11719822      -0.10901780       0.10592760
Ni       5.13957009       7.36105201       2.16456733        3       1.00000000       0.02199315      -0.14969896       0.18384822
Ni       7.66382415       7.39097135       2.15770457        3       1.00000000      -0.12104440      -0.06658983       0.15853422
Pt      10.23682028       7.32326499       2.13776803        2       0.00000000      -0.07869160      -0.18818397      -0.20599072
Ni      12.86721392       7.35881303       2.10333905        2       1.00000000       0.08851614      -0.15474689       0.02477040
Ni       0.00927595       1.52490008       4.25317221        5       1.00000000      -0.06052526       0.07212749      -0.18450581
Pt       2.50623854       1.54072979       4.18124799        4       0.00000000      -0.05096893      -0.01085254       0.03545181
Ni       5.14960180       1.50646569       4.24571933        4       1.00000000      -0.04841658       0.00660780      -0.34805070
Ni       7.70157182       1.50517864       4.26662596        5       1.00000000      -0.01865594      -0.05925522      -0.26951841
Ni       1.26424161       3.72865527       4.31488636        5       1.00000000      -0.06077430       0.03591607       0.01345695
Ni       3.83293575       3.75099508       4.23383468        4       1.00000000      -0.04611136       0.08789941      -0.30465444
Pt       6.44180423       3.70205577       4.22372726        4       0.00000000      -0.02860935       0.00019735       0.00865222
Ni       9.02294480       3.74109382       4.24599040        4       1.00000000       0.09920550       0.05753052      -0.33408659
Ni       2.58008654       5.84934095       4.31526992        5       1.00000000       0.03796997      -0.16752615      -0.01743061
Ni       5.13016258       5.89143262       4.23081674        4       1.00000000       0.05819509      -0.18493843      -0.35745283
Ni       7.72343313       5.87676726       4.25141187        5       1.00000000       0.00770346      -0.11148393      -0.32196933
Ni      10.26637436       5.84551559       4.33937011        5       1.00000000       0.02403384      -0.05642627      -0.04234711
Pt       3.91939797       8.05958824       4.25368012        5       0.00000000       0.09926829      -0.13880423       0.12406907
Ni       6.41434081       8.11222914       4.22301823        4       1.00000000      -0.06340992      -0.03924397      -0.39187606
Pt       8.91410120       8.07071520       4.24850111        4       0.00000000      -0.10886681      -0.00155962       0.02028926
Pt      11.58807212       8.09587821       4.22898445        4       0.00000000       0.01664292      -0.12653230      -0.05336317
Pt       0.01359433       0.02247506       6.46219474        8       0.00000000       0.07702729       0.17173544       0.24716492
Pt       2.56625553       0.00369650       6.49643477        8       0.00000000      -0.02807177      -0.03121814       0.38720187
Pt       5.14404262      -0.03673967       6.38534253        7       0.00000000      -0.00131689       0.13818460       1.01547897
Pt       7.69956589      -0.03271196       6.49876428        8       0.00000000      -0.00949354       0.19447462       0.31012394
Ni       1.27554419       2.29368132       6.41904549        7       1.00000000      -0.08030775       0.20089784      -0.26452037
Pt       3.81800318       2.27847274       6.36669562        7       0.00000000       0.09233348       0.06565282       0.49853138
Ni       6.43689184       2.23933004       6.35483318        7       1.00000000      -0.02766533      -0.03177010       0.07998526
Pt       8.99864524       2.33118127       6.31889149        6       0.00000000       0.00557088       0.02463105       0.47668266
Ni       2.51027850       4.47621999       6.40809107        7       1.00000000      -0.06269509      -0.01004345      -0.39389571
Pt       5.10475358       4.45986890       6.44979854        7       0.00000000      -0.06315035       0.01864975       0.01960442
Ni       7.74469153       4.45509379       6.35110247        7       1.00000000       0.06045325       0.10028997      -0.08010089
Ni      10.29951370       4.48201146       6.40910596        7       1.00000000       0.01388167       0.00721750      -0.41878031
Ni       3.80764203       6.61078700       6.43186185        7       1.00000000      -0.09133333      -0.08675673      -0.23973326
Pt       6.46139243       6.61065358       6.33272836        6       0.00000000       0.05322235       0.01175343       0.32036419
Ni       9.03049004       6.57232961       6.42784341        7       1.00000000       0.08490950      -0.16173712      -0.26547332
Ni      11.55392661       6.57628993       6.44028701        7       1.00000000      -0.02421532      -0.02157834      -0.33267052
