64
Lattice="9.834021573282675 -0.0027147395992784206 0.015781872401059004 4.9146597531837015 8.518892935201311 0.015475212405746992 0.0 0.0 21.225756565575573" Properties=species:S:1:pos:R:3:tags:I:1:initial_magmoms:R:1:forces:R:3 unique_id=1e9722943381489492d2c35cfdf63a2d stress="0.0038208339205661485 -1.5220552717073556e-05 0.0001065513733597774 -1.5220552717073556e-05 0.0038462251103637338 4.9245193823842495e-05 0.0001065513733597774 4.9245193823842495e-05 -0.0018984759178971135" energy=-355.5229464662605 pbc="T T T"
Ni      -0.00070593       0.00000638       0.00000000        0       1.00000000      -0.00017764      -0.00751796       0.02711437
Ni       2.46238684      -0.00349645       0.02022607        0       1.00000000       0.01100566      -0.00457824      -0.04936888
Ni       4.92353507      -0.00351279       0.02332504        0       1.00000000      -0.03126126       0.03237144      -0.09742220
Ni       7.38028941       0.00076495       0.02652253        0       1.00000000       0.03182488       0.01484784      -0.08558319
Ni       1.22792052       2.13498628       0.02086917        0       1.00000000       0.00784832       0.02130638      -0.04799194
Ni       3.69337452       2.13228304       0.15786169        1       1.00000000       0.03084772       0.03248586      -0.84559264
Ni       6.15265947       2.13567990       0.02025824        0       1.00000000      -0.01268558       0.01684846       0.04277325
Ni       8.60825083       2.13047399       0.02531762        0       1.00000000      -0.00374545       0.01077112       0.07441673
Ni       2.45830792       4.26751664       0.01467411        0       1.00000000       0.02037630      -0.02379072       0.04427666
Ni       4.92328671       4.26286628       0.02545338        0       1.00000000      -0.00214903      -0.01401944       0.05741497
Ni       7.37811043       4.26092538       0.02576418        0       1.00000000       0.01042216       0.00486680       0.06155343
Ni       9.83593013       4.25948576       0.02944866        0       1.00000000      -0.01381875       0.00618299       0.07545868
Ni       3.69248639       6.38972149       0.01257177        0       1.00000000       0.01538771      -0.00286347       0.01456647
Ni       6.14888135       6.38943874       0.02426093        0       1.00000000      -0.00257105      -0.00611609       0.05920944
Ni       8.60433579       6.38775159       0.02346551        0       1.00000000      -0.00175951      -0.02232632       0.04678704
Ni      11.06559747       6.38807027       0.03933012        0       1.00000000       0.00115803      -0.03080263      -0.08190967
Ni       1.20375413       0.69499269       1.98615526        2       1.00000000       0.00911447       0.00968157       0.03657621
Ni       3.71128216       0.68170389       2.01547459        2       1.00000000       0.01115867      -0.05237997       0.08727788
Ni       6.15649945       0.73335501       2.00239595        2       1.00000000       0.00706461       0.03137357       0.01419876
Ni       8.60634776       0.71010038       2.03953142        2       1.00000000      -0.00225143       0.00836596       0.00363234
Ni       2.44673420       2.88058034       2.01573925        2       1.00000000      -0.04023385       0.05451686       0.07435798
Ni       4.93682573       2.85819799       2.05328291        3       1.00000000       0.03472095       0.04340534       0.08256584
Ni       7.38193508       2.84666814       2.04343428        2       1.00000000       0.02428480       0.03000088       0.01813187
Ni       9.82832203       2.84325587       2.04956733        2       1.00000000      -0.02260291       0.01530628       0.03097588
Ni       3.69600813       4.97482781       2.03219708        2       1.00000000       0.02070133      -0.01412074       0.02227074
Ni       6.14999288       4.97229077       2.04523011        2       1.00000000       0.02017394       0.00870669       0.01733273
Ni       8.60223724       4.96537838       2.04788422        2       1.00000000      -0.01081063      -0.01752180       0.01931400
Ni      11.06159894       4.97151641       2.04943999        2       1.00000000      -0.02181563       0.00852304       0.02214064
Ni       4.91865281       7.09432430       2.03742012        2       1.00000000       0.01155705      -0.01306676      -0.01409929
Ni       7.37044684       7.08855222       2.04517319        2       1.00000000      -0.01427019      -0.03296389       0.01387307
Ni       9.81918821       7.07943252       2.01748459        2       1.00000000      -0.00809735      -0.04287473      -0.00103602
Ni      12.31783237       7.08573049       2.01774885        2       1.00000000       0.02022451      -0.00655276      -0.01524054
Ni      -0.04973011       1.42593404       4.07542810        5       1.00000000      -0.00636475       0.01435458      -0.05045784
Pt       2.43234187       1.41206765       4.04451815        4       0.00000000      -0.04446967      -0.02788097       0.07831507
Ni       4.95879926       1.46215106       4.06223053        5       1.00000000      -0.01153860       0.03682242      -0.03199391
Ni       7.40544671       1.46080452       4.08439782        5       1.00000000      -0.01976435       0.01301038      -0.06455213
Ni       1.20353524       3.59073626       4.08412079        5       1.00000000      -0.01387387      -0.00069481      -0.01946622
Ni       3.71547774       3.60350059       4.06440278        5       1.00000000       0.00920491      -0.02122058      -0.02223305
Ni       6.16390085       3.56822751       4.08944899        5       1.00000000      -0.00506790       0.01257365      -0.00656193
Ni       8.60177713       3.55567208       4.09395059        5       1.00000000      -0.01619009       0.00018075      -0.03116497
Ni       2.48864471       5.65231377       4.07933057        5       1.00000000      -0.00026607      -0.01389262      -0.06635554
Ni       4.92836898       5.68259707       4.08212468        5       1.00000000       0.00615412      -0.02314749      -0.05948468
Ni       7.37194033       5.66700841       4.09293003        5       1.00000000      -0.02224522      -0.02453975      -0.02818888
Ni       9.81231223       5.64120013       4.09739626        5       1.00000000      -0.01014519      -0.00436405      -0.04473259
Ni       3.73484708       7.80745183       4.08695504        5       1.00000000      -0.00462966      -0.00928785      -0.06850829
Ni       6.12219381       7.76018343       4.08952915        5       1.00000000       0.01096461      -0.01524982      -0.06432040
Ni       8.58074430       7.75784524       4.10010593        5       1.00000000      -0.01834535      -0.02683275      -0.03521242
Pt      11.07864688       7.80216263       4.09297592        5       0.00000000      -0.01765660      -0.00638941       0.06764105
Ni       0.00187983      -0.00191044       6.10526149        6       1.00000000      -0.01473030      -0.00659694      -0.04297533
Ni       2.43538133      -0.05838412       6.13786073        6       1.00000000       0.05510338       0.03477988       0.10531023
Ni       4.93011601      -0.03600086       6.14944766        6       1.00000000      -0.08064872       0.06332670       0.18369272
Ni       7.41486978       0.01061935       6.15128318        7       1.00000000       0.05065829      -0.00145186       0.04044549
Ni       1.16773891       2.14470543       6.13738638        6       1.00000000       0.05799317       0.03102044       0.09881353
Pt       3.71950013       2.15680468       6.22575657        7       0.00000000       0.07737664       0.04003115       0.53301612
Ni       6.21777654       2.13938821       6.11474663        6       1.00000000      -0.08652539       0.01613098       0.02816400
Ni       8.61090056       2.13822117       6.12564251        6       1.00000000       0.01093422       0.00021444      -0.04618033
Ni       2.43886310       4.30878118       6.11085613        6       1.00000000       0.02196009      -0.07718469       0.02725723
Ni       4.95641495       4.32013194       6.11345909        6       1.00000000      -0.02823687      -0.08010507      -0.00554872
Ni       7.38869928       4.26672953       6.12163739        6       1.00000000       0.02002296       0.01454015      -0.05438418
Ni       9.82430831       4.26255996       6.12963496        6       1.00000000      -0.02181493       0.01185952      -0.01718653
Ni       3.69743937       6.39887706       6.11331214        6       1.00000000       0.00018908       0.03536176      -0.06772656
Ni       6.14989589       6.38714892       6.12176643        6       1.00000000       0.00409983       0.00492567      -0.07682593
Ni       8.60426503       6.37147186       6.12752930        6       1.00000000       0.00110170      -0.03314790      -0.00826287
Ni      11.06665024       6.36259231       6.16540663        7       1.00000000      -0.00287031      -0.01521147       0.04169320
