64
Lattice="9.965042142293788 0.0062379229809521874 -0.003811540180190756 4.9879232709152515 8.653521641027702 0.015990887264956635 -0.003112109525194403 0.016873130368439106 8.532945064850889" Properties=species:S:1:pos:R:3:tags:I:1:initial_magmoms:R:1:forces:R:3 unique_id=63944da2ce314392a7e775f9e0d0abfa stress="-0.004261159122963834 1.1890610541874413e-05 1.385708887440141e-06 1.1890610541874413e-05 -0.004267889076260835 -7.3350969937339726e-06 1.385708887440141e-06 -7.3350969937339726e-06 -0.0037449660135702723" energy=-384.13333326940096 pbc="T T T"
Ni       0.05571723       0.00122702       0.11155870        4       1.00000000       0.06036352       0.01107695       0.03043323
Ni       2.48891411      -0.01200194       0.23102346        4       1.00000000       0.00953431      -0.03759307       0.19659014
Ni       4.93075390      -0.00256894       0.11182279        4       1.00000000      -0.04614965       0.00503795       0.06890062
Pt       7.47746909       0.04822837      -0.01224317        4       0.00000000      -0.01251442       0.08030648      -0.25537213
Ni       1.22959905       2.11950335       0.12064563        4       1.00000000       0.03322620      -0.03709992       0.06350503
Ni       3.72318662       2.09328875       0.18276286        4       1.00000000      -0.09174440      -0.11574033       0.14106265
Ni       6.20400809       2.20521510       0.05588931        4       1.00000000      -0.05293725       0.08092854      -0.02304066
Ni       8.77305328       2.20254449       0.07128147        4       1.00000000       0.04420191       0.03747698      -0.00954596
Pt       2.51688620       4.30626789       0.02107451        4       0.00000000       0.03153715      -0.02122715      -0.15269572
Ni       5.04607388       4.36382271       0.08444085        4       1.00000000       0.05897958       0.07464175       0.02508990
Ni       7.47830776       4.37124292       0.07120087        4       1.00000000       0.00322085       0.07742955       0.00031840
Ni       9.90809877       4.32945893       0.07574582        4       1.00000000      -0.05112696       0.03898939      -0.00100878
Ni       3.81270672       6.49228717       0.08653706        4       1.00000000       0.07927134       0.02319984      -0.02338013
Ni       6.25370648       6.49997207       0.11782580        4       1.00000000       0.08615815       0.04314863       0.00405005
Ni       8.70646922       6.50055226       0.11263845        4       1.00000000      -0.02704968       0.03784572       0.00785880
Ni      11.15083991       6.50556485       0.07248428        4       1.00000000      -0.07755409       0.02356567      -0.01483641
Ni       1.25976119       0.72562418       2.12500905        3       1.00000000       0.00363971      -0.02200387       0.13821356
Ni       3.71462742       0.67972577       2.18396799        3       1.00000000       0.00248608      -0.03159441       0.20652885
Ni       6.18293625       0.71354763       2.17801340        3       1.00000000      -0.02708487       0.03106501      -0.02736507
Ni       8.77281642       0.72740372       2.13628768        3       1.00000000       0.02660268      -0.00266931      -0.05910718
Ni       2.45574615       2.83205095       2.18887832        3       1.00000000      -0.03566840      -0.00329494       0.06153770
Pt       4.93611382       2.89533901       2.18677839        3       0.00000000       0.01294576       0.02164679       0.04382096
Pt       7.52639635       2.90782116       2.16650238        3       0.00000000      -0.01050858       0.01645361      -0.03058277
Ni       9.99163919       2.86415070       2.11739417        3       1.00000000       0.01317284      -0.01204697       0.00737935
Ni       3.77765926       5.07446535       2.18884368        3       1.00000000      -0.03986801       0.03685405      -0.02264035
Ni       6.23632357       5.11399481       2.16707249        3       1.00000000      -0.00559689       0.00103452       0.07326609
Ni       8.68180255       5.11177767       2.16387949        3       1.00000000      -0.00540542       0.03326948       0.05206860
Pt      11.15291687       5.02480710       2.21132692        3       0.00000000       0.02374565       0.01571853      -0.06710252
Ni       5.02777859       7.20561871       2.11467245        3       1.00000000       0.04060729       0.00260395       0.00841888
Ni       7.49844128       7.19652984       2.14108282        3       1.00000000       0.01263216      -0.04333841       0.11456518
Ni       9.91006858       7.24800482       2.16861647        3       1.00000000      -0.00218070      -0.01691934       0.05094854
Pt      12.48365867       7.24777273       2.20838964        3       0.00000000      -0.01112167       0.03079067      -0.14354634
Pt      -0.03243111       1.49616233       4.25317967        2       0.00000000      -0.00685201      -0.02908872       0.02760120
Ni       2.52737293       1.47530750       4.20690160        2       1.00000000       0.02802256      -0.02524514       0.10818857
Ni       5.00181244       1.41748982       4.25203195        2       1.00000000      -0.02100001      -0.02859011       0.05335891
Ni       7.42236796       1.44875433       4.25849832        2       1.00000000      -0.02392194      -0.00491232      -0.14103529
Ni       1.25613294       3.63387974       4.29264309        2       1.00000000      -0.02822941      -0.01361016      -0.04124415
Ni       3.72425962       3.65682747       4.24112617        2       1.00000000      -0.05292989       0.00593201      -0.01651232
Ni       6.23009677       3.63393032       4.30412045        2       1.00000000      -0.00662415      -0.00019208      -0.00824486
Ni       8.71290385       3.67707134       4.29074480        2       1.00000000       0.03388733       0.03228636      -0.02604335
Ni       2.49758147       5.78924409       4.29795607        2       1.00000000      -0.02465834       0.08478555      -0.12683091
Ni       4.96017190       5.72792006       4.25575255        2       1.00000000      -0.01631681      -0.00631665      -0.08117245
Ni       7.50100312       5.73610459       4.26068503        2       1.00000000      -0.00125495      -0.02520166      -0.01199931
Ni       9.95136708       5.79433017       4.29486242        2       1.00000000       0.01256065       0.00245548      -0.04140218
Ni       3.71259897       7.91492840       4.29790275        2       1.00000000       0.05465361      -0.03085045      -0.11440553
Pt       6.23959267       7.86556821       4.20382183        2       0.00000000       0.00908818       0.00133165       0.09002502
Ni       8.77624823       7.92391243       4.23993838        2       1.00000000      -0.02175574      -0.03530625       0.07732600
Ni      11.18659090       7.93956595       4.27616927        2       1.00000000      -0.04897256      -0.04375961      -0.12913236
Ni      -0.06812749      -0.00959317       6.33910455        1       1.00000000      -0.06999128      -0.04507046       0.03474365
Pt       2.48771167      -0.04105704       6.39430887        1       0.00000000       0.01377343      -0.03407290       0.22518410
Ni       5.04737569      -0.02087621       6.29235624        1       1.00000000       0.03597062      -0.02926405       0.01105848
Ni       7.46325542       0.00819532       6.16502042        1       1.00000000      -0.01687627      -0.02552500      -0.21530910
Ni       1.20747978       2.22170536       6.33474437        1       1.00000000       0.00824508       0.02012186       0.04273079
Pt       3.78403793       2.24131957       6.32636537        1       0.00000000       0.02691355       0.01041089       0.16118731
Ni       6.28579744       2.18251864       6.28407481        1       1.00000000       0.05336582      -0.02027707      -0.05648792
Ni       8.68534787       2.20445368       6.32179182        1       1.00000000      -0.04210612       0.01344440      -0.01631695
Ni       2.47111828       4.39486757       6.18703389        1       1.00000000       0.00161860       0.05081882      -0.12849209
Ni       5.01501414       4.38561170       6.29335301        1       1.00000000       0.01012327       0.01133834      -0.03131691
Ni       7.47742942       4.33616936       6.30014441        1       1.00000000       0.01694595      -0.02060677      -0.00973525
Ni       9.95743950       4.34950906       6.29646115        1       1.00000000       0.01564607      -0.01479391      -0.00928614
Ni       3.73005270       6.49436493       6.29631998        1       1.00000000      -0.01479127      -0.02406832      -0.04057089
Ni       6.20564905       6.43204426       6.33422966        1       1.00000000      -0.00433449      -0.08171782      -0.00690612
Ni       8.75414485       6.44508338       6.30722416        1       1.00000000       0.01808130      -0.07007980      -0.01230862
Ni      11.21229990       6.50471897       6.28667836        1       1.00000000       0.01590499      -0.00393246      -0.03098384
