64
Lattice="10.174688915227964 -0.0012786522310761616 -0.002234128834977863 5.086237112299318 8.701436167468087 -0.08092339774444227 -0.0018241585551115182 -0.07524213263616399 8.654886706102186" Properties=species:S:1:pos:R:3:tags:I:1:initial_magmoms:R:1:forces:R:3 unique_id=8e28fdf3d03b40cca0e0766d945f7688 stress="-0.007444143630863299 1.1567379281996758e-05 -7.427978767319983e-06 1.1567379281996758e-05 -0.007374706733311122 3.625055832316174e-06 -7.427978767319983e-06 3.625055832316174e-06 -0.006353604185380508" energy=-389.75505801726274 pbc="T T T"
Ni       0.04462955      -0.06244175       0.20435699        4       1.00000000       0.06796853      -0.07061789       0.14626962
Ni       2.48126954      -0.04474167       0.22847183        4       1.00000000      -0.02320596      -0.04623622       0.20212046
Pt       5.07670324      -0.06905630       0.15945777        4       0.00000000      -0.02452960       0.02708002      -0.19661177
Ni       7.65552818      -0.07232083       0.19707332        4       1.00000000      -0.00520727      -0.04753620       0.17071053
Ni       1.26997316       2.18471683       0.11294150        4       1.00000000      -0.00336496       0.01466086       0.13925404
Pt       3.72475523       2.23360725       0.16795437        4       0.00000000      -0.00022759      -0.00106467      -0.11752671
Pt       6.37163928       2.24597583       0.08538482        4       0.00000000      -0.02138201       0.02212096      -0.08673901
Pt       8.98165087       2.22504198       0.11006153        4       0.00000000       0.04674124       0.05812861      -0.19033413
Ni       2.51450520       4.39751883       0.07118893        4       1.00000000       0.01575825       0.02117195       0.05495651
Ni       5.07719509       4.43454574       0.07623067        4       1.00000000      -0.04138929       0.06668012       0.07790502
Ni       7.62807296       4.42260516       0.08232521        4       1.00000000      -0.00185972       0.04115425       0.09288713
Ni      10.21566540       4.39390683       0.07731013        4       1.00000000       0.05872568       0.07912728       0.10666475
Ni       3.82199093       6.50073454       0.05550994        4       1.00000000       0.03871712      -0.01740315       0.02903976
Ni       6.34554377       6.50779419       0.05795067        4       1.00000000      -0.02376965      -0.04028179      -0.03912216
Ni       8.85380678       6.45849525       0.12569997        4       1.00000000      -0.08779296      -0.05736851       0.09569471
Ni      11.49464153       6.45770767       0.02128672        4       1.00000000       0.09789387      -0.04475996      -0.08936209
Ni       1.30312043       0.71799076       2.19834497        3       1.00000000       0.00917951       0.02696625       0.14320034
Ni       3.77142782       0.74329776       2.21069581        3       1.00000000      -0.02364561       0.02208891       0.03509823
Ni       6.35454938       0.73371369       2.23557012        3       1.00000000      -0.01708823       0.01172418       0.02830641
Pt       8.92495836       0.71069894       2.20377956        3       0.00000000       0.02439938      -0.00762058       0.14350999
Ni       2.50265215       2.91272618       2.22977635        3       1.00000000      -0.00098799       0.01175569       0.05807569
Ni       5.05925687       2.91768550       2.19725851        3       1.00000000      -0.06451268       0.05816790      -0.03277370
Ni       7.64082800       2.93519412       2.19331111        3       1.00000000       0.02575489       0.00210271      -0.01860134
Ni      10.23059114       2.92979376       2.21140247        3       1.00000000       0.04870482       0.02063287       0.05340306
Ni       3.81190626       5.05088408       2.13425106        3       1.00000000       0.01646151      -0.02506637       0.02802999
Ni       6.35236823       5.07554265       2.10880807        3       1.00000000      -0.02432237      -0.03418201       0.00398983
Ni       8.87819952       5.00674861       2.14262001        3       1.00000000      -0.00285499      -0.05149892       0.07263101
Ni      11.48672871       4.99515432       2.14445876        3       1.00000000       0.07841687      -0.08121480       0.09093029
Ni       5.12239144       7.16830454       2.08408132        3       1.00000000      -0.02689440      -0.08525952       0.04490168
Ni       7.56408716       7.19911136       2.08351049        3       1.00000000      -0.04042565      -0.10219062       0.05653497
Pt      10.22151566       7.11897558       2.13556811        3       0.00000000       0.04165770      -0.14732447       0.07601655
Ni      12.73776082       7.15444139       2.07994635        3       1.00000000       0.08163867      -0.12874983       0.02991038
Ni       0.06544187       1.45497778       4.25412722        2       1.00000000       0.07558902      -0.01616790      -0.02810569
Ni       2.49782374       1.46792312       4.21811128        2       1.00000000       0.00585824       0.03795672      -0.02280176
Ni       5.08738175       1.43520601       4.20320990        2       1.00000000      -0.08967397       0.03290360      -0.15106113
Ni       7.60099932       1.41445531       4.25126288        2       1.00000000      -0.03911258      -0.05733830      -0.05048190
Ni       1.27692740       3.59743171       4.26369697        2       1.00000000       0.01936108      -0.00800936      -0.02192885
Ni       3.77233762       3.64582742       4.19391288        2       1.00000000      -0.02046420       0.08160912      -0.13550267
Pt       6.35087990       3.61328474       4.23876238        2       0.00000000      -0.00198210      -0.01049472      -0.07510736
Ni       8.94260500       3.63947396       4.19421967        2       1.00000000       0.01348773       0.06173701      -0.12094963
Ni       2.51917800       5.70031943       4.23717892        2       1.00000000      -0.03978987      -0.04867402      -0.14537118
Ni       5.08507289       5.74087502       4.23516140        2       1.00000000       0.00132280      -0.04645653      -0.13633497
Ni       7.60686985       5.75028303       4.19978342        2       1.00000000      -0.00406486       0.01168204      -0.11394973
Ni      10.21644401       5.69270530       4.24449909        2       1.00000000       0.01353659      -0.02922224      -0.03592903
Pt       3.81817274       7.84651619       4.18140269        2       0.00000000      -0.01738070      -0.00991896       0.04621403
Ni       6.34112251       7.91175562       4.15556671        2       1.00000000      -0.06054443      -0.01641310      -0.06653130
Pt       8.83398826       7.93695817       4.13800503        2       0.00000000      -0.08709300      -0.03819857      -0.03155790
Ni      11.46548787       7.90262877       4.17760891        2       1.00000000       0.03079338      -0.07859103      -0.09801384
Pt       0.01232135      -0.09438957       6.45942012        1       0.00000000      -0.07724784       0.03792395       0.14587295
Pt       2.51553294      -0.03941335       6.46088778        1       0.00000000       0.09236464       0.08221592       0.20781487
Pt       5.11485121      -0.03854265       6.30466202        1       0.00000000      -0.05971913       0.07940543       0.02621884
Pt       7.62419222      -0.09948525       6.44945091        1       0.00000000       0.04595771       0.03260211       0.20115936
Ni       1.27253198       2.19868498       6.34886878        1       1.00000000       0.02584541       0.05697080      -0.05908219
Pt       3.80406373       2.26810852       6.26703926        1       0.00000000       0.00820778       0.08140825      -0.02547268
Ni       6.35868444       2.17727552       6.29029821        1       1.00000000      -0.02079929       0.01458055      -0.10377777
Pt       8.91238882       2.23473551       6.24355699        1       0.00000000      -0.00194883       0.04913290      -0.04268015
Ni       2.51414739       4.36016441       6.33368461        1       1.00000000      -0.00471122       0.08188947      -0.07186319
Ni       5.09187922       4.36837092       6.35956530        1       1.00000000      -0.02073813       0.09738582      -0.01182274
Ni       7.56403110       4.30576630       6.36761836        1       1.00000000      -0.12785512       0.02221441       0.00528190
Ni      10.25865218       4.29967645       6.33549104        1       1.00000000       0.13073494       0.01656287      -0.05426915
Ni       3.81067643       6.37968487       6.34767429        1       1.00000000      -0.01944221      -0.04948688      -0.02992763
Ni       6.32649404       6.40715716       6.32764316        1       1.00000000       0.00722018       0.02672952      -0.14992923
Pt       8.90335438       6.33919750       6.37597177        1       0.00000000       0.00453496      -0.02914959       0.09944117
Ni      11.47894648       6.40174818       6.31287734        1       1.00000000      -0.00080411       0.03802365      -0.15852146
