64
Lattice="10.520666592294326 0.005770245045066177 0.012446800464242043 5.265330474942309 9.148163962367665 -0.010473448692693493 0.01016277002254331 -0.015741940132245016 9.104624140982628" Properties=species:S:1:pos:R:3:tags:I:1:initial_magmoms:R:1:forces:R:3 unique_id=275bd676335345cc9b10918bcd397beb stress="-0.007517861376218356 -5.573593650963129e-06 1.1961800414479225e-05 -5.573593650963129e-06 -0.007575848843591297 1.1484930369104508e-05 1.1961800414479225e-05 1.1484930369104508e-05 -0.006064099580180497" energy=-415.1707378594038 pbc="T T T"
Pt       0.01914626       0.03363799       0.00329005        4       0.00000000      -0.00908854      -0.01347232      -0.18604995
Ni       2.64376818       0.01335746       0.14225291        4       1.00000000       0.01574852       0.00165889       0.30101152
Pt       5.19637110       0.02296773       0.05356543        4       0.00000000      -0.06458225       0.08268258      -0.03616348
Pt       7.87588461       0.01805684       0.10735195        4       0.00000000      -0.02911663      -0.00198394       0.00421092
Pt       1.32211709       2.27239614       0.01320300        4       0.00000000       0.05189482      -0.03420649      -0.20060959
Ni       3.93764783       2.26961583       0.14866505        4       1.00000000      -0.01483879       0.00077618       0.32648791
Pt       6.62769390       2.31843539       0.11013215        4       0.00000000       0.11598702       0.03946021       0.06258269
Ni       9.21467997       2.31595422       0.06872044        4       1.00000000       0.02540630       0.02000761       0.09700090
Pt       2.60324851       4.57371496       0.11727116        4       0.00000000      -0.07033050       0.03298640      -0.03597724
Pt       5.29044725       4.54792467       0.12381720        4       0.00000000      -0.01488262      -0.03672464       0.00346744
Ni       7.91206341       4.56578403       0.13914537        4       1.00000000       0.01763034       0.01005995       0.23074928
Pt      10.46692000       4.54925387       0.10698514        4       0.00000000      -0.07256749      -0.11162347      -0.00573084
Pt       3.92467698       6.85906549       0.08661334        4       0.00000000      -0.00594734      -0.01128965      -0.09649241
Pt       6.62382050       6.84361021       0.12183048        4       0.00000000       0.04381090      -0.03129826      -0.00452209
Pt       9.23323732       6.83933881       0.02504528        4       0.00000000       0.05995062      -0.02122841      -0.14827967
Ni      11.81882807       6.85885111       0.12211270        4       1.00000000      -0.06909749      -0.02155819       0.15917241
Pt       1.34233772       0.78863585       2.30148987        3       0.00000000      -0.00585128       0.02323543       0.01591953
Ni       3.94441921       0.75846762       2.27784494        3       1.00000000       0.03089188      -0.01938841       0.08859497
Pt       6.55724116       0.75824520       2.37155086        3       0.00000000       0.01573759      -0.02181641       0.07314536
Pt       9.23169857       0.86376434       2.34757093        3       0.00000000       0.06472540       0.17568159       0.00348302
Pt       2.60110806       3.05315381       2.31566850        3       0.00000000      -0.04625225       0.02514216       0.04582987
Pt       5.27201604       3.05286860       2.35511750        3       0.00000000       0.03668056       0.01820407       0.12318544
Pt       7.95841320       3.15494828       2.36270678        3       0.00000000       0.02412244       0.09657250       0.11465384
Ni      10.51753278       3.09527532       2.31690059        3       1.00000000       0.00687566       0.10424101       0.05045605
Pt       3.93569889       5.30300071       2.34119347        3       0.00000000      -0.05111237       0.01201510       0.04132827
Ni       6.62369976       5.31408118       2.29080313        3       1.00000000       0.08052601       0.00589785       0.01940405
Ni       9.23225545       5.31136453       2.30648975        3       1.00000000       0.14083802      -0.02185111       0.05400624
Ni      11.78223939       5.31153464       2.30091760        3       1.00000000      -0.16767775      -0.11702386       0.05235232
Pt       5.27484446       7.61257107       2.31152009        3       0.00000000      -0.02350834       0.04962473      -0.00624451
Pt       7.94061904       7.59436237       2.30588481        3       0.00000000       0.03458991      -0.01159197       0.05871516
Pt      10.52441955       7.54447702       2.34021334        3       0.00000000       0.02306761      -0.08074576       0.07015030
Pt      13.10801795       7.59554552       2.31049886        3       0.00000000       0.01288565      -0.00322761       0.00831334
Ni      -0.03984198       1.56199066       4.57311417        2       1.00000000      -0.12924740       0.08711055       0.00965804
Pt       2.62430750       1.56342663       4.53505174        2       0.00000000       0.01180764       0.04643436       0.04633986
Pt       5.30677218       1.52850984       4.54118356        2       0.00000000      -0.01271181      -0.00383509       0.06874912
Ni       7.93609255       1.57237444       4.54233981        2       1.00000000       0.09693653       0.19458473      -0.05145765
Pt       1.17845895       3.79920517       4.51578157        2       0.00000000      -0.18122838      -0.01654802      -0.09386373
Ni       3.95437317       3.78957260       4.53627537        2       1.00000000      -0.06974028      -0.02427538       0.01815074
Ni       6.62149331       3.78813250       4.51832700        2       1.00000000       0.13919344      -0.05964246      -0.03433108
Ni       9.21217250       3.77003389       4.53212157        2       1.00000000      -0.07181905      -0.16613139      -0.01243516
Pt       2.54780342       6.08569241       4.49373824        2       0.00000000      -0.12610080      -0.02615284      -0.03288341
Pt       5.29872338       6.01633515       4.47977889        2       0.00000000       0.06691646      -0.04995943      -0.07470603
Pt       7.98312847       5.98935455       4.47582591        2       0.00000000       0.08135447      -0.16471458      -0.10848121
Ni      10.52007930       6.07069396       4.52978957        2       1.00000000      -0.06705614      -0.08898670      -0.08393144
Pt       3.92662725       8.46290273       4.51679998        2       0.00000000      -0.01961956       0.03111015      -0.10999407
Pt       6.57312978       8.42048035       4.54469786        2       0.00000000       0.04258539       0.02150182       0.00663305
Pt       9.28704810       8.34350627       4.57533931        2       0.00000000      -0.01476737      -0.01567219       0.04515519
Ni      11.83868513       8.38345844       4.55069839        2       1.00000000       0.01466670       0.02200632      -0.00760636
Ni       0.00832337       0.04468690       6.67964595        1       1.00000000      -0.01030246       0.16292415      -0.27306181
Pt       2.63820838       0.00194639       6.81251394        1       0.00000000      -0.03079866       0.02153978       0.20637309
Ni       5.26612082      -0.01725392       6.70342123        1       1.00000000       0.03497867       0.05775259      -0.13508232
Pt       7.89819118       0.04073596       6.68415365        1       0.00000000      -0.01603398       0.02824840      -0.01158096
Ni       1.26013090       2.26684274       6.67959264        1       1.00000000      -0.21921039      -0.03253341      -0.28618931
Pt       3.93895046       2.24944299       6.79252853        1       0.00000000       0.01848988       0.01791549       0.22316464
Pt       6.64440061       2.27739967       6.67945261        1       0.00000000       0.15006906       0.09975571       0.02318214
Ni       9.26128731       2.27537584       6.73082812        1       1.00000000       0.19301449      -0.03557132      -0.24050590
Pt       2.56792796       4.52551717       6.68483127        1       0.00000000      -0.10692566      -0.05406224      -0.04692555
Pt       5.28489430       4.54072723       6.67554259        1       0.00000000       0.02635137      -0.00775782      -0.02084146
Pt       8.02117180       4.54034854       6.75510107        1       0.00000000       0.18635789      -0.01591555       0.11973144
Ni      10.51704056       4.54842998       6.69971180        1       1.00000000       0.00654048      -0.05108074      -0.14919269
Pt       3.94892072       6.88504255       6.68726258        1       0.00000000      -0.02954399       0.00347583      -0.08213306
Pt       6.62821537       6.86295488       6.70819180        1       0.00000000       0.06535956      -0.07650500      -0.02655149
Ni       9.22928686       6.84229333       6.69113197        1       1.00000000      -0.05082301      -0.05768284      -0.23360232
Pt      11.72992217       6.86484965       6.74530069        1       0.00000000      -0.13520870       0.01345132       0.06406865
