64
Lattice="10.311676567273702 -0.011364587594864927 -0.01312473571912206 5.145996262076165 8.823316628370124 -0.05144094873000823 -0.010716301840243147 -0.042311931818029426 8.774943852281087" Properties=species:S:1:pos:R:3:tags:I:1:initial_magmoms:R:1:forces:R:3 unique_id=883f0f783cab4a55b34a997a05ef18cb stress="0.0002069677460517505 3.273273512833964e-06 -8.174303741645154e-06 3.273273512833964e-06 0.00021936331476577614 1.47153324980846e-05 -8.174303741645154e-06 1.47153324980846e-05 0.00021156632848286228" energy=-396.3546172590703 pbc="T T T"
Ni       0.00759716      -0.00823829       0.18864096        4       1.00000000      -0.02170222      -0.00442950       0.34223300
Ni       2.57369970      -0.00133282       0.21230613        4       1.00000000       0.00970426      -0.01284235       0.39984554
Ni       5.14462641      -0.02666458       0.15753538        4       1.00000000      -0.07222706       0.08121529       0.23619714
Ni       7.72529870      -0.07595537       0.17989779        4       1.00000000      -0.03561132      -0.13051383       0.39376498
Ni       1.29373159       2.20938838       0.09288544        4       1.00000000       0.00409612       0.02246958       0.22370019
Pt       3.79174401       2.21072293       0.09151705        4       0.00000000      -0.01163090       0.02448927      -0.15532026
Pt       6.42132334       2.15481906       0.09174495        4       0.00000000       0.02151761      -0.03479731      -0.07109857
Pt       9.10412390       2.19355489       0.09838673        4       0.00000000       0.10686503      -0.07560236       0.15530050
Ni       2.56786431       4.43623701       0.04320982        4       1.00000000       0.06496225       0.06856605      -0.00609564
Ni       5.10827941       4.43025176       0.15687962        4       1.00000000      -0.05905343       0.02597812       0.35171031
Pt       7.76467271       4.45432874       0.07130303        4       0.00000000       0.02398382       0.04946346      -0.06212543
Ni      10.35168968       4.43052601       0.03673582        4       1.00000000       0.11502881       0.08020273       0.12721965
Ni       3.81925996       6.61051435       0.07546248        4       1.00000000      -0.10174267      -0.06233415       0.20337491
Pt       6.39530267       6.66266125       0.14702229        4       0.00000000      -0.10194094      -0.00813966       0.11434690
Ni       9.03714991       6.62801385       0.02745122        4       1.00000000      -0.03190886       0.03051587       0.00483430
Ni      11.61563421       6.60099303       0.01693029        4       1.00000000       0.10907654      -0.05132055      -0.01033610
Ni       1.30297906       0.74617685       2.15998427        3       1.00000000      -0.00424308       0.13042690      -0.02942865
Ni       3.85242579       0.75207139       2.19083917        3       1.00000000       0.05308369       0.09310230       0.08590431
Ni       6.43029621       0.75013570       2.21118050        3       1.00000000      -0.05795247       0.14734771       0.12945303
Pt       9.02412810       0.71068129       2.23014925        3       0.00000000      -0.00640889       0.16992854       0.01391935
Ni       2.57937464       2.92570529       2.19417043        3       1.00000000       0.05021077       0.06757518      -0.00156032
Ni       5.12587822       2.94048041       2.21267520        3       1.00000000      -0.14771880       0.00142385       0.01733507
Ni       7.72614185       2.94457484       2.22227985        3       1.00000000       0.07838608       0.01707977      -0.09267657
Ni      10.33053513       2.92327276       2.22386278        3       1.00000000       0.06042616      -0.01910801       0.12951736
Ni       3.88956213       5.13004822       2.18148198        3       1.00000000       0.04810250      -0.05682330       0.10061260
Ni       6.41596819       5.13051536       2.20624822        3       1.00000000      -0.03433279       0.07316663      -0.00036007
Ni       8.99211599       5.10821227       2.19414346        3       1.00000000      -0.01715661      -0.09710544       0.09016906
Pt      11.64668202       5.07071800       2.13473458        3       0.00000000       0.11151628      -0.07490064       0.05071115
Ni       5.11490913       7.29863205       2.16054915        3       1.00000000      -0.17294579      -0.19825351      -0.02147118
Ni       7.72114566       7.33210270       2.14928830        3       1.00000000       0.02974129      -0.13371091      -0.07251198
Pt      10.28302317       7.34151633       2.05844861        3       0.00000000       0.01903774      -0.13811330      -0.04416655
Ni      12.90330411       7.29813022       2.10524136        3       1.00000000       0.04560396      -0.17822299      -0.00496458
Ni      -0.00000935       1.51221096       4.32535446        2       1.00000000       0.04872741       0.09183185      -0.08037968
Pt       2.56485221       1.56471235       4.29760460        2       0.00000000       0.00573323      -0.01062089      -0.04930440
Ni       5.15184310       1.48780011       4.32754648        2       1.00000000      -0.05096792       0.05394017      -0.15507907
Ni       7.72365416       1.47358336       4.31560445        2       1.00000000      -0.00049752      -0.01767423      -0.08604633
Ni       1.28204183       3.65509200       4.36600223        2       1.00000000      -0.00312672       0.01211839      -0.05216169
Ni       3.84279847       3.69569466       4.30813282        2       1.00000000      -0.02439248       0.10705514      -0.23787933
Pt       6.44587524       3.64630576       4.26704740        2       0.00000000      -0.08260659       0.01853405       0.01395477
Ni       9.01524100       3.63641221       4.27320042        2       1.00000000      -0.00752131      -0.11120499      -0.34159136
Ni       2.59315985       5.79432006       4.35515763        2       1.00000000       0.00336372      -0.17037927      -0.04853695
Ni       5.11059478       5.80993982       4.27740475        2       1.00000000      -0.00850472      -0.13790920      -0.15138176
Ni       7.73259454       5.80589942       4.28475421        2       1.00000000       0.02006642      -0.04607994      -0.23409317
Pt      10.29911591       5.75009601       4.37659490        2       0.00000000       0.00574843       0.00709555      -0.04779559
Pt       3.85218323       8.00063006       4.28606809        2       0.00000000      -0.03051736      -0.15853860       0.21865764
Pt       6.41655720       8.04370174       4.18061916        2       0.00000000      -0.05897526      -0.02933706       0.00746620
Pt       8.99216509       8.05849780       4.26170635        2       0.00000000      -0.02167343       0.06333808       0.09923727
Pt      11.60246836       8.07560130       4.23911787        2       0.00000000       0.07163190       0.03387287       0.05410006
Pt       0.00132972      -0.00616455       6.56416761        1       0.00000000       0.03679074       0.07230131       0.12809717
Pt       2.58153329       0.02177702       6.59169067        1       0.00000000       0.01284346       0.12274791       0.26300476
Pt       5.15230355      -0.02236302       6.55865735        1       0.00000000       0.02010886       0.02414604       0.05704426
Pt       7.71684990      -0.06763337       6.57222604        1       0.00000000      -0.01714406      -0.02613351       0.18915820
Ni       1.29602463       2.25869500       6.48238329        1       1.00000000       0.02527315       0.25127208      -0.13275967
Ni       3.83905864       2.20924152       6.41577510        1       1.00000000      -0.08913217       0.05207209      -0.28359700
Ni       6.43355865       2.18828132       6.40056524        1       1.00000000       0.03225461       0.04424402      -0.27347590
Pt       9.02336999       2.27334676       6.36436539        1       0.00000000       0.01859442       0.13046570      -0.36283344
Ni       2.52426350       4.38579112       6.45805836        1       1.00000000      -0.14043287       0.01042267      -0.23324580
Pt       5.06419904       4.33112378       6.48728004        1       0.00000000      -0.09042438      -0.01297182       0.15281913
Ni       7.75317144       4.38598504       6.38811561        1       1.00000000       0.05733479       0.06971472      -0.31024992
Ni      10.33389069       4.38934355       6.47682253        1       1.00000000       0.12116551       0.04428626      -0.04615743
Ni       3.80655410       6.53717690       6.46703523        1       1.00000000      -0.08813212      -0.13403275      -0.09404479
Pt       6.46254990       6.51832861       6.40094808        1       0.00000000       0.02172241      -0.00724872      -0.30131717
Ni       9.03852404       6.52514467       6.47283475        1       1.00000000       0.06538539      -0.07020322      -0.13772463
Ni      11.59815790       6.51326326       6.47728501        1       1.00000000       0.07253738      -0.08385817      -0.12191785
