64
Lattice="10.604875681028666 0.016636005132707504 -0.002220737201657419 5.316845043576748 9.218702730646415 -0.01660862933437407 -0.0018132243322922935 -0.014611900348382813 9.176987333356672" Properties=species:S:1:pos:R:3:tags:I:1:initial_magmoms:R:1:forces:R:3 unique_id=83437c3be0d540298aed087eb13f32a2 stress="-3.6123949113314735e-05 -3.322816388972856e-07 3.110709203643978e-06 -3.322816388972856e-07 -3.691170914744968e-05 -7.79665039959482e-06 3.110709203643978e-06 -7.79665039959482e-06 -1.5719545180051253e-06" energy=-418.75359251776695 pbc="T T T"
Pt       0.03731562       0.00400014       0.01105291        4       0.00000000       0.00451917      -0.00374997      -0.13997050
Ni       2.66608208       0.01679799       0.11473470        4       1.00000000       0.05063755       0.03748261       0.39746090
Pt       5.23911730       0.02585716       0.03921855        4       0.00000000      -0.15689479       0.12120699      -0.02364934
Pt       7.92268645      -0.00721101       0.08317494        4       0.00000000      -0.09015048       0.00115436       0.03964989
Pt       1.38023951       2.27787719       0.01855455        4       0.00000000       0.11918386      -0.05288748      -0.19927419
Ni       3.97215773       2.28678566       0.11727917        4       1.00000000      -0.04772716      -0.05278119       0.40349925
Pt       6.59760352       2.29822661       0.00922590        4       0.00000000      -0.00561483      -0.01762599      -0.09553382
Pt       9.29970989       2.32366559       0.02289799        4       0.00000000       0.02706013       0.00460584      -0.09274917
Pt       2.64160351       4.60985975       0.11451818        4       0.00000000       0.01902625       0.01779718       0.06863315
Pt       5.29708288       4.58907896       0.11029316        4       0.00000000      -0.03427112      -0.03896472       0.09881655
Pt       7.96179701       4.62028152       0.09830666        4       0.00000000       0.03717798      -0.05411778       0.08863793
Pt      10.64204280       4.64366975       0.04589666        4       0.00000000       0.02282402      -0.01744105      -0.05437105
Pt       3.95770240       6.90964076       0.08090634        4       0.00000000      -0.03124300       0.02602736       0.07138294
Pt       6.66069114       6.93496413       0.10400143        4       0.00000000       0.04256002       0.00783329       0.16535241
Pt       9.31892454       6.95075649      -0.00148831        4       0.00000000       0.05640249       0.00897289      -0.14323794
Ni      11.92988213       6.92451630       0.09563531        4       1.00000000      -0.06626827       0.02603776       0.30371525
Pt       1.34595240       0.79550118       2.31782410        3       0.00000000      -0.02964937       0.02978480       0.05682595
Ni       3.97174380       0.77396182       2.28057593        3       1.00000000       0.00152994       0.02352056       0.05841991
Pt       6.60455389       0.77384647       2.37935567        3       0.00000000       0.06282169      -0.04819636       0.15586414
Pt       9.30439049       0.83677516       2.37784472        3       0.00000000       0.05636060       0.19924509       0.09265411
Pt       2.62460797       3.06281421       2.30226772        3       0.00000000      -0.07726417       0.02307774       0.06441469
Pt       5.31156336       3.05868502       2.32415911        3       0.00000000       0.04487542      -0.06635103       0.09044510
Pt       7.96925976       3.10378266       2.42312146        3       0.00000000      -0.01772112       0.05120784       0.30067755
Ni      10.61576284       3.09603639       2.32561265        3       1.00000000       0.01416880       0.02355208       0.09113865
Pt       3.97518877       5.36297459       2.32789442        3       0.00000000      -0.03362808      -0.02941479       0.01606751
Ni       6.64408750       5.36796705       2.30484468        3       1.00000000       0.07286735      -0.05369641       0.06621021
Pt       9.32729778       5.34207544       2.34617226        3       0.00000000       0.14194728      -0.12115924       0.02992039
Ni      11.92359675       5.37411081       2.28688130        3       1.00000000      -0.06282277      -0.08840773       0.07082599
Pt       5.32172410       7.67400028       2.32730280        3       0.00000000      -0.02549239       0.08670494       0.02279304
Pt       7.99500044       7.70055739       2.30225415        3       0.00000000       0.07662414       0.00537486       0.12330228
Pt      10.62143840       7.68265083       2.31044635        3       0.00000000      -0.01104939       0.00317457       0.10810116
Pt      13.22171093       7.66835430       2.30750978        3       0.00000000      -0.01734778       0.05800716       0.04194329
Ni      -0.03653935       1.56128366       4.61044467        2       1.00000000      -0.19362679       0.11776989       0.09650946
Pt       2.63038680       1.54032697       4.57278985        2       0.00000000       0.10641296      -0.01865779       0.02334874
Pt       5.39856957       1.52499490       4.61789205        2       0.00000000       0.13975775      -0.00493654       0.15791037
Ni       7.97482355       1.58102427       4.59989076        2       1.00000000       0.12698058       0.28036303       0.06431412
Pt       1.21453638       3.78065288       4.56558605        2       0.00000000      -0.21415600      -0.12019230      -0.10134891
Pt       4.00239236       3.80890152       4.55212176        2       0.00000000      -0.05707374      -0.05465084       0.10661255
Ni       6.67367787       3.81208553       4.56818428        2       1.00000000       0.15451923      -0.11831269      -0.02081385
Ni       9.27723355       3.79111048       4.58257441        2       1.00000000      -0.05151018      -0.28428563      -0.00689232
Pt       2.61669021       6.16008984       4.53147247        2       0.00000000      -0.09186042      -0.04356251       0.03301458
Pt       5.34529639       6.10916085       4.51933899        2       0.00000000       0.04175040      -0.06654295       0.00369587
Pt       7.97420443       6.07898582       4.53696057        2       0.00000000      -0.05300443      -0.10474375      -0.11907431
Pt      10.60232410       6.12545197       4.58529330        2       0.00000000      -0.03489882      -0.06401354       0.06026827
Pt       3.96172900       8.53796770       4.56844054        2       0.00000000      -0.09882049       0.13898283       0.02346947
Pt       6.61374317       8.49320179       4.57461327        2       0.00000000       0.01156661       0.07373735       0.05847582
Pt       9.33901481       8.45689893       4.59322029        2       0.00000000       0.02336938       0.05990684       0.04363287
Ni      11.94362810       8.46761880       4.57527784        2       1.00000000       0.02421727      -0.00293403       0.01873360
Ni      -0.00021098       0.02919336       6.75737727        1       1.00000000      -0.01988613       0.21719260      -0.36433920
Pt       2.65268247       0.00510460       6.85907731        1       0.00000000      -0.01933333       0.02787915       0.17749040
Ni       5.30769835      -0.00263347       6.77024315        1       1.00000000       0.02997655      -0.00404948      -0.24449182
Pt       7.92125507       0.10114876       6.72413767        1       0.00000000      -0.12437329       0.24597060      -0.09525542
Ni       1.28772004       2.28565432       6.75770713        1       1.00000000      -0.21872957      -0.07152889      -0.37547427
Pt       4.00425242       2.25379892       6.85021972        1       0.00000000       0.08375364      -0.03949197       0.18314891
Ni       6.64824684       2.29575282       6.74253535        1       1.00000000       0.11497287       0.08181063      -0.35424537
Ni       9.29672063       2.30579717       6.72241102        1       1.00000000       0.16445007      -0.04769496      -0.45917902
Pt       2.59273091       4.56759105       6.76822702        1       0.00000000      -0.14212262      -0.05140937      -0.12436610
Pt       5.35195877       4.56195263       6.75294900        1       0.00000000       0.12271775      -0.05023218      -0.13514466
Pt       8.03591659       4.53428859       6.71493810        1       0.00000000       0.20715527      -0.19749036      -0.08579600
Ni      10.59742389       4.59524934       6.75361165        1       1.00000000      -0.05053043      -0.10026142      -0.27469754
Pt       3.98409139       6.94410221       6.75610867        1       0.00000000      -0.05877212       0.10354065      -0.20191506
Pt       6.67361341       6.92673078       6.76620021        1       0.00000000       0.11356184      -0.09767122      -0.10789558
Ni       9.29814142       6.90932421       6.75573420        1       1.00000000      -0.05765447      -0.05310812      -0.33935311
Pt      11.85869033       6.94658317       6.81550286        1       0.00000000      -0.12225132       0.13864275       0.08169131
