64
Lattice="10.145588601336346 0.0023956387494198056 0.01198139366292515 5.074868984683515 8.726637000978766 -0.04240480665511531 0.009782766960527534 -0.0456277182590622 8.665160277374595" Properties=species:S:1:pos:R:3:tags:I:1:initial_magmoms:R:1:forces:R:3 unique_id=6e752749776f46f9903d94a9bc7d2882 stress="-0.007300189708671592 2.169726750455075e-05 1.4480587978342149e-06 2.169726750455075e-05 -0.00726265754072937 -2.6844715657018248e-05 1.4480587978342149e-06 -2.6844715657018248e-05 -0.0062769388112767915" energy=-389.57614469357145 pbc="T T T"
Ni       0.04209120      -0.05006482       0.20154810        4       1.00000000       0.08235570      -0.04223467       0.14361320
Ni       2.48882562      -0.02961141       0.22869728        4       1.00000000       0.01085276       0.01142732       0.16802369
Pt       5.10362529      -0.01566369       0.17016791        4       0.00000000       0.01399248       0.04037260      -0.18613750
Ni       7.63269400      -0.04720345       0.21050750        4       1.00000000       0.04190865      -0.05762759       0.17866661
Ni       1.26362562       2.19462301       0.12181985        4       1.00000000      -0.02123474       0.03089128       0.11017145
Pt       3.76692301       2.25700533       0.17542596        4       0.00000000      -0.01916095       0.03276279      -0.16594734
Ni       6.34942254       2.23571286       0.12797655        4       1.00000000      -0.01817698       0.08323446       0.14346408
Pt       8.88484110       2.24013505       0.12775099        4       0.00000000       0.01404972       0.06479534      -0.21056228
Ni       2.51553010       4.40785061       0.09130709        4       1.00000000       0.01712221       0.04032024       0.04417791
Ni       5.09721192       4.41506710       0.09772325        4       1.00000000      -0.01138825       0.05799643       0.03832440
Ni       7.57680586       4.40524356       0.10674259        4       1.00000000      -0.04021155       0.03466754       0.04966464
Ni      10.18088231       4.40100468       0.10496439        4       1.00000000       0.05893251       0.06492740       0.05865949
Ni       3.81926590       6.51892633       0.08417152        4       1.00000000       0.07483840      -0.03913674       0.02750222
Ni       6.33226408       6.52925148       0.09232910        4       1.00000000      -0.01290565      -0.01024245      -0.02485854
Ni       8.83631888       6.48683174       0.17905965        4       1.00000000      -0.08107147      -0.05196505       0.12080239
Ni      11.46429461       6.48772465       0.05819838        4       1.00000000       0.09644539      -0.03775622      -0.08617836
Ni       1.30233922       0.73445949       2.19970510        3       1.00000000       0.01638536       0.05885405       0.11023960
Ni       3.76842991       0.76666877       2.20688899        3       1.00000000      -0.01775344       0.06642335       0.01109832
Ni       6.34200619       0.76732333       2.23659666        3       1.00000000      -0.00389647       0.01988178       0.06919171
Pt       8.89941398       0.72750618       2.21823031        3       0.00000000       0.02561064       0.00310303       0.15454873
Ni       2.50583161       2.92793418       2.23253902        3       1.00000000      -0.00231182       0.02258775       0.01168747
Ni       5.07263912       2.92460156       2.18646562        3       1.00000000      -0.06088836       0.05645209      -0.01449021
Ni       7.58636819       2.94081861       2.18718447        3       1.00000000      -0.02275776       0.01731474       0.02417494
Ni      10.20107375       2.94136686       2.22071002        3       1.00000000       0.06697914      -0.00045140       0.00321605
Ni       3.80602212       5.06826175       2.15331795        3       1.00000000       0.01801006      -0.04704603      -0.01153820
Ni       6.31773317       5.08174466       2.10555478        3       1.00000000      -0.04806893      -0.03200552       0.01639379
Ni       8.87654224       5.01392275       2.13746194        3       1.00000000       0.02707429      -0.11530970       0.01312899
Ni      11.45870232       5.02042634       2.17657288        3       1.00000000       0.06900114      -0.07965865       0.06785530
Ni       5.10762386       7.20052556       2.11637867        3       1.00000000      -0.02200234      -0.08029366       0.05619724
Ni       7.55117643       7.25274698       2.10229030        3       1.00000000      -0.04113787      -0.04454063       0.05037459
Pt      10.20670637       7.16105444       2.17136914        3       0.00000000       0.04920326      -0.12911125       0.07564408
Ni      12.71174771       7.18813607       2.12406885        3       1.00000000       0.10445419      -0.13295123       0.02138527
Ni       0.06638628       1.47326118       4.26205718        2       1.00000000       0.06017764      -0.00941801      -0.04130545
Ni       2.49417502       1.50087377       4.23165107        2       1.00000000      -0.00549045       0.06325205      -0.04929107
Ni       5.07573517       1.44654559       4.21923320        2       1.00000000      -0.09310125       0.01746881      -0.16324695
Ni       7.58839909       1.42342835       4.27789081        2       1.00000000      -0.05223586      -0.08585645      -0.01068740
Ni       1.28120838       3.61976998       4.27856957        2       1.00000000      -0.00080770      -0.00494887      -0.05759559
Ni       3.75194943       3.66706546       4.21357193        2       1.00000000      -0.05578662       0.04865880      -0.18016959
Pt       6.29834491       3.56588810       4.28137581        2       0.00000000      -0.02472328      -0.03624951      -0.01522304
Ni       8.94307140       3.62807512       4.21629832        2       1.00000000       0.01853530       0.01477951      -0.19781019
Ni       2.52016353       5.73188464       4.26492797        2       1.00000000      -0.04547994      -0.05032378      -0.15985590
Ni       5.03672273       5.75667875       4.26857302        2       1.00000000      -0.02091316      -0.09510843      -0.13418709
Pt       7.58914602       5.77899008       4.21299615        2       0.00000000       0.00909851      -0.00275478      -0.01182652
Ni      10.21776976       5.73273755       4.28777970        2       1.00000000      -0.01363819      -0.04078038      -0.03219159
Pt       3.81229701       7.88607842       4.22249191        2       0.00000000      -0.00366538      -0.02995758       0.05371947
Ni       6.32415896       7.99617174       4.19573681        2       1.00000000      -0.04619542       0.03475588      -0.08374635
Pt       8.85035418       8.03502634       4.18135592        2       0.00000000      -0.09525111      -0.00125002      -0.04898597
Ni      11.44503651       7.94284608       4.22947885        2       1.00000000       0.02699925      -0.07939185      -0.08330590
Pt       0.01832811      -0.07384739       6.46711387        1       0.00000000      -0.07727352       0.01982315       0.13797849
Pt       2.51732661      -0.01798740       6.47432960        1       0.00000000       0.09298006       0.05826484       0.18949394
Pt       5.11275535      -0.00579562       6.33155405        1       0.00000000      -0.04773726       0.07910380       0.04005685
Pt       7.61117197      -0.07645432       6.47774921        1       0.00000000       0.05517102       0.00826013       0.21827985
Ni       1.27538830       2.22448803       6.36590900        1       1.00000000       0.02385446       0.04370737      -0.07076927
Pt       3.80244643       2.29537696       6.29033195        1       0.00000000       0.00896470       0.06923845      -0.06491649
Ni       6.35059902       2.20707675       6.41348704        1       1.00000000      -0.01014328       0.02773734       0.04579277
Pt       8.89347278       2.25946750       6.27726026        1       0.00000000      -0.00362000       0.03796685      -0.05220698
Ni       2.51535820       4.39073681       6.36158083        1       1.00000000      -0.01102214       0.06180211      -0.07948140
Ni       5.08233191       4.39852683       6.40156194        1       1.00000000      -0.03935245       0.09302428       0.00014241
Ni       7.55143532       4.33296428       6.42120405        1       1.00000000      -0.11912149       0.01517738       0.00007401
Ni      10.23871125       4.33094704       6.37325705        1       1.00000000       0.12062912       0.00224603      -0.08224427
Ni       3.80579962       6.41796138       6.38566161        1       1.00000000      -0.03080096      -0.06461788      -0.02363242
Ni       6.30861427       6.45162905       6.39481179        1       1.00000000      -0.01263739       0.01155816      -0.09527494
Pt       8.91324161       6.39082303       6.46906061        1       0.00000000       0.02104866      -0.03745084       0.14387154
Ni      11.46436704       6.44270144       6.36147960        1       1.00000000       0.00728884       0.02560203      -0.15994864
