64
Lattice="10.28486641250423 0.004049833209541426 -0.0379090107221626 5.145940464692668 8.860166028653483 -0.09254424443206188 0.0 0.0 21.647541172130587" Properties=species:S:1:pos:R:3:tags:I:1:initial_magmoms:R:1:forces:R:3 unique_id=b708c39a84a04cccb262b812b4ae1379 stress="0.004506765849243501 -5.1360782024150565e-05 -0.00027109561100295673 -5.1360782024150565e-05 0.004091729170315151 -0.0006276221963192792 -0.00027109561100295673 -0.0006276221963192792 -0.002603829754538739" energy=-372.47823644561896 pbc="T T T"
Ni       0.02393123       0.01182694       0.21815922        2       1.00000000       0.17323090      -0.00876863      -0.38437662
Ni       2.58294256       0.02490962       0.25161228        3       1.00000000       0.01069401      -0.01003782      -0.22865546
Ni       5.10814129      -0.02466298       0.10804447        1       1.00000000      -0.07828966       0.04284057       0.21125627
Ni       7.71815249      -0.02615943       0.17382784        2       1.00000000      -0.02768377       0.05180376      -0.61787855
Ni       1.28561967       2.21563007       0.14515430        1       1.00000000       0.00914761       0.00757173       0.43352959
Ni       3.81916070       2.21052970       0.23871032        2       1.00000000       0.02888621       0.01799854      -0.22979039
Pt       6.42355238       2.27607739       0.16895587        2       0.00000000      -0.02928766       0.15235250      -1.07025917
Ni       9.04100057       2.24578033       0.08434523        1       1.00000000      -0.02512346       0.08596308       0.24286115
Ni       2.58355334       4.40035535       0.08343349        1       1.00000000      -0.01606931      -0.08317190       0.25562781
Ni       5.08820646       4.42650758       0.08420399        1       1.00000000      -0.11456594      -0.01972253       0.16738510
Ni       7.76912460       4.42069227       0.07340235        1       1.00000000       0.13736427       0.02991702       0.18805025
Ni      10.27007821       4.39994321       0.04741823        0       1.00000000      -0.05427244      -0.00639709       0.21554082
Ni       3.85076029       6.60960275       0.04676889        0       1.00000000       0.05957568      -0.08977761       0.15665799
Pt       6.42518574       6.66234095       0.01535845        0       0.00000000       0.05334430       0.17562273      -0.21177299
Ni       8.99990481       6.62030986       0.10691346        1       1.00000000      -0.09670705      -0.11353759      -0.13361726
Ni      11.56536482       6.62497297       0.00000000        0       1.00000000      -0.10048969      -0.09107650       0.14660519
Ni       1.31550471       0.73661326       2.20146750        5       1.00000000       0.04707775       0.04856304      -0.04859178
Ni       3.79630768       0.73611404       2.19984920        5       1.00000000       0.01373757      -0.00883115       0.14642028
Pt       6.38583678       0.72631443       2.22609437        5       0.00000000      -0.08130854      -0.01849657       0.14351549
Pt       9.09120041       0.78634545       2.17027139        5       0.00000000       0.04183948      -0.02155583       0.09390207
Ni       2.56687274       2.90521585       2.17746152        5       1.00000000      -0.08655546      -0.03735187      -0.02405615
Ni       5.07209816       2.96414287       2.21526692        5       1.00000000      -0.05520773       0.01517835       0.13212544
Ni       7.77052252       2.98786509       2.21322545        5       1.00000000       0.13509871       0.07635438       0.11899929
Ni      10.27972488       2.94331052       2.17528673        5       1.00000000       0.06286910      -0.00907329       0.02385383
Ni       3.86739462       5.11731057       2.17098906        5       1.00000000       0.02576557      -0.12556847      -0.09491362
Pt       6.43137295       5.16298157       2.18910543        5       0.00000000       0.01699995      -0.05103815      -0.00361036
Ni       8.98000124       5.11195975       2.18970306        5       1.00000000       0.00578952      -0.10041397       0.03992095
Pt      11.55132750       5.07020464       2.12854872        4       0.00000000      -0.02777295      -0.11112389      -0.03514331
Ni       5.16074304       7.36208255       2.16151073        5       1.00000000       0.02416191      -0.02796187      -0.01071662
Ni       7.69924457       7.39130291       2.16501576        5       1.00000000      -0.04887170      -0.01214208       0.04643826
Pt      10.18106070       7.34496913       2.18037008        5       0.00000000      -0.06888049      -0.06317103       0.06772798
Pt      12.89325423       7.30106343       2.10023855        4       0.00000000       0.06189228      -0.11949672       0.03387896
Ni      -0.00893030       1.46647777       4.43641471        7       1.00000000       0.03857363      -0.06706244      -0.05673764
Pt       2.50104606       1.43391865       4.32145764        6       0.00000000      -0.05584582      -0.06053950      -0.08317566
Pt       5.10015288       1.37180865       4.39241141        7       0.00000000      -0.05797398      -0.05828816       0.01689213
Pt       7.79486203       1.48133766       4.38384074        7       0.00000000       0.07760814       0.00994764       0.02255458
Pt       1.18114875       3.69998286       4.44953280        7       0.00000000      -0.05093428       0.07111067       0.02612929
Pt       3.82559153       3.75996841       4.34698651        6       0.00000000      -0.04717585       0.06994165      -0.07601359
Pt       6.46694884       3.75622242       4.37268239        7       0.00000000      -0.01706178       0.13978927      -0.09634820
Ni       8.99929449       3.71548294       4.37323064        7       1.00000000      -0.02486234       0.17896158      -0.07289562
Ni       2.51352417       5.88753739       4.42026154        7       1.00000000      -0.19498233       0.04381691      -0.05062298
Ni       5.12252300       5.87563151       4.38560877        7       1.00000000      -0.01247808      -0.03344534      -0.14823218
Ni       7.76759699       5.87243273       4.34513669        6       1.00000000       0.24221015      -0.01132641      -0.22163978
Ni      10.25761580       5.89069949       4.34314067        6       1.00000000      -0.05587258       0.00902432      -0.15619802
Pt       3.83791695       7.99560635       4.34562271        6       0.00000000      -0.04053867      -0.01904351      -0.04432597
Pt       6.45001935       7.99701543       4.25905816        6       0.00000000       0.11124500      -0.00510595      -0.10200930
Ni       9.00211688       8.02520510       4.32855251        6       1.00000000      -0.03783803      -0.03168911      -0.11759277
Ni      11.52495056       8.01583431       4.34757009        6       1.00000000      -0.03507528      -0.04307180      -0.04451343
Pt      -0.02733136      -0.02070795       6.64061920       10       0.00000000      -0.03083559       0.00396248       0.22677680
Pt       2.57907163      -0.06376076       6.64166352       10       0.00000000       0.03467691      -0.05837110       0.19332001
Ni       5.12592468      -0.08277780       6.56143132       10       1.00000000      -0.01585375       0.04847503       0.03019843
Pt       7.63177063      -0.12835455       6.61645262       10       0.00000000      -0.01080804      -0.00703606       0.35339909
Ni       1.22362159       2.22108514       6.57485751       10       1.00000000       0.04898465      -0.01034173      -0.07864110
Pt       3.79010468       2.26616857       6.64754117       10       0.00000000       0.06876819       0.18413655       0.28474706
Pt       6.44526971       2.24591261       6.53168042        9       0.00000000      -0.04213751       0.09473947       1.33401217
Ni       9.02539736       2.23912081       6.53812650        9       1.00000000       0.03292836       0.06574217      -0.08255348
Ni       2.52253525       4.45356444       6.55484227       10       1.00000000      -0.02329921       0.07600880      -0.14397416
Ni       5.11803455       4.47068931       6.54199375        9       1.00000000       0.00830100      -0.00064077      -0.09996913
Ni       7.72752229       4.41025965       6.52474419        9       1.00000000       0.08989922       0.00720844      -0.10406946
Ni      10.26703115       4.36644294       6.51845014        9       1.00000000      -0.03192782       0.02697074      -0.11891022
Ni       3.83435211       6.52884666       6.50455628        9       1.00000000       0.00767001      -0.00275787      -0.21922890
Ni       6.38861924       6.54108677       6.40457170        8       1.00000000       0.06651208      -0.02739013       0.14340211
Pt       9.03414516       6.52523208       6.48113576        9       0.00000000      -0.06181689      -0.01613082      -0.06258763
Ni      11.56067256       6.55227684       6.45727555        9       1.00000000       0.02355150      -0.15304616      -0.22210684
