64
Lattice="10.275141428886375 -0.028854005356739047 0.006848716524413869 5.112582412803323 8.93328874791109 0.012993796182278812 0.005591953625927136 0.009022152593902011 8.85217487258064" Properties=species:S:1:pos:R:3:tags:I:1:initial_magmoms:R:1:forces:R:3 unique_id=98aaa9cb48a74208b0b6405fcec98de7 stress="0.00030132231103004864 2.4242145546056113e-06 -6.515612903966795e-06 2.4242145546056113e-06 0.00029861371828952127 5.219444306584456e-06 -6.515612903966795e-06 5.219444306584456e-06 0.00028376259077499827" energy=-398.9838948040792 pbc="T T T"
Ni       0.04652704       0.02138351       0.16291269        4       1.00000000       0.18595934       0.07375904       0.26996955
Ni       2.52633870       0.00594242       0.19910366        4       1.00000000      -0.12629109       0.07297720       0.43985801
Pt       5.06694884      -0.05374668       0.12012508        4       0.00000000      -0.10404971       0.01895477       0.27059005
Pt       7.77376897      -0.10772483       0.04892588        4       0.00000000       0.05165747      -0.09989815      -0.08641885
Ni       1.23862310       2.24284375       0.10697751        4       1.00000000      -0.17715494       0.05656574       0.26664021
Pt       3.74613446       2.28561314       0.11957923        4       0.00000000      -0.14080458       0.11698404      -0.10635134
Pt       6.42723773       2.27524153       0.16529776        4       0.00000000       0.01639170       0.08903155       0.27652429
Ni       9.04039607       2.23191840       0.17385517        4       1.00000000       0.07933270       0.08796657       0.28793077
Ni       2.54907613       4.48968148       0.07487327        4       1.00000000       0.04344796       0.07293352       0.01328640
Ni       5.08746685       4.49014413       0.18830287        4       1.00000000      -0.04228171       0.09835546       0.33575358
Pt       7.77854003       4.48878618       0.11658216        4       0.00000000       0.10989557       0.03315692      -0.11230589
Ni      10.29660000       4.43267208       0.08397582        4       1.00000000       0.14209325      -0.08515054       0.14049234
Ni       3.81852232       6.65436614       0.11211975        4       1.00000000      -0.03061108      -0.21237119       0.25661970
Pt       6.37260970       6.73407711       0.19655431        4       0.00000000      -0.05612584       0.02480650       0.00359438
Ni       8.98063961       6.65986077       0.08637866        4       1.00000000       0.01692530      -0.00803970       0.12076809
Ni      11.55329222       6.62523638       0.07601626        4       1.00000000       0.01694330      -0.10660339       0.06543597
Ni       1.31928569       0.74092933       2.20879057        3       1.00000000       0.10400834       0.00486042       0.04678340
Ni       3.79456439       0.76379605       2.23201283        3       1.00000000      -0.03176580       0.04365443      -0.02519972
Pt       6.38542573       0.77262351       2.29607542        3       0.00000000      -0.08098807       0.03309668      -0.13540586
Pt       9.10116949       0.74504170       2.21280538        3       0.00000000       0.03446487      -0.01305006      -0.02428327
Ni       2.56259285       2.96808041       2.23606990        3       1.00000000      -0.02369237       0.01685286       0.05734696
Ni       5.08131130       3.02880199       2.26022116        3       1.00000000      -0.19990755       0.09625801       0.03482213
Ni       7.73775218       3.02623898       2.25159530        3       1.00000000       0.11842005       0.11560416      -0.00108757
Ni      10.27967551       2.95937948       2.21879822        3       1.00000000       0.10319022       0.05401031       0.08370634
Ni       3.87680927       5.21148278       2.23742639        3       1.00000000       0.09065381       0.01633059       0.11388528
Ni       6.39295953       5.21781518       2.25381269        3       1.00000000      -0.02800995       0.14670050      -0.08650881
Ni       8.94474981       5.16151196       2.26342359        3       1.00000000      -0.06411389      -0.14604022       0.20178283
Pt      11.60156417       5.13054645       2.16947340        3       0.00000000       0.12848922      -0.06486039       0.06138760
Ni       5.13034520       7.41093870       2.26432232        3       1.00000000       0.07268001      -0.15060228       0.03785065
Ni       7.63560842       7.43910591       2.25667983        3       1.00000000      -0.21064307      -0.06238201       0.04752191
Pt      10.19613879       7.34482394       2.21445326        3       0.00000000      -0.03032108      -0.08231610      -0.20965998
Ni      12.87268633       7.37530636       2.23099457        3       1.00000000       0.12387073      -0.13800715      -0.02637753
Ni       0.02716425       1.49973599       4.38862806        2       1.00000000       0.12974549      -0.03688054      -0.04691145
Pt       2.56259688       1.51184461       4.33969140        2       0.00000000      -0.01151414      -0.06789173      -0.03027889
Ni       5.09970547       1.52214272       4.38950800        2       1.00000000      -0.02857718       0.09179368      -0.06533659
Pt       7.77395518       1.51994271       4.38624824        2       0.00000000       0.09600349       0.04554577       0.15858475
Pt       1.28313543       3.72025134       4.44787019        2       0.00000000      -0.02960063      -0.03841101      -0.01040454
Ni       3.84632638       3.74982664       4.37925979        2       1.00000000      -0.02349467       0.08167716      -0.22848078
Pt       6.39319067       3.79904844       4.30724999        2       0.00000000      -0.06780208      -0.07845656       0.03168263
Ni       8.97582290       3.72268475       4.38779759        2       1.00000000      -0.02450659      -0.00165817      -0.20995740
Ni       2.60274893       5.91869590       4.43183077        2       1.00000000       0.12399233      -0.21161212      -0.08811325
Ni       5.11159942       5.94503409       4.35578397        2       1.00000000       0.02532961      -0.09894624      -0.22755344
Ni       7.66977441       5.93550634       4.37195619        2       1.00000000      -0.12384915       0.01521487      -0.28580495
Pt      10.21097902       5.87807675       4.48356240        2       0.00000000      -0.06951882      -0.05633590       0.01244689
Pt       3.91008028       8.10074411       4.38177627        2       0.00000000       0.10296365      -0.06159284      -0.00953794
Ni       6.39094993       8.16768608       4.35617520        2       1.00000000      -0.02292310      -0.04233713      -0.18875567
Pt       8.88518231       8.15276834       4.35359393        2       0.00000000      -0.03584953       0.02675971       0.08107726
Pt      11.58763217       8.10860137       4.41622609        2       0.00000000       0.03519684      -0.15694819      -0.05129526
Pt      -0.03129980       0.01199248       6.60041717        1       0.00000000      -0.10955500       0.00378675       0.11315405
Pt       2.56913799       0.04511022       6.63351103        1       0.00000000       0.01176917       0.08078385       0.22818536
Pt       5.16220044      -0.06142052       6.51641177        1       0.00000000       0.07946921      -0.15043582      -0.37353050
Ni       7.71806640      -0.05376436       6.50317329        1       1.00000000       0.04063832      -0.02838531      -0.29604669
Ni       1.30588462       2.29034899       6.58349063        1       1.00000000       0.12282774       0.11240414      -0.01822324
Ni       3.81519707       2.26227662       6.49809308        1       1.00000000      -0.09164154       0.06863712      -0.27468552
Pt       6.40029561       2.24718892       6.52069118        1       0.00000000       0.00868850       0.10279858      -0.26403330
Pt       9.05948053       2.31446169       6.60507504        1       0.00000000       0.11476267       0.20587169       0.16204026
Ni       2.52090252       4.49171631       6.57611683        1       1.00000000      -0.19192116       0.06584328      -0.11220376
Pt       5.01495448       4.48422474       6.58285444        1       0.00000000      -0.23052836       0.06636017       0.11462213
Ni       7.73744722       4.48683537       6.49876684        1       1.00000000       0.03180779       0.09928864      -0.31268954
Ni      10.28774804       4.48405920       6.60498003        1       1.00000000       0.10592394       0.15390644       0.05176802
Ni       3.77653507       6.69127515       6.57078144        1       1.00000000      -0.17206908      -0.00735389      -0.11514874
Pt       6.43379715       6.66028602       6.47781830        1       0.00000000      -0.00527605      -0.03061082      -0.21540374
Ni       8.99893630       6.64184827       6.59334445        1       1.00000000       0.00542696      -0.09416668      -0.05770204
Ni      11.57442101       6.63437295       6.59917392        1       1.00000000       0.11241826      -0.16218698      -0.09041576
