64
Lattice="10.150447518352676 -0.01562932685871623 -0.01510888656786048 5.0616883650726985 8.752279971391703 -0.061275132170069455 0.0 0.0 21.551387297986413" Properties=species:S:1:pos:R:3:tags:I:1:initial_magmoms:R:1:forces:R:3 unique_id=665ff11c43404a2d9c7cdc90832c62f2 energy=-369.3412205040897 stress="0.004192105987031618 -7.706095120304879e-05 -0.00025516355943725714 -7.706095120304879e-05 0.004219928269226363 -0.00024988758823915033 -0.00025516355943725714 -0.00024988758823915033 -0.0022940749343940085" pbc="T T T"
Ni       0.02360448      -0.02629883       0.07155263        1       1.00000000      -0.00116107       0.11129368       0.07645132
Ni       2.49945572       0.01028577       0.08240343        1       1.00000000      -0.06182453      -0.06435935       0.12075383
Ni       5.09142896       0.03598184       0.06206717        1       1.00000000       0.01305146      -0.08021823       0.01033052
Ni       7.60300179      -0.00362845       0.05866750        1       1.00000000      -0.01105202       0.10806428      -0.01865762
Ni       1.25425946       2.13040178       0.19578888        2       1.00000000      -0.12231370      -0.07545445      -0.61259650
Ni       3.82028780       2.13151276       0.05275248        1       1.00000000      -0.00155291       0.09327961       0.02783407
Ni       6.32238189       2.13608973       0.09127017        1       1.00000000       0.03383985      -0.03202098       0.20605516
Pt       8.86600499       2.20575141       0.02125026        0       0.00000000       0.00170225       0.05250008      -0.36132144
Pt       2.51004956       4.35313897       0.00000000        0       0.00000000       0.06580016       0.04403550      -0.29330535
Pt       5.13042407       4.35987362       0.06554160        1       0.00000000      -0.03533359      -0.03286299       0.01516598
Ni       7.60761695       4.36050080       0.16284196        2       1.00000000      -0.01245075       0.01748759      -0.08864487
Ni      10.12829767       4.35406387       0.08287856        1       1.00000000       0.01297019       0.08564128       0.12978549
Ni       3.81603713       6.60057531       0.02572365        0       1.00000000      -0.07792714      -0.07657487       0.03335193
Ni       6.32555676       6.58727573       0.03241037        0       1.00000000       0.09042082      -0.01284711       0.01085798
Pt       8.81119489       6.55839804       0.13655489        1       0.00000000       0.01506927       0.09743232      -0.38747203
Pt      11.42447171       6.62203488       0.03595633        0       0.00000000      -0.07813702       0.00625354      -0.05623368
Ni       1.27353003       0.69324159       2.16104030        4       1.00000000       0.04169168      -0.07543483       0.11001957
Pt       3.86154645       0.64518928       2.15120959        4       0.00000000       0.05555834      -0.08970215      -0.08604641
Ni       6.33111296       0.69646088       2.16033703        4       1.00000000      -0.01377711      -0.06189789      -0.03356814
Pt       8.82822177       0.69322987       2.15582705        4       0.00000000      -0.05771945       0.01184038      -0.09281044
Pt       2.54618483       2.91901828       2.18873786        4       0.00000000       0.09140054       0.11402221      -0.08915943
Ni       5.12308492       2.90554106       2.20335299        4       1.00000000       0.12385878       0.01673304       0.20156376
Ni       7.57222344       2.94133088       2.18664496        4       1.00000000      -0.03551261      -0.01176546       0.14202321
Ni      10.11309424       2.94631904       2.16713160        4       1.00000000      -0.10808575       0.12496446       0.14812076
Ni       3.78646374       5.10080616       2.18926817        4       1.00000000      -0.08287580      -0.00730726       0.09911804
Ni       6.38581848       5.05802452       2.19101635        4       1.00000000       0.08292865      -0.03336587       0.19520834
Ni       8.86480585       5.06660566       2.20927166        4       1.00000000       0.04624252      -0.03193501       0.16409365
Ni      11.37202605       5.12663180       2.17478055        4       1.00000000      -0.03766123       0.05854243       0.10724761
Pt       5.09421887       7.24098373       2.12170177        3       0.00000000       0.01587996      -0.12948791      -0.03931162
Ni       7.59726116       7.24311911       2.21170740        4       1.00000000       0.07667888      -0.14583919       0.28009951
Ni      10.16678741       7.24320128       2.21557215        4       1.00000000       0.09202571      -0.10853802       0.22057933
Ni      12.64040112       7.24538405       2.18999783        4       1.00000000      -0.06982469      -0.12189402       0.20654089
Pt      -0.01892070       1.38815276       4.33295525        6       0.00000000      -0.02166856      -0.03947338      -0.06204361
Pt       2.60615814       1.37846976       4.36646027        7       0.00000000       0.01312298      -0.05181008       0.04474759
Ni       5.07446291       1.42918299       4.35363577        7       1.00000000      -0.02343951      -0.01804850      -0.09828532
Pt       7.50472937       1.42227309       4.35080255        7       0.00000000      -0.00983540       0.03408296      -0.01769695
Pt       1.23212854       3.74221196       4.31429574        6       0.00000000      -0.11022030       0.12859450      -0.03492295
Ni       3.83740273       3.61319343       4.33209495        6       1.00000000       0.02929096      -0.04826413      -0.12084104
Ni       6.30925494       3.61094023       4.27096502        6       1.00000000       0.01589113       0.00123963      -0.20277258
Ni       8.84015673       3.66317992       4.26565921        6       1.00000000      -0.10006653       0.13135577      -0.24245265
Ni       2.51761613       5.87125375       4.29815721        6       1.00000000      -0.01947498       0.09101927      -0.23003657
Pt       5.05789683       5.78997354       4.32867589        6       0.00000000       0.01703600      -0.00640286       0.01928402
Ni       7.61204859       5.80152038       4.23320659        5       1.00000000       0.04329060      -0.04366705      -0.19523461
Ni      10.12980805       5.84737620       4.23610791        5       1.00000000      -0.06611748       0.07451221      -0.23017111
Ni       3.74329287       7.95952182       4.32595022        6       1.00000000      -0.09644821       0.01669902      -0.04618773
Ni       6.36012991       7.95020722       4.31366978        6       1.00000000       0.12676645      -0.10683515       0.01961042
Ni       8.90507509       7.96348427       4.24217062        5       1.00000000       0.11768319      -0.09359523      -0.14744052
Ni      11.37635035       7.95169231       4.27932267        6       1.00000000      -0.08524155      -0.02214907      -0.10586122
Ni      -0.02967896      -0.09262610       6.46198735       10       1.00000000       0.00133816      -0.00750974      -0.10848264
Ni       2.53356407      -0.05023536       6.46206016       10       1.00000000      -0.01801225      -0.03067838      -0.00899457
Ni       5.09330193      -0.00074775       6.41997175        9       1.00000000       0.06486720      -0.07728093      -0.31446911
Ni       7.59858566      -0.07323538       6.43864054        9       1.00000000      -0.03810336      -0.10550468      -0.20339179
Pt       1.27125755       2.15779621       6.55138730       11       0.00000000       0.04759145       0.05566276       0.66583759
Ni       3.85939916       2.15368207       6.44175813        9       1.00000000       0.02076193       0.11656463      -0.03462095
Ni       6.28469719       2.11505662       6.44656389        9       1.00000000      -0.01264954       0.08516652      -0.14240398
Ni       8.85079692       2.11870265       6.36110743        9       1.00000000      -0.00965475       0.05154951       0.58276853
Ni       2.56701516       4.39467532       6.32575700        8       1.00000000       0.14858948       0.08706187       0.35104096
Ni       5.02150435       4.31931165       6.34831239        8       1.00000000      -0.00422644      -0.08847658       0.25936909
Pt       7.56006823       4.29467146       6.40747078        9       0.00000000      -0.08430742       0.06103325       0.02582250
Ni      10.14670076       4.35518862       6.41819836        9       1.00000000      -0.03680367       0.10110691      -0.01392574
Ni       3.77248208       6.54985221       6.39973667        9       1.00000000      -0.09603860       0.00723857      -0.18848737
Ni       6.29238155       6.56122534       6.40964318        9       1.00000000       0.10085854      -0.04664945      -0.03360905
Pt       8.89495103       6.57492199       6.31022540        8       0.00000000       0.01278847      -0.04529863       0.46128475
Ni      11.44646982       6.53125733       6.29138635        8       1.00000000       0.02052239       0.03817166       0.00649320
