64
Lattice="10.177595323957258 -0.03146562580495363 0.04871733070138109 5.061547630685561 8.813546998586773 0.049371672416366516 0.0 0.0 21.512593662292776" Properties=species:S:1:pos:R:3:tags:I:1:initial_magmoms:R:1:forces:R:3 unique_id=57d7b2968f5a4c7bbeb7038cf41fb668 stress="0.004197860684338934 -9.071614051411608e-05 0.0005164747266763336 -9.071614051411608e-05 0.003963103012283059 0.00018494634803694772 0.0005164747266763336 0.00018494634803694772 -0.002419612522681005" energy=-370.3155469389633 pbc="T T T"
Ni       0.04298906       0.02470688       0.05877119        1       1.00000000       0.15026937       0.10162741      -0.68821093
Ni       2.53636908      -0.04477090       0.14109642        1       1.00000000       0.01790529      -0.06196232      -0.29644328
Ni       5.07232521      -0.07111943       0.02869350        0       1.00000000      -0.08010057      -0.03145568       0.24783432
Ni       7.64304611      -0.05065878       0.11674059        1       1.00000000      -0.02858874      -0.02007229      -0.67516099
Ni       1.22609489       2.22431167       0.04178589        0       1.00000000       0.03835303       0.02414303       0.30869321
Pt       3.75067575       2.20150289       0.13089489        1       0.00000000       0.03874422       0.00934178      -0.55397558
Pt       6.41909406       2.23139852       0.00000000        0       0.00000000      -0.06106214       0.15060803      -0.24746929
Ni       8.95590801       2.23353296       0.02813472        0       1.00000000       0.01563574       0.14303510       0.12803115
Ni       2.49743591       4.43961023       0.05012939        1       1.00000000      -0.04262732       0.02524161       0.33849308
Ni       5.05658682       4.44116567       0.12428168        1       1.00000000      -0.13996052      -0.04968326      -0.37241736
Ni       7.68685322       4.42331400       0.03862679        0       1.00000000       0.21469374       0.03417642       0.09521823
Ni      10.17409897       4.38811195       0.08527818        1       1.00000000      -0.00178358       0.11288352       0.34416493
Ni       3.79301422       6.58164849       0.00722044        0       1.00000000      -0.03637076      -0.05881860       0.07066389
Ni       6.37747271       6.60326556       0.01479338        0       1.00000000       0.15452946       0.04023162       0.00946941
Ni       8.89530022       6.58796302       0.16110935        2       1.00000000       0.01438837      -0.05975973       0.01901151
Ni      11.40341453       6.55798988       0.05439201        1       1.00000000      -0.14766846      -0.07910341       0.25758613
Ni       1.32860751       0.78388502       2.07508726        3       1.00000000       0.08245571       0.14634981       0.04358700
Ni       3.79065004       0.67575225       2.13997951        3       1.00000000      -0.01063442      -0.13330325       0.06379401
Pt       6.26463057       0.71084071       2.17271712        4       0.00000000      -0.08663115       0.00559168       0.06792940
Pt       8.97059714       0.81143556       2.10803137        3       0.00000000       0.03273068       0.06008076       0.00401582
Ni       2.50645257       2.99151825       2.13856713        3       1.00000000      -0.06016321       0.13440438      -0.03705299
Ni       5.04368297       2.95128235       2.18731558        4       1.00000000      -0.10131146      -0.02837835       0.21348376
Ni       7.68952771       2.96853243       2.14951712        3       1.00000000       0.09366119       0.04109444       0.06165593
Ni      10.20242523       2.97853521       2.14402767        3       1.00000000       0.01658072       0.07618562       0.02211624
Ni       3.77679023       5.07987184       2.14654702        3       1.00000000      -0.04122977      -0.10702978       0.11603224
Pt       6.42071212       5.11376590       2.10936403        3       0.00000000       0.14565373       0.01006076      -0.03975358
Ni       8.95236165       5.13055214       2.16859644        4       1.00000000       0.11417321      -0.05194885       0.10103865
Ni      11.39828806       5.08131741       2.14940206        3       1.00000000      -0.12132956      -0.01731616      -0.01747922
Pt       5.11271164       7.32134675       2.07641755        3       0.00000000       0.00976119      -0.04400777      -0.04808633
Ni       7.69796749       7.34110968       2.15010148        4       1.00000000       0.06029737      -0.08436765       0.15963891
Ni      10.09907029       7.28186382       2.18924286        4       1.00000000      -0.01786537      -0.08788748       0.11229718
Pt      12.62936473       7.21206762       2.16373537        4       0.00000000      -0.08575355      -0.16181164       0.05436500
Ni       0.02243552       1.52080740       4.27589582        6       1.00000000       0.06635821      -0.03530163      -0.08034644
Pt       2.58519239       1.49298129       4.16396475        5       0.00000000       0.04136776      -0.00463761       0.00659594
Ni       5.09932698       1.43250353       4.28949622        6       1.00000000      -0.06702960      -0.06811580      -0.03779485
Pt       7.67352905       1.49354519       4.32217827        6       0.00000000       0.03429960       0.00814009       0.07769109
Pt       1.24328516       3.75268245       4.26977430        6       0.00000000      -0.03780511       0.02303493       0.04438497
Ni       3.81668044       3.73730553       4.23826732        5       1.00000000      -0.04832114       0.08122661      -0.21293334
Pt       6.36083685       3.70766996       4.29165579        6       0.00000000      -0.06931224       0.01270775       0.02687096
Ni       8.92814796       3.71453304       4.31735772        6       1.00000000       0.00621789       0.13154102      -0.09966751
Ni       2.52533189       5.86176598       4.32269130        6       1.00000000      -0.07732315      -0.02651793      -0.00908507
Ni       5.05972673       5.85677688       4.29769147        6       1.00000000      -0.00961531      -0.03820823      -0.17559555
Ni       7.69733790       5.85372828       4.30378677        6       1.00000000       0.18995721      -0.02056684      -0.14468714
Ni      10.17411506       5.88745657       4.28841364        6       1.00000000      -0.03036625       0.02594029      -0.21183756
Pt       3.76934934       8.01588039       4.30736304        6       0.00000000      -0.02780743      -0.05695741      -0.01668388
Pt       6.42065220       8.00872823       4.27078775        6       0.00000000       0.12698239      -0.13404558       0.00386949
Ni       8.96630922       8.04794016       4.28444421        6       1.00000000       0.01029079      -0.01488463      -0.17692729
Ni      11.36986561       8.01841382       4.35375771        7       1.00000000      -0.05206101      -0.09320512      -0.02638899
Pt       0.00471871       0.04660297       6.45651564        9       0.00000000      -0.11413824       0.16028783       0.38121176
Pt       2.60637222      -0.01412635       6.48309663        9       0.00000000       0.05011601      -0.01628544       0.24383740
Ni       5.11931214      -0.01709108       6.38643391        8       1.00000000      -0.10302546      -0.01577304      -0.11742073
Pt       7.56077179      -0.03928333       6.51259366        9       0.00000000       0.01370340       0.00117751       0.45362533
Ni       1.25628420       2.27417029       6.41485302        8       1.00000000       0.02777764      -0.02310487      -0.12836897
Pt       3.85443295       2.25300945       6.35978529        8       0.00000000       0.09809160       0.18309360       0.66881997
Ni       6.39711561       2.22285777       6.35560748        8       1.00000000      -0.09772226       0.05666536       0.54787615
Ni       8.93582603       2.26393762       6.44140532        8       1.00000000       0.02520778       0.00501760      -0.10141685
Ni       2.51393782       4.46517227       6.41391090        8       1.00000000       0.02185053      -0.00639421      -0.20032433
Pt       5.09949606       4.50445439       6.48085657        9       0.00000000      -0.12070330      -0.10877824       0.26153962
Ni       7.67712644       4.37848478       6.43962053        8       1.00000000       0.05828269      -0.04131500      -0.14498068
Ni      10.19861193       4.36890464       6.46461766        9       1.00000000      -0.04352321      -0.01163785      -0.23852768
Ni       3.78643762       6.59677536       6.43237504        8       1.00000000      -0.12810967       0.06437770       0.00524626
Ni       6.37026472       6.59988318       6.44045909        8       1.00000000       0.11382224       0.06159424      -0.01902455
Pt       8.96333859       6.52697668       6.45245387        9       0.00000000       0.01140618      -0.01925634      -0.18652763
Ni      11.46959442       6.55102382       6.44048837        8       1.00000000      -0.00562099      -0.11796855      -0.25610034
