64
Lattice="10.362011416971226 -0.04099267519430311 0.044458967053630186 5.1455050103982645 8.949183571048167 -0.007170875194561921 0.0 0.0 21.62717759860076" Properties=species:S:1:pos:R:3:tags:I:1:initial_magmoms:R:1:forces:R:3 unique_id=ccd86380af0042d3a9748f648b9c07f7 energy=-379.47177194538995 stress="0.0058648609837400854 -0.00028176838688678726 0.0001630080184114196 -0.00028176838688678726 0.0053231197384942825 -0.00017110374655544006 0.0001630080184114196 -0.00017110374655544006 -0.0030208762771159105" pbc="T T T"
Ni       0.06010537       0.00106825       0.11593628        1       1.00000000       0.09429719      -0.01638724      -0.09238796
Ni       2.54180206       0.00502732       0.17012827        2       1.00000000      -0.02682361       0.02384620      -0.07401246
Pt       5.09811720      -0.06516037       0.08170319        1       0.00000000      -0.12109504       0.18871613      -0.97961973
Pt       7.82227892      -0.15668067       0.14203308        1       0.00000000      -0.03650957      -0.08318473      -0.83332366
Ni       1.29739202       2.24564891       0.05673222        1       1.00000000      -0.01589654       0.03562091       0.43745938
Pt       3.78184564       2.29016068       0.05204595        1       0.00000000       0.07398442      -0.07449638       0.20643909
Pt       6.44397251       2.28286345       0.12672515        1       0.00000000       0.04954272       0.05160482      -0.78106861
Pt       9.16854390       2.23671141       0.12955160        1       0.00000000      -0.11750749       0.12085844      -0.53908284
Ni       2.57578682       4.49363738       0.00000000        0       1.00000000       0.05906774       0.00351680       0.33665487
Ni       5.11454755       4.50039137       0.06616136        1       1.00000000      -0.03566157       0.08609923       0.37362945
Pt       7.80194463       4.52236926       0.06402962        1       0.00000000       0.03440503       0.04725578       0.07367436
Ni      10.40248239       4.46157952       0.05034569        1       1.00000000      -0.00926482      -0.03479743       0.29782753
Ni       3.85141801       6.64003011       0.13791145        1       1.00000000      -0.02708315      -0.06975355       0.11120939
Pt       6.41132108       6.74424913       0.12957030        1       0.00000000       0.01744819       0.02821730      -0.20323492
Ni       9.04049194       6.66274329       0.13512512        1       1.00000000      -0.14584336      -0.00402637      -0.33612006
Ni      11.64341913       6.61173465       0.04284265        0       1.00000000       0.07645683       0.05653720       0.19744988
Ni       1.34883404       0.72871566       2.16716969        4       1.00000000       0.07001934       0.00140470       0.11543737
Ni       3.82945991       0.75909821       2.18854698        4       1.00000000      -0.04715497       0.02317159       0.20423852
Pt       6.42455036       0.78029104       2.25517952        5       0.00000000      -0.00158900       0.13152078       0.31604534
Pt       9.20311787       0.69617009       2.23937436        4       0.00000000       0.11377189      -0.06852556       0.25543275
Ni       2.59307928       2.96196208       2.18364757        4       1.00000000       0.02936338      -0.05072140       0.09247715
Ni       5.10845293       3.03413462       2.22475862        4       1.00000000      -0.11820514       0.10086552       0.12628393
Ni       7.79711874       3.03051383       2.22144506        4       1.00000000       0.02162424       0.06319096       0.21121840
Ni      10.39752826       2.95069588       2.25024188        5       1.00000000       0.10165272      -0.03560378       0.16150833
Ni       3.91892838       5.19906228       2.18326314        4       1.00000000       0.10025774      -0.06162064       0.10923859
Ni       6.44041264       5.22201090       2.21066439        4       1.00000000      -0.06203218      -0.03120521       0.16125937
Ni       9.01471771       5.14332247       2.22698739        4       1.00000000      -0.06590593      -0.09904694       0.16285517
Pt      11.71597711       5.11393144       2.13808920        3       0.00000000       0.05318060      -0.07434041       0.03668741
Ni       5.18790722       7.39811273       2.19560030        4       1.00000000      -0.00207181      -0.05246177       0.24163917
Ni       7.68838671       7.43562267       2.19958997        4       1.00000000      -0.03565437       0.00157302       0.24799453
Pt      10.28976158       7.34576628       2.15232811        4       0.00000000       0.05153373      -0.16872961       0.13634477
Ni      12.98284569       7.33766884       2.21000164        4       1.00000000       0.11897255      -0.11029657       0.23197943
Ni       0.05449751       1.48436209       4.33113071        6       1.00000000       0.03309843      -0.12246261      -0.19095252
Pt       2.60230067       1.49654015       4.29717327        6       0.00000000      -0.02665321      -0.04168607      -0.04209149
Ni       5.14968103       1.51988459       4.35553482        7       1.00000000      -0.07366442       0.07141721      -0.29031212
Pt       7.82637498       1.52941258       4.34939865        6       0.00000000       0.02840479      -0.07475165      -0.29815261
Pt       1.31205873       3.70211934       4.38981577        7       0.00000000      -0.03457028      -0.02000097      -0.06212507
Ni       3.89578749       3.74978668       4.35641040        7       1.00000000       0.01654998       0.06890610      -0.15649198
Pt       6.42901293       3.79643268       4.28415465        6       0.00000000      -0.05357148       0.15201290      -0.17622326
Ni       9.05421392       3.71724935       4.32867279        6       1.00000000      -0.07353592       0.04124150      -0.27865109
Ni       2.62997402       5.89523376       4.32980476        6       1.00000000       0.09415881      -0.09175080      -0.17722667
Ni       5.16149139       5.91631284       4.28923876        6       1.00000000      -0.01185767      -0.04919178      -0.28975160
Ni       7.73298116       5.92245555       4.30215135        6       1.00000000      -0.08291259       0.02589995      -0.37954129
Pt      10.31738738       5.84651858       4.38570913        7       0.00000000      -0.02059338       0.00745369      -0.09058709
Pt       3.96700030       8.09750163       4.28703760        6       0.00000000       0.14058754      -0.02739877      -0.08048151
Ni       6.45756315       8.15383530       4.29323112        6       1.00000000      -0.01825076      -0.04005900      -0.27882843
Pt       8.95791313       8.15338624       4.29387171        6       0.00000000      -0.09370103      -0.09103614      -0.16970345
Pt      11.67378223       8.09611240       4.33869351        6       0.00000000       0.02321210      -0.16163927      -0.22268625
Pt       0.04576325       0.01905816       6.55966282       10       0.00000000       0.02905095       0.03551084       0.08805260
Pt       2.60812912       0.05030406       6.62213730       10       0.00000000       0.01681833      -0.12424526       0.06307370
Pt       5.18828954      -0.01758863       6.47167002        9       0.00000000      -0.09575161       0.20976018       0.93851905
Pt       7.79741174      -0.06962495       6.53762913        9       0.00000000       0.09252868       0.18706992       0.99798992
Ni       1.34840811       2.28377362       6.54002101        9       1.00000000      -0.00899190      -0.02758493      -0.18323935
Ni       3.86347407       2.29565616       6.45433102        9       1.00000000       0.00998161       0.05530890      -0.07853066
Pt       6.42540441       2.31022138       6.49641278        9       0.00000000       0.00466138      -0.13829051       0.68058884
Pt       9.16621095       2.32454030       6.49214568        9       0.00000000       0.02033079      -0.01122612       0.60457129
Ni       2.57969168       4.41285397       6.52658114        9       1.00000000       0.07600830      -0.03613908      -0.33877064
Ni       5.13406264       4.42414600       6.52153550        9       1.00000000      -0.16426413       0.01690338      -0.32862044
Ni       7.78130710       4.44140545       6.45822423        9       1.00000000       0.07909912       0.06073576      -0.09240864
Ni      10.43910245       4.44128547       6.58050787       10       1.00000000       0.03379041       0.00586803      -0.13720698
Pt       3.82191416       6.55518427       6.56387509       10       0.00000000       0.04494106       0.01211885      -0.19612491
Pt       6.46048678       6.59850069       6.43072923        8       0.00000000      -0.00035600       0.09953025       0.18572511
Pt       9.09661043       6.57938456       6.62717760       10       0.00000000      -0.19892817       0.10167697       0.14030045
Ni      11.65879455       6.58836465       6.56843024       10       1.00000000       0.01710050      -0.02275325      -0.16624684
