64
Lattice="10.243648575621783 0.00015523016029878883 -0.026631078272061837 5.121958721073148 8.844744044496528 -0.032727992626123734 0.0 0.0 21.577997545379475" Properties=species:S:1:pos:R:3:tags:I:1:initial_magmoms:R:1:forces:R:3 unique_id=643a11e4dff04a218804b1b1eee03739 energy=-372.8980958752803 stress="0.004944043391266901 -3.4605726907866146e-05 -0.00011134404987417961 -3.4605726907866146e-05 0.004805528746088181 -3.5934138240964986e-05 -0.00011134404987417961 -3.5934138240964986e-05 -0.002417540449362666" pbc="T T T"
Ni       0.00370008       0.01997870       0.19038932        2       1.00000000       0.10450474       0.02582478      -0.34943431
Ni       2.55780057       0.00082964       0.21051523        2       1.00000000       0.00786124       0.02757115      -0.26487192
Ni       5.12035682      -0.02019485       0.06691118        1       1.00000000      -0.01534149       0.12695240       0.12147835
Ni       7.68139797      -0.01555254       0.12902389        1       1.00000000      -0.06639085       0.08036760      -0.44112843
Ni       1.24342530       2.21961970       0.18910609        2       1.00000000      -0.05233850       0.05918976      -0.00328709
Pt       3.79021430       2.21911264       0.17098418        2       0.00000000      -0.00573717       0.00482499      -0.54599978
Pt       6.45015982       2.21531415       0.08037303        1       0.00000000       0.03246856      -0.03346124       0.01940898
Ni       8.99706573       2.24533671       0.12314540        1       1.00000000       0.01768626       0.18265060      -0.12992590
Ni       2.55037836       4.44554311       0.06205507        1       1.00000000      -0.01774791      -0.02979811       0.24094143
Ni       5.09108468       4.43746675       0.05652132        1       1.00000000      -0.10641119      -0.04400517       0.10932629
Ni       7.72936066       4.41856170       0.05594960        1       1.00000000       0.17680462       0.01709527       0.18166185
Ni      10.22908621       4.41021145       0.04695977        0       1.00000000      -0.07040306      -0.03965421       0.30100479
Ni       3.82578729       6.61420086       0.04803508        0       1.00000000       0.07016342      -0.06374260       0.08555160
Pt       6.39523207       6.66046597       0.02307401        0       0.00000000       0.03686833       0.17190185      -0.28106142
Ni       8.96432426       6.61382797       0.11533597        1       1.00000000      -0.14395502      -0.18342965      -0.32821602
Ni      11.52015509       6.61909015       0.00000000        0       1.00000000      -0.05946101      -0.09293102       0.07501700
Ni       1.29276565       0.75521482       2.15393974        4       1.00000000       0.04995756       0.09400158       0.05925889
Ni       3.83488976       0.74327717       2.19789413        4       1.00000000       0.09288374      -0.00392913       0.14396256
Ni       6.37161455       0.77177963       2.22086452        4       1.00000000      -0.06678400       0.12611853       0.27083073
Pt       8.98448465       0.81609045       2.16402781        4       0.00000000      -0.05453769       0.01738562       0.16173959
Ni       2.54872119       2.94986533       2.19947813        4       1.00000000       0.01101484       0.05795387       0.04543770
Ni       5.10068969       2.92754833       2.22788956        4       1.00000000      -0.06039370      -0.07763292       0.21676790
Ni       7.70912201       2.95721629       2.19263921        4       1.00000000       0.08627111       0.04865254       0.18639864
Ni      10.23384748       2.94987801       2.17839063        4       1.00000000       0.00079515       0.01961018       0.22142608
Ni       3.84021196       5.10513170       2.15797272        4       1.00000000       0.04076113      -0.18971425      -0.04786686
Pt       6.42082392       5.12540434       2.16331771        4       0.00000000       0.00001880      -0.04549945      -0.09406646
Ni       8.95446658       5.11345785       2.17322540        4       1.00000000       0.02691687      -0.13054633       0.12218045
Pt      11.50660350       5.06589236       2.16976306        4       0.00000000      -0.03108384      -0.02516765       0.07311068
Ni       5.12618375       7.37058804       2.14569183        3       1.00000000      -0.02127906      -0.06025482       0.05385647
Ni       7.67110044       7.38264126       2.14837191        3       1.00000000      -0.00015582      -0.02596665       0.10945246
Pt      10.20506352       7.38046878       2.10244730        3       0.00000000      -0.02479848      -0.00460374       0.04401540
Pt      12.81965764       7.33544689       2.10094830        3       0.00000000       0.08902409      -0.07646728       0.02795182
Ni      -0.03359634       1.53130022       4.33448007        6       1.00000000      -0.01749395       0.17152610      -0.09800303
Pt       2.54773410       1.55428321       4.22781750        5       0.00000000      -0.05644869       0.04657751      -0.01635232
Ni       5.16268770       1.44923832       4.30651825        6       1.00000000       0.07026025      -0.09560626      -0.25296952
Ni       7.65444510       1.46763308       4.31249929        6       1.00000000       0.06209871      -0.05189756      -0.22302411
Ni       1.24414361       3.72677897       4.35014282        7       1.00000000      -0.07580194      -0.00560641      -0.03036883
Ni       3.80073708       3.70529841       4.30622975        6       1.00000000      -0.13647391      -0.01981155      -0.27810123
Pt       6.42920248       3.61029056       4.35129551        7       0.00000000       0.00883576      -0.01931368      -0.02200879
Ni       8.99128479       3.70369065       4.29424898        6       1.00000000       0.13770224       0.02652563      -0.20300636
Ni       2.49451798       5.84584793       4.38697769        7       1.00000000      -0.15301329      -0.04025507      -0.05202146
Pt       5.04783033       5.82952480       4.36461909        7       0.00000000      -0.08747896      -0.00776153      -0.13344498
Ni       7.71898692       5.84028847       4.32336253        6       1.00000000       0.14905102      -0.07582840      -0.20063919
Ni      10.26269478       5.83249230       4.33208435        6       1.00000000       0.00712494      -0.05229082      -0.13886797
Pt       3.75924111       8.10908331       4.32269494        6       0.00000000      -0.03673931       0.03757596       0.09003974
Pt       6.40186434       8.08424161       4.23350520        5       0.00000000      -0.00517982       0.05989283      -0.11074971
Pt       9.02735160       8.08403597       4.29536309        6       0.00000000       0.00444097       0.02549423      -0.02952924
Ni      11.50051158       8.08932807       4.31141912        6       1.00000000       0.01593396      -0.08375523      -0.18653925
Pt      -0.03623701      -0.07185121       6.57300024       10       0.00000000      -0.07346287       0.14423551       0.41252244
Pt       2.59115974      -0.03519405       6.57799755       10       0.00000000       0.04414454       0.05908513       0.44740570
Ni       5.12339357      -0.02392356       6.48036318        9       1.00000000      -0.09435694       0.02175423      -0.02006721
Pt       7.55240173      -0.04942462       6.51988979        9       0.00000000       0.02728429       0.09488458       0.31106278
Pt       1.26752887       2.30585128       6.51420346        9       0.00000000       0.02200665      -0.07893498       0.15692243
Pt       3.92622360       2.27377272       6.41928829        8       0.00000000       0.04477940       0.10598536       0.49748285
Ni       6.38566154       2.20970747       6.40785315        8       1.00000000      -0.02840525      -0.01214478       0.31390682
Pt       8.88299157       2.28953868       6.45571574        9       0.00000000       0.03566127      -0.11516595       0.03153821
Ni       2.55015759       4.48449530       6.45686929        9       1.00000000       0.09414175      -0.01886757      -0.31906398
Ni       5.11905285       4.44435504       6.49281033        9       1.00000000       0.03433967      -0.02289383      -0.03989305
Ni       7.63502680       4.42713943       6.46724537        9       1.00000000      -0.10325642       0.04538559      -0.10571684
Ni      10.25832463       4.44218833       6.43694140        8       1.00000000       0.07763788      -0.04578107      -0.25747731
Ni       3.79571265       6.55419357       6.48622369        9       1.00000000      -0.08566347       0.02673844      -0.09804890
Ni       6.38304645       6.55816789       6.39179898        8       1.00000000       0.15061922       0.01909839       0.32938659
Pt       8.99956580       6.51844433       6.48627673        9       0.00000000      -0.10839064      -0.01488070       0.09809128
Ni      11.52712653       6.57277524       6.42984943        8       1.00000000       0.02892123      -0.05726060      -0.25738701
