64
Lattice="10.419800540463969 0.012425055778816481 0.005275538127042136 5.22066068417994 8.982663189530388 -0.01955716842441111 0.00430745884328395 -0.020925587740971353 8.906084609438018" Properties=species:S:1:pos:R:3:tags:I:1:initial_magmoms:R:1:forces:R:3 unique_id=3504e3dea4454029ab017640b9cfb780 stress="0.0004607158999127836 -4.3071216395184156e-07 -1.3721407966357168e-05 -4.3071216395184156e-07 0.0004562428781987246 7.631488112137367e-06 -1.3721407966357168e-05 7.631488112137367e-06 0.0004224641970935056" energy=-402.8850105704014 pbc="T T T"
Ni      -0.03697381       0.00364299       0.17241577        4       1.00000000      -0.25807458      -0.03517022       0.21299188
Ni       2.62941318      -0.00994243       0.16618223        4       1.00000000       0.23431620      -0.13115341       0.23626160
Ni       5.21257127      -0.01660668       0.16098435        4       1.00000000      -0.01334730       0.07339054       0.23146279
Ni       7.83822634      -0.02889765       0.10919857        4       1.00000000       0.05784591      -0.15414781       0.21643552
Ni       1.29951660       2.25623173       0.14596907        4       1.00000000       0.02130869       0.05890857       0.17612406
Pt       3.85773636       2.24984789       0.18859891        4       0.00000000      -0.07797517       0.03507760       0.14477206
Pt       6.52031915       2.17459535       0.14670883        4       0.00000000       0.04105407      -0.11996639       0.16586477
Ni       9.13844753       2.22068751       0.14251478        4       1.00000000      -0.04472679      -0.19391716       0.18082280
Ni       2.59911080       4.50580551       0.05587710        4       1.00000000      -0.01718429       0.03962212       0.02441849
Ni       5.20645606       4.49742404       0.14679937        4       1.00000000       0.15732000      -0.09678819       0.25418142
Pt       7.89210057       4.52273374       0.06303000        4       0.00000000       0.12826989      -0.03884736      -0.12047065
Ni      10.45359760       4.51814081       0.04292103        4       1.00000000       0.10963333       0.10569356      -0.03998148
Ni       3.88754944       6.75724854       0.15321096        4       1.00000000      -0.07672222       0.11499706       0.24378740
Pt       6.50248722       6.78671010       0.18788518        4       0.00000000      -0.05571754       0.04722260       0.12803768
Ni       9.15193728       6.75555771       0.06359516        4       1.00000000       0.02589175       0.01774368       0.02878204
Ni      11.74363511       6.75407944       0.04945135        4       1.00000000       0.10330809       0.08010353      -0.03722727
Pt       1.32251993       0.70097887       2.14241551        3       0.00000000      -0.01696225      -0.02042034       0.00466649
Ni       3.93799433       0.75466148       2.23275965        3       1.00000000       0.14487553       0.02561950       0.04729594
Ni       6.51843507       0.73201697       2.25733133        3       1.00000000       0.03214422      -0.02910555       0.10644521
Ni       9.08341559       0.71135088       2.19545641        3       1.00000000      -0.13129456      -0.07579097      -0.09575213
Ni       2.62627316       3.00189201       2.23442542        3       1.00000000      -0.01716417       0.13867725       0.05380321
Ni       5.19454324       2.97139113       2.26446954        3       1.00000000      -0.03160728      -0.13277622       0.11489615
Pt       7.81515739       2.97201887       2.28380252        3       0.00000000       0.01138475      -0.07250035      -0.12950790
Pt      10.41441607       3.01991970       2.16381724        3       0.00000000       0.03578686       0.16400585       0.00046688
Pt       3.93655437       5.22234118       2.17403265        3       0.00000000      -0.01819348      -0.06799868      -0.03500241
Ni       6.54178927       5.24989574       2.23501703        3       1.00000000       0.13753363       0.00123205       0.01059617
Ni       9.10210426       5.27126010       2.25861217        3       1.00000000      -0.03986868       0.07207026       0.14609966
Pt      11.73831305       5.28254179       2.17859963        3       0.00000000      -0.00428268       0.11723861      -0.04585806
Ni       5.18786722       7.48906195       2.19597201        3       1.00000000      -0.15607695       0.00231605      -0.04063179
Ni       7.84471491       7.45318911       2.21599865        3       1.00000000       0.08241146      -0.15890954       0.02920186
Pt      10.40657470       7.51243249       2.13404716        3       0.00000000      -0.00374216      -0.04450183      -0.04927245
Ni      13.04888720       7.52601015       2.17947152        3       1.00000000      -0.04322562       0.07015092      -0.14507981
Pt      -0.05940842       1.53810504       4.37569045        2       0.00000000      -0.05357885       0.10620925       0.00558152
Pt       2.67257806       1.53818368       4.32114751        2       0.00000000       0.07836738       0.07276605      -0.02226749
Ni       5.23499734       1.49788375       4.37452151        2       1.00000000       0.04368297      -0.04088590      -0.23587992
Ni       7.80075312       1.48834689       4.39948890        2       1.00000000      -0.04956140      -0.05925623      -0.13382399
Pt       1.31144446       3.84268884       4.44915354        2       0.00000000      -0.00907748       0.03832900      -0.03813817
Ni       3.91725262       3.74663753       4.39327086        2       1.00000000       0.01353225       0.00769558      -0.15070629
Pt       6.54068841       3.72636169       4.37743920        2       0.00000000      -0.08930180      -0.02963171       0.10626257
Ni       9.11745004       3.80570257       4.43991560        2       1.00000000       0.06329380       0.18807330      -0.10307187
Ni       2.59167038       5.96783600       4.43150819        2       1.00000000      -0.01889892       0.07850001      -0.11005858
Pt       5.19493433       5.94059342       4.34195260        2       0.00000000      -0.00663129       0.03890803       0.05487779
Ni       7.88704026       5.93463509       4.39582955        2       1.00000000       0.10413925      -0.10132623      -0.19832817
Ni      10.40303472       5.96749611       4.45986891        2       1.00000000      -0.05889198       0.02206621      -0.06669050
Pt       3.87185797       8.22187333       4.32135458        2       0.00000000       0.01907334       0.01795072      -0.11489488
Pt       6.54129025       8.18614329       4.32831147        2       0.00000000       0.01420019      -0.06105718       0.03667596
Pt       9.14837146       8.15801593       4.37275269        2       0.00000000      -0.05944477      -0.00756368       0.02770770
Pt      11.74558623       8.21998146       4.38484544        2       0.00000000      -0.02164926      -0.05310331      -0.08826623
Pt      -0.05002426      -0.01895919       6.68644263        1       0.00000000      -0.04918769       0.01401024       0.11241421
Pt       2.63370781      -0.03913124       6.68214188        1       0.00000000      -0.02043704       0.00372485       0.07493778
Pt       5.26618312      -0.10997101       6.67374654        1       0.00000000       0.04530919      -0.28828341       0.15657147
Ni       7.80807284      -0.01444303       6.62265177        1       1.00000000       0.03400634       0.02512274      -0.15495132
Pt       1.29323551       2.32793625       6.68016068        1       0.00000000      -0.00928410       0.12527117       0.11046306
Pt       3.91284862       2.26562196       6.55175903        1       0.00000000      -0.04221702      -0.06313767      -0.19171783
Pt       6.54601555       2.19930148       6.53585711        1       0.00000000      -0.00444888      -0.07449666      -0.24076945
Pt       9.09952859       2.32214882       6.63462604        1       0.00000000       0.03856015       0.18813025       0.07473485
Ni       2.56998110       4.51538019       6.60190868        1       1.00000000      -0.11852978       0.09821713      -0.13912397
Pt       5.19997743       4.48603385       6.63935860        1       0.00000000      -0.04742872       0.03100827       0.10801587
Ni       7.87626132       4.50599597       6.51393097        1       1.00000000       0.12662954       0.07676701      -0.30628789
Ni      10.41212745       4.55998773       6.59545816        1       1.00000000      -0.07408744       0.24277603      -0.19289978
Pt       3.78228243       6.71088331       6.64769870        1       0.00000000      -0.16570151       0.06590281       0.16652261
Pt       6.59844080       6.66301917       6.56139285        1       0.00000000       0.08103076       0.01086173      -0.13033413
Ni       9.16815461       6.65972838       6.58993370        1       1.00000000       0.09568711      -0.19857540      -0.20743408
Ni      11.70506653       6.67831826       6.59935338        1       1.00000000      -0.17607300      -0.26704871      -0.22775100
