64
Lattice="10.223474411667045 -0.021884485997664946 0.04784779355218481 5.092784685010781 8.746366269973803 -0.019292574700387817 0.03906755984029482 -0.0407448800532992 8.72803197537128" Properties=species:S:1:pos:R:3:tags:I:1:initial_magmoms:R:1:forces:R:3 unique_id=06c34412970547cab1cd3405eb3a345b stress="-0.007305974145923683 3.901784515359074e-06 -2.5529773687635397e-05 3.901784515359074e-06 -0.007229494425251726 -8.452758280824819e-06 -2.5529773687635397e-05 -8.452758280824819e-06 -0.006237585451161737" energy=-392.69352001054295 pbc="T T T"
Ni       0.04779032      -0.05484243       0.19885807        4       1.00000000       0.07397548      -0.07327630       0.14377791
Ni       2.50168171      -0.04462113       0.24401984        4       1.00000000       0.00658394      -0.04477785       0.22655781
Pt       5.10910399      -0.05425301       0.17558293        4       0.00000000       0.03070740       0.07474380      -0.24300381
Ni       7.69907490      -0.07413077       0.24216565        4       1.00000000       0.02105899      -0.00585414       0.16543426
Ni       1.27851180       2.19245200       0.11979721        4       1.00000000       0.03041743       0.02393095       0.14692836
Pt       3.75694884       2.24319791       0.20204697        4       0.00000000       0.04765086       0.02360030      -0.08823476
Pt       6.40703910       2.25904040       0.12607108        4       0.00000000       0.01526635       0.09370998      -0.10120960
Pt       9.02114951       2.22065234       0.16014087        4       0.00000000       0.07883984       0.07140136      -0.15812140
Ni       2.54801012       4.41455997       0.05586492        4       1.00000000       0.08496365       0.07300458      -0.06178918
Ni       5.10789507       4.45322484       0.11711406        4       1.00000000       0.01711033       0.11250626       0.07819841
Ni       7.66020544       4.43731619       0.13422637        4       1.00000000       0.01824666       0.07611188       0.08614894
Ni      10.24160075       4.39672690       0.10818271        4       1.00000000       0.05716371       0.10295098       0.02366168
Ni       3.84050997       6.54269545       0.09765410        4       1.00000000       0.09026011      -0.00131439       0.03679320
Ni       6.37017520       6.54144415       0.11947544        4       1.00000000      -0.00139006      -0.01273944      -0.00970247
Ni       8.88082803       6.49001917       0.18401217        4       1.00000000      -0.12870617      -0.04054207       0.07717611
Ni      11.53820684       6.49958654       0.09203410        4       1.00000000       0.11981548      -0.01032654      -0.06360031
Ni       1.29456886       0.70706295       2.18100391        3       1.00000000      -0.01756823      -0.00534331       0.13637848
Ni       3.81677059       0.73017518       2.22718931        3       1.00000000      -0.00031683      -0.02306806       0.06054223
Ni       6.39591696       0.75971104       2.25848424        3       1.00000000      -0.03169135       0.08607319       0.02349396
Pt       8.97310555       0.70144274       2.26209244        3       0.00000000      -0.01101911      -0.03628870       0.11669303
Ni       2.54986790       2.91129799       2.22860410        3       1.00000000       0.02027227      -0.01185264       0.07268416
Ni       5.10170030       2.93807910       2.25432229        3       1.00000000      -0.04209858       0.05798737      -0.00816751
Ni       7.67707388       2.94386381       2.25694718        3       1.00000000       0.02771738       0.00285678      -0.02758444
Ni      10.24675589       2.89004826       2.28907273        3       1.00000000       0.04476035      -0.01171214       0.08755531
Ni       3.88250480       5.08650840       2.18998196        3       1.00000000       0.07410917      -0.00912955       0.02683949
Ni       6.38472160       5.10279950       2.17740161        3       1.00000000      -0.00994286      -0.03566983      -0.00846575
Ni       8.88614553       5.02817794       2.21947871        3       1.00000000      -0.02537174      -0.08579676       0.05461938
Pt      11.54956468       5.00419209       2.23765160        3       0.00000000       0.04038050      -0.01490384       0.02239580
Ni       5.14833554       7.21452475       2.15071839        3       1.00000000      -0.00475834      -0.09221074       0.03193874
Ni       7.58210170       7.23512903       2.16857370        3       1.00000000      -0.07588272      -0.11350121       0.07807490
Pt      10.18202151       7.18729482       2.18591823        3       0.00000000      -0.00885859      -0.14217986       0.07182462
Ni      12.82216966       7.20807904       2.16528708        3       1.00000000       0.10326913      -0.12557042       0.02162452
Ni       0.01789784       1.48442928       4.29739499        2       1.00000000      -0.01558224      -0.01422030      -0.04254773
Pt       2.50549080       1.50419731       4.25830906        2       0.00000000      -0.03649759      -0.04014525       0.05979094
Ni       5.13528318       1.46376824       4.28664963        2       1.00000000      -0.07443173       0.01401781      -0.15738598
Ni       7.68076462       1.45503121       4.33382263        2       1.00000000      -0.01465524      -0.02822403      -0.07371186
Ni       1.26176945       3.66034362       4.35709673        2       1.00000000      -0.02484353      -0.01553236      -0.00305961
Ni       3.83477422       3.70265950       4.28226574        2       1.00000000      -0.02556780       0.06114015      -0.15832432
Pt       6.39790126       3.64116714       4.32039146        2       0.00000000      -0.01333181      -0.03076979      -0.07079015
Ni       8.98084225       3.65721179       4.29355273        2       1.00000000      -0.02431283       0.06050207      -0.15084070
Ni       2.58284279       5.73726814       4.34645085        2       1.00000000       0.02049057      -0.03217493      -0.08181751
Ni       5.13087045       5.77937321       4.32646862        2       1.00000000       0.05472206      -0.05443980      -0.12720383
Ni       7.64438217       5.77329749       4.30675152        2       1.00000000      -0.01683284      -0.01982743      -0.11560030
Ni      10.23640485       5.71457097       4.36938595        2       1.00000000      -0.03292894      -0.00023081      -0.04466619
Pt       3.90980571       7.91147446       4.27819743        2       0.00000000       0.00837201      -0.03183278       0.05810038
Ni       6.37999467       7.93576108       4.26776968        2       1.00000000      -0.01697458      -0.04564838      -0.08058152
Pt       8.86299478       7.94240554       4.27402184        2       0.00000000      -0.06655016      -0.05942169       0.01060986
Pt      11.54289799       7.94403890       4.27865368        2       0.00000000       0.04722323      -0.06626505      -0.13219313
Pt       0.03913290      -0.07068554       6.52273885        1       0.00000000      -0.08113991       0.01244870       0.14439682
Pt       2.54997583      -0.03836382       6.56397854        1       0.00000000       0.05154570       0.03994628       0.25326659
Pt       5.14396138      -0.01617611       6.41587284        1       0.00000000      -0.09342217       0.09083780       0.04382431
Pt       7.69459448      -0.08743355       6.57847765        1       0.00000000       0.00132256      -0.01514449       0.19384080
Ni       1.29215093       2.23393880       6.44972814        1       1.00000000      -0.02260249       0.06977311       0.00168210
Pt       3.85773372       2.31070032       6.39499177        1       0.00000000       0.02274981       0.12569854       0.02259072
Ni       6.41737351       2.19999920       6.39103728        1       1.00000000      -0.02616274      -0.00441855      -0.12225246
Pt       8.97530632       2.25650904       6.36259341        1       0.00000000      -0.03698355       0.05219448      -0.04242725
Ni       2.54158745       4.40422008       6.42100073        1       1.00000000      -0.03733631       0.05953224      -0.11112170
Ni       5.13926673       4.41202887       6.45980423        1       1.00000000      -0.02185319       0.10166403      -0.02834458
Ni       7.61672776       4.33491051       6.47508034        1       1.00000000      -0.16987186      -0.00166113      -0.01376830
Ni      10.31749877       4.33079331       6.45849201        1       1.00000000       0.09949271       0.00878637      -0.08180109
Ni       3.84293358       6.43619675       6.45037687        1       1.00000000      -0.02870958      -0.07672247      -0.02225319
Ni       6.36641969       6.45790103       6.44553525        1       1.00000000      -0.01417684       0.01322806      -0.12678941
Pt       8.95438066       6.37522102       6.51107147        1       0.00000000      -0.03319807      -0.06569786       0.10444812
Ni      11.54296121       6.43693786       6.47298651        1       1.00000000      -0.02291707      -0.01021214      -0.12453188
