64
Lattice="10.746303527567994 -0.00048437105125701706 0.004282796305065565 5.372732286148749 9.315620976268832 0.012097021239354354 0.003496888539895931 0.009386251460838518 9.400980158425671" Properties=species:S:1:pos:R:3:tags:I:1:initial_magmoms:R:1:forces:R:3 unique_id=a4e4525965744090b0e966f29929e2f9 stress="-7.283037036380502e-05 4.704858799897598e-07 -2.5614431276039345e-06 4.704858799897598e-07 -7.515098001490556e-05 -2.627221316135957e-06 -2.5614431276039345e-06 -2.627221316135957e-06 -2.766110815698164e-05" energy=-429.533180714968 pbc="T T T"
Pt       0.04625908       0.01045628       0.09436067        4       0.00000000       0.14347103       0.07521222       0.12468354
Ni       2.69577802       0.01535663       0.04696276        4       1.00000000       0.03942783       0.08817096       0.19772200
Pt       5.29260959       0.04722738       0.11632385        4       0.00000000      -0.32748034       0.20675985       0.14723944
Pt       8.05160274       0.00423867       0.09657350        4       0.00000000      -0.07013328       0.03455735       0.15737360
Pt       1.41889508       2.29472734       0.11870294        4       0.00000000       0.27595622      -0.12319663       0.07466958
Ni       4.01842236       2.31309580       0.10338388        4       1.00000000      -0.07499189      -0.08805850       0.37007456
Pt       6.67275746       2.32332542       0.10407250        4       0.00000000      -0.11159017      -0.03549500       0.08803824
Pt       9.41280505       2.32567580       0.09941116        4       0.00000000       0.08253941      -0.02767520       0.08754127
Pt       2.70251800       4.60978285       0.12199505        4       0.00000000       0.04849383      -0.15219639       0.12750477
Pt       5.35560320       4.62885600       0.10653060        4       0.00000000      -0.01795071      -0.04897750       0.11802145
Pt       8.05524600       4.66047276       0.09833849        4       0.00000000      -0.01423452       0.00539045       0.07996232
Pt      10.75338877       4.65363539       0.10263746        4       0.00000000       0.04241055      -0.04363040       0.10661160
Pt       4.03380737       6.98098317       0.10498343        4       0.00000000       0.00924591      -0.01963099       0.13728100
Pt       6.73621050       7.01945412       0.10340215        4       0.00000000       0.02766116       0.07029244       0.10785696
Pt       9.38551883       7.02690660       0.10413460        4       0.00000000      -0.01553891       0.10702907       0.07959779
Pt      12.08287355       6.98926428       0.11175915        4       0.00000000      -0.04064874       0.04358758       0.13166459
Pt       1.41808427       0.81212095       2.37922107        3       0.00000000       0.20150779       0.09842925       0.12730507
Ni       4.01971085       0.79900485       2.35302791        3       1.00000000      -0.08584813       0.10808417       0.02251370
Pt       6.66236712       0.79031840       2.40043538        3       0.00000000      -0.16631109       0.04745079       0.18365980
Pt       9.42275487       0.78789201       2.40391951        3       0.00000000       0.12311977       0.05367292       0.16248250
Ni       2.70164421       3.08387472       2.35025054        3       1.00000000       0.05914340      -0.13398736      -0.00498417
Pt       5.29060954       3.04437438       2.37147131        3       0.00000000      -0.29901027      -0.24697508       0.05044699
Pt       8.04937056       3.10025972       2.38023943        3       0.00000000      -0.08406387      -0.02284805       0.03292797
Pt      10.79104103       3.08623562       2.40158765        3       0.00000000       0.12254478      -0.12660803       0.11125078
Pt       4.01660385       5.39314159       2.38545456        3       0.00000000      -0.01006784      -0.11189653       0.15777558
Pt       6.70945677       5.43017125       2.38075826        3       0.00000000      -0.03971933      -0.04855658       0.10784232
Pt       9.40865687       5.44033087       2.38387452        3       0.00000000      -0.00155726       0.01961736       0.09349146
Pt      12.10559802       5.40225196       2.38792019        3       0.00000000       0.00966088      -0.06849573       0.12831183
Pt       5.38207309       7.77251852       2.38349772        3       0.00000000       0.05590774       0.03693379       0.11522103
Pt       8.07833253       7.82794795       2.36875680        3       0.00000000       0.05425627       0.19653078       0.07443056
Pt      10.72768417       7.79958336       2.38304584        3       0.00000000      -0.02439660       0.04994758       0.09270488
Pt      13.42792865       7.76837221       2.39665312        3       0.00000000      -0.01688420       0.03993377       0.15814259
Ni       0.00551373       1.55827341       4.69752151        2       1.00000000       0.05036346       0.00399741      -0.05993661
Pt       2.70555737       1.55226243       4.64730761        2       0.00000000       0.13518264       0.04155454      -0.23677466
Ni       5.36571998       1.55675900       4.68406128        2       1.00000000      -0.06359427       0.00670275      -0.09864917
Pt       8.05762100       1.55664258       4.67509201        2       0.00000000      -0.02905501       0.00156003      -0.13705805
Pt       1.34622315       3.83859484       4.66175431        2       0.00000000       0.07437828      -0.15952164      -0.13246251
Pt       4.03294156       3.83231804       4.65674288        2       0.00000000      -0.02850472      -0.16398239      -0.11127985
Pt       6.69962077       3.84970612       4.67548009        2       0.00000000      -0.07395211      -0.09303699      -0.19484524
Pt       9.42151731       3.85094662       4.67450255        2       0.00000000       0.03384079      -0.06750462      -0.17349329
Pt       2.68851245       6.21063756       4.68514390        2       0.00000000       0.00606800      -0.02807989      -0.07224131
Pt       5.37576104       6.21485434       4.68603724        2       0.00000000       0.01020951      -0.00241222      -0.10681502
Pt       8.06233058       6.21987008       4.68443860        2       0.00000000       0.00421519       0.03408530      -0.17493994
Pt      10.74637017       6.21888250       4.68225636        2       0.00000000      -0.00434763       0.03272174      -0.13228093
Pt       4.04934998       8.57973299       4.68902106        2       0.00000000       0.06108988       0.07153349      -0.08869328
Pt       6.72675619       8.59281000       4.69953913        2       0.00000000       0.06459330       0.14817701      -0.11233441
Pt       9.40113446       8.59973471       4.68357779        2       0.00000000      -0.01251233       0.16398911      -0.17673839
Pt      12.06950877       8.58159167       4.69078463        2       0.00000000      -0.06455541       0.08181221      -0.06589587
Pt       0.04101129       0.01799677       6.94177758        1       0.00000000       0.09070832       0.02743337      -0.07969900
Ni       2.69136918       0.01129032       7.01390213        1       1.00000000       0.01408277       0.03168883      -0.17967957
Pt       5.33290020       0.02003603       6.95245848        1       0.00000000      -0.11160226       0.03158665      -0.04577078
Pt       8.06211510       0.00734504       6.95660877        1       0.00000000      -0.01205469      -0.00420146      -0.07321263
Pt       1.36328788       2.29627679       6.94853147        1       0.00000000       0.07766390      -0.09705566      -0.09859212
Pt       4.01655312       2.29687485       7.01270101        1       0.00000000      -0.07845141      -0.08551394      -0.01600660
Pt       6.70359011       2.32514445       6.94893261        1       0.00000000      -0.06963432      -0.04329327      -0.11719008
Pt       9.41911708       2.32483310       6.94013782        1       0.00000000       0.04960699      -0.03820087      -0.13944084
Pt       2.69069415       4.64905699       6.96500471        1       0.00000000       0.00263435      -0.09844267      -0.09149030
Pt       5.37287390       4.65977517       6.96876877        1       0.00000000      -0.01657239      -0.02358860      -0.10283058
Pt       8.06179056       4.66607126       6.95973489        1       0.00000000      -0.00567738      -0.00260592      -0.15738614
Pt      10.74849653       4.66260481       6.96539892        1       0.00000000       0.01181090      -0.00555361      -0.12780789
Pt       4.03765854       6.99873583       6.96609242        1       0.00000000       0.03271084       0.02070821      -0.09960367
Pt       6.73643762       7.03034144       6.96800157        1       0.00000000       0.04266850       0.09670246      -0.11680859
Pt       9.38692831       7.03031385       6.97140130        1       0.00000000      -0.04567291       0.10924683      -0.13127774
Pt      12.08623992       6.99886204       6.96862813        1       0.00000000      -0.04056019       0.02612143      -0.09813057
