64
Lattice="10.298967436158684 0.019787574994209935 -0.04460064088821206 5.166620260703617 8.811363996862756 -0.11016038502737668 -0.0364162707924105 -0.08283526328309188 8.757218231131297" Properties=species:S:1:pos:R:3:tags:I:1:initial_magmoms:R:1:forces:R:3 unique_id=a5cf438bd1914080a80c6409411cc44e stress="0.00019794210197882078 -6.329776537090571e-07 1.4780980674663096e-06 -6.329776537090571e-07 0.00022808115630672948 3.7865422433293855e-05 1.4780980674663096e-06 3.7865422433293855e-05 0.00021112508717523182" energy=-395.2814756841826 pbc="T T T"
Ni       0.01307336      -0.07145559       0.18254864        4       1.00000000       0.05721761      -0.12710826       0.29344143
Ni       2.53670537      -0.05463731       0.18770591        4       1.00000000      -0.07106563      -0.07300125       0.31492708
Pt       5.14781906      -0.06419153       0.11538076        4       0.00000000      -0.04426618      -0.24647993       0.31898512
Ni       7.73902253      -0.05070277       0.13897801        4       1.00000000      -0.00911809      -0.07637950       0.27271287
Pt       1.27856602       2.19906135       0.07780577        4       0.00000000       0.02826646      -0.03189007      -0.01343493
Pt       3.83371777       2.22196505       0.15122175        4       0.00000000      -0.07856169       0.04451492       0.23753257
Pt       6.46081885       2.22493532       0.05265930        4       0.00000000       0.01296643       0.05472650      -0.01995772
Pt       9.02274125       2.25449882       0.06877429        4       0.00000000      -0.05315463       0.04736857       0.20075553
Ni       2.56700659       4.45469933       0.00941885        4       1.00000000       0.02681590       0.05742578       0.01896864
Pt       5.15142267       4.53045351       0.02538637        4       0.00000000      -0.04971175       0.21084262      -0.11485523
Ni       7.73281644       4.46682383      -0.00857013        4       1.00000000      -0.09481269       0.13621556       0.10127377
Ni      10.31102177       4.46543861      -0.02855145        4       1.00000000       0.01508276       0.11960966       0.04425140
Ni       3.84930301       6.64082055       0.01825083        4       1.00000000      -0.08172283       0.13071998       0.17080954
Ni       6.46131886       6.64779412       0.01751380        4       1.00000000       0.03034062       0.09978132       0.14992514
Ni       8.98576744       6.57989462       0.05093930        4       1.00000000      -0.12172988      -0.03896799       0.25391776
Ni      11.63460034       6.57917391      -0.04110961        4       1.00000000       0.07368529      -0.11375686       0.07404902
Ni       1.30334716       0.69968670       2.22731840        3       1.00000000      -0.00775834      -0.02410097       0.17526138
Ni       3.79073183       0.73202738       2.19862127        3       1.00000000      -0.14837502      -0.08546514      -0.05634049
Ni       6.45834690       0.74289080       2.19617473        3       1.00000000       0.09320513      -0.05822909      -0.02852735
Pt       9.02318006       0.71556876       2.19135783        3       0.00000000       0.10128354       0.12363790      -0.05910299
Ni       2.57883618       2.89817500       2.25459186        3       1.00000000       0.06098809      -0.12446945       0.19851835
Ni       5.13921200       2.96233757       2.18592388        3       1.00000000      -0.06398468       0.23481783      -0.04636627
Ni       7.69603148       2.93056157       2.19434552        3       1.00000000      -0.01213835      -0.08082307       0.06103486
Ni      10.32544321       2.91667482       2.20902326        3       1.00000000       0.08960348      -0.10320454       0.19009533
Ni       3.88672750       5.13301752       2.17504346        3       1.00000000       0.07857214       0.05302203       0.18229576
Ni       6.41405149       5.16053301       2.14186655        3       1.00000000      -0.05195283       0.12698710       0.05442030
Pt       8.94692015       5.08803991       2.13344644        3       0.00000000      -0.02672153      -0.07552959       0.07609238
Pt      11.66583868       5.08047453       2.12585839        3       0.00000000       0.11487523      -0.21129130       0.05961652
Ni       5.18662601       7.28037309       2.09033877        3       1.00000000       0.02386217      -0.14495330       0.00537003
Ni       7.65084457       7.33856703       2.07194553        3       1.00000000      -0.14964833      -0.08980625       0.03875093
Pt      10.34451018       7.32101874       2.13484612        3       0.00000000       0.09351099       0.07632445      -0.11382625
Ni      12.90708765       7.31455224       2.04647255        3       1.00000000       0.08882680      -0.14461574      -0.01622678
Ni       0.03728510       1.45721990       4.31191148        2       1.00000000       0.09204430      -0.01213563      -0.05085797
Ni       2.49568069       1.47027659       4.27443798        2       1.00000000      -0.04815835       0.05991572      -0.07952965
Pt       5.14726127       1.45909718       4.20376502        2       0.00000000      -0.14895003       0.00138796       0.01881232
Ni       7.71475035       1.44894497       4.27723941        2       1.00000000       0.03355876      -0.02019391      -0.05708751
Ni       1.28199653       3.62376255       4.33276225        2       1.00000000       0.04658405      -0.01013743      -0.03584483
Ni       3.80621240       3.70133316       4.25717061        2       1.00000000      -0.03393784       0.12904385      -0.16711205
Pt       6.45543242       3.71036198       4.27334901        2       0.00000000      -0.00567574      -0.01541295      -0.07720762
Ni       9.04020833       3.67070526       4.25034074        2       1.00000000       0.10579701       0.02675856      -0.07654625
Ni       2.56888431       5.78977129       4.32191651        2       1.00000000       0.00595922      -0.09691737      -0.01020259
Ni       5.13996157       5.83149290       4.27320318        2       1.00000000       0.01259371      -0.03309909      -0.14172364
Ni       7.68147364       5.83965920       4.25990534        2       1.00000000      -0.10573791       0.09356116      -0.06587684
Ni      10.33418670       5.79522496       4.28428470        2       1.00000000       0.09890601      -0.07536263       0.03943668
Pt       3.86885130       7.95440551       4.20365564        2       0.00000000       0.00064985      -0.11810422       0.12335047
Ni       6.41528652       8.01802303       4.18752630        2       1.00000000      -0.14001734      -0.03839364      -0.15222529
Pt       8.92190052       8.00642085       4.16190906        2       0.00000000      -0.17248231       0.01350479       0.05482471
Ni      11.61408260       7.99961735       4.19811917        2       1.00000000       0.09464713      -0.10064703      -0.00020334
Pt      -0.01436533      -0.10090186       6.51763787        1       0.00000000       0.11087578      -0.05130198       0.12329688
Pt       2.52464359      -0.04763438       6.50307207        1       0.00000000      -0.08412461       0.06349514       0.19857471
Pt       5.14917171      -0.06432080       6.40448663        1       0.00000000       0.07839929       0.04485646      -0.41448210
Pt       7.70018931      -0.08856565       6.47862603        1       0.00000000      -0.06444848      -0.03410851       0.09559885
Ni       1.26055077       2.20866852       6.35676657        1       1.00000000       0.02028308       0.11062184      -0.25998014
Pt       3.81216500       2.28100266       6.37294412        1       0.00000000       0.01162455       0.26444891      -0.24826941
Ni       6.42446759       2.20545932       6.36631288        1       1.00000000      -0.00945190       0.08696585      -0.25963329
Pt       9.00474659       2.25873101       6.30750852        1       0.00000000       0.04073797       0.12710211      -0.31853313
Ni       2.52898568       4.40380388       6.39503080        1       1.00000000      -0.04527868       0.14130181      -0.24907803
Ni       5.13770307       4.41188673       6.33889622        1       1.00000000      -0.03791706       0.15870155      -0.25376616
Ni       7.66884820       4.36563910       6.40822587        1       1.00000000      -0.14703283      -0.00075472      -0.12749204
Ni      10.34793843       4.36488369       6.36622870        1       1.00000000       0.27838120      -0.01395148      -0.24900190
Ni       3.84723094       6.47381222       6.39954873        1       1.00000000       0.01546579      -0.15634159      -0.11803512
Ni       6.40118446       6.49545991       6.37914530        1       1.00000000      -0.02209147      -0.05007934      -0.19410795
Pt       8.99926528       6.42792457       6.40364122        1       0.00000000       0.03231488      -0.11586101       0.11600603
Ni      11.60695933       6.49381136       6.35323647        1       1.00000000       0.06210177      -0.04478512      -0.18747150
