64
Lattice="10.459550008355851 0.02810178945650195 0.0038137964160045988 5.254111867739057 9.007890260668841 -0.08845322543357977 0.0 0.0 21.735078375875787" Properties=species:S:1:pos:R:3:tags:I:1:initial_magmoms:R:1:forces:R:3 unique_id=d8b9ce96b333476883949fa24cbe9a02 stress="0.005953025071978423 0.00023087253878453933 0.00027201994621987554 0.00023087253878453933 0.005341291079434478 -0.0005491032183291075 0.00027201994621987554 -0.0005491032183291075 -0.0028952440725368445" energy=-381.40612877740534 pbc="T T T"
Ni      -0.06839252      -0.02733293       0.18754421        2       1.00000000      -0.16276879      -0.06563952      -0.18051758
Ni       2.64945760      -0.03753021       0.18509395        2       1.00000000       0.09907639      -0.03404232      -0.27700355
Ni       5.25756084      -0.03209699       0.16862897        2       1.00000000       0.13942405       0.06529892      -0.29491862
Ni       7.87055254      -0.03607502       0.12979420        1       1.00000000      -0.03739968      -0.05110273       0.47465466
Pt       1.28612182       2.26793054       0.11819522        1       0.00000000       0.18680338       0.04889723      -1.04797493
Pt       3.93134870       2.30061974       0.14903661        1       0.00000000       0.01547426       0.13478002      -0.84810084
Pt       6.57524654       2.17923339       0.13073747        1       0.00000000      -0.09432723      -0.13234416      -0.26599292
Ni       9.15174879       2.22388472       0.15334452        2       1.00000000      -0.02270861      -0.13553452      -0.03805924
Ni       2.62683281       4.54311664       0.02358584        0       1.00000000       0.00075064      -0.04612807       0.20345027
Ni       5.25549162       4.51224781       0.12475977        1       1.00000000       0.20624791      -0.04715143      -0.19559244
Pt       7.93248339       4.52645704       0.03657183        0       0.00000000      -0.06986437       0.03884024       0.27132274
Ni      10.48730112       4.56807681       0.02021158        0       1.00000000       0.02171733       0.07538940       0.26149848
Ni       3.90850825       6.77813058       0.11551509        1       1.00000000      -0.02060161       0.10738744      -0.03806951
Pt       6.53400587       6.79716945       0.14886898        1       0.00000000      -0.03542275      -0.02501855      -0.39311022
Ni       9.19485176       6.77028213       0.01561620        0       1.00000000      -0.04283214      -0.05551702       0.32736727
Ni      11.81120500       6.77775119       0.00000000        0       1.00000000       0.10344234       0.05822319       0.37614131
Pt       1.27199276       0.65117791       2.19094093        4       0.00000000      -0.05554335      -0.13930046       0.21554523
Pt       3.99130985       0.75574251       2.24891457        4       0.00000000       0.05508996      -0.06492624       0.24527999
Ni       6.58400974       0.72243979       2.27201762        5       1.00000000       0.09158228      -0.03722018       0.17918425
Ni       9.09354652       0.71020892       2.20670281        4       1.00000000      -0.12243209      -0.00113608       0.06961790
Ni       2.62139443       3.00467487       2.23122077        4       1.00000000      -0.02887798       0.02379884       0.28325569
Ni       5.26290391       2.99965442       2.25623599        5       1.00000000       0.08285613       0.03397911       0.25631441
Pt       7.79560766       3.00073070       2.34069617        5       0.00000000      -0.01367672       0.03390126       0.21879804
Pt      10.39776095       3.05100445       2.21961735        4       0.00000000      -0.21718581       0.11681864       0.14612381
Pt       3.96932743       5.25880731       2.12298332        3       0.00000000       0.06331042      -0.04066993       0.04529314
Ni       6.59003250       5.25000518       2.22074711        4       1.00000000       0.09444060      -0.03230537       0.21283267
Ni       9.13233562       5.28127445       2.24860343        4       1.00000000      -0.09076843       0.00697295       0.16299222
Pt      11.80181260       5.28117484       2.15164969        4       0.00000000       0.04812030      -0.06525594       0.02652143
Ni       5.20389713       7.48732484       2.15364872        4       1.00000000      -0.09212278      -0.00401472       0.16833958
Ni       7.88802380       7.43005451       2.18347906        4       1.00000000       0.08711863      -0.10294680       0.17737556
Pt      10.48590991       7.47171686       2.08852738        3       0.00000000      -0.04721165       0.00435786      -0.00372032
Ni      13.10892967       7.55238937       2.12632683        3       1.00000000      -0.04103610       0.06761405      -0.03906475
Pt      -0.10412022       1.50514074       4.39261193        7       0.00000000      -0.12736081       0.02869750      -0.20278556
Pt       2.63000235       1.47616816       4.38400375        7       0.00000000      -0.09234973      -0.11450854      -0.26376760
Ni       5.29306958       1.47656458       4.39350920        7       1.00000000       0.06116516       0.01341295      -0.32202800
Ni       7.81080151       1.49485969       4.39702167        7       1.00000000      -0.05681190      -0.03993346      -0.23110122
Pt       1.27284413       3.84329900       4.43839790        7       0.00000000      -0.05573310       0.13010559      -0.09434908
Pt       3.97220962       3.71751247       4.34245874        6       0.00000000       0.03513105       0.07622412      -0.16425245
Ni       6.59258257       3.71834174       4.41641552        7       1.00000000       0.01961917       0.02347004      -0.14553945
Ni       9.11426860       3.80147745       4.43939174        7       1.00000000      -0.01962829       0.03190447      -0.14045383
Ni       2.60898696       5.96904375       4.40940549        7       1.00000000       0.07295019       0.02578871      -0.12112757
Pt       5.30737994       5.92151132       4.31874398        6       0.00000000       0.02729017      -0.08792874      -0.16471233
Ni       7.91980935       5.88893291       4.36862881        7       1.00000000       0.03849108      -0.08498439      -0.23362282
Ni      10.44022665       5.96525146       4.43935672        7       1.00000000      -0.03229518       0.05878478      -0.10119377
Pt       3.89881116       8.19959531       4.28024327        6       0.00000000       0.02345798      -0.00954609      -0.11850554
Pt       6.57803829       8.16782732       4.30510322        6       0.00000000      -0.05302859       0.12745729      -0.21409227
Pt       9.19583022       8.12252451       4.36343587        7       0.00000000      -0.00962480       0.00310073      -0.09820676
Pt      11.80464550       8.22167101       4.34521815        6       0.00000000      -0.03974340      -0.03270377      -0.01919465
Pt      -0.05750725      -0.06003511       6.72528799       10       0.00000000       0.12451424       0.09526743       0.13734767
Pt       2.64612971      -0.08429811       6.73507838       10       0.00000000      -0.02104169       0.07253253       0.40969348
Pt       5.29736358      -0.15183817       6.72234644       10       0.00000000      -0.06527655       0.15376905       0.08454369
Ni       7.83769882      -0.03786453       6.64798687        9       1.00000000       0.03509083       0.04471810      -0.26235494
Pt       1.29678582       2.30112106       6.58257099        9       0.00000000      -0.07168238      -0.11781814       1.01767450
Pt       3.93756750       2.22344657       6.57310439        9       0.00000000       0.22566629      -0.15963105       0.81662122
Pt       6.57538465       2.19421487       6.50046187        8       0.00000000      -0.09628101       0.02919662       0.46713906
Pt       9.13267541       2.31385803       6.65972001       10       0.00000000      -0.02676294       0.17270990       0.00364353
Ni       2.58094095       4.49414555       6.60308858        9       1.00000000       0.00471187       0.05207044      -0.16511418
Pt       5.25489515       4.46826630       6.64355438        9       0.00000000       0.11245155       0.00633024       0.19400035
Ni       7.91479308       4.48948221       6.48813904        8       1.00000000      -0.01314279       0.05082224      -0.00525820
Ni      10.44598810       4.56098971       6.58883150        9       1.00000000      -0.08082403      -0.02408399      -0.32692364
Pt       3.80248392       6.68972410       6.63839852        9       0.00000000       0.06909082      -0.08432122      -0.20065918
Pt       6.64472452       6.65016907       6.54755957        8       0.00000000      -0.01637508      -0.06885306       0.42267965
Ni       9.21891174       6.63532385       6.56324290        9       1.00000000      -0.02832659       0.00494926      -0.28872342
Ni      11.75172682       6.65408142       6.57139993        9       1.00000000      -0.04401605      -0.11300468      -0.36916039
