64
Lattice="10.182650719868805 -0.005543580169807337 -0.002783815676349982 5.086524478679491 8.725737275098288 -0.07434606549211989 -0.00227297598167283 -0.06878183945714277 8.677751042574288" Properties=species:S:1:pos:R:3:tags:I:1:initial_magmoms:R:1:forces:R:3 unique_id=47454c860a2e42408f8c96dd22c3e9bd stress="-0.007051720222020247 -4.070416539392737e-06 -8.13299082303527e-06 -4.070416539392737e-06 -0.0069963896255415756 5.364162509730197e-06 -8.13299082303527e-06 5.364162509730197e-06 -0.00604315695881328" energy=-390.89341127846524 pbc="T T T"
Ni       0.04338615      -0.06117760       0.20344592        4       1.00000000       0.06923379      -0.07393255       0.15250417
Ni       2.48337261      -0.04462928       0.22769823        4       1.00000000      -0.02665223      -0.04596489       0.22005303
Pt       5.08111165      -0.05967448       0.14451977        4       0.00000000      -0.01721320       0.05301102      -0.24052368
Ni       7.66253728      -0.07014519       0.19232717        4       1.00000000      -0.00351300      -0.02984546       0.15117165
Ni       1.27009303       2.18358341       0.11063132        4       1.00000000      -0.00231944       0.00302899       0.15486960
Pt       3.73113527       2.23558136       0.16521644        4       0.00000000      -0.00062388       0.00656058      -0.11006120
Pt       6.37618957       2.25394268       0.08591045        4       0.00000000      -0.01927379       0.04045427      -0.09368172
Pt       8.98281565       2.22229245       0.10833100        4       0.00000000       0.04384678       0.04374948      -0.18234963
Ni       2.53847084       4.40299131       0.02661086        4       1.00000000       0.05338792       0.04625297      -0.07343513
Ni       5.08495263       4.44479282       0.07639799        4       1.00000000      -0.01629831       0.07785984       0.06414367
Ni       7.62985325       4.43292400       0.08320527        4       1.00000000      -0.00269498       0.05548065       0.09082521
Ni      10.20142695       4.39580118       0.04050375        4       1.00000000       0.02553628       0.07591225       0.00502475
Ni       3.82831276       6.52403694       0.05752825        4       1.00000000       0.04122760      -0.00538997       0.04963433
Ni       6.34775064       6.52647329       0.06380977        4       1.00000000      -0.02546350      -0.03079496      -0.02502014
Ni       8.85503988       6.48011026       0.12943538        4       1.00000000      -0.09629848      -0.04345571       0.11848760
Ni      11.49491707       6.49075278       0.01396328        4       1.00000000       0.07506044      -0.03599232      -0.05708948
Ni       1.30243016       0.71281029       2.20445787        3       1.00000000      -0.00012814      -0.01813124       0.15563058
Ni       3.77528114       0.74497613       2.21660475        3       1.00000000      -0.00457436      -0.00797835       0.03355549
Ni       6.36086584       0.74415413       2.24010824        3       1.00000000      -0.01679938       0.04273414       0.02272848
Pt       8.92916652       0.70763241       2.20944903        3       0.00000000       0.00216925      -0.03096707       0.13605719
Ni       2.53359005       2.86007918       2.24711471        3       1.00000000       0.01487012      -0.07783522       0.09948105
Ni       5.06804532       2.92243145       2.20486602        3       1.00000000      -0.04491362       0.04474111      -0.03535295
Ni       7.64257724       2.94060072       2.20092766        3       1.00000000       0.02966756       0.00940243      -0.02063281
Ni      10.20994404       2.88440757       2.22611712        3       1.00000000       0.04389039      -0.03249053       0.08150272
Ni       3.86213617       5.06851199       2.14364183        3       1.00000000       0.04577675      -0.01314479       0.03214078
Ni       6.35723675       5.09004314       2.11857638        3       1.00000000      -0.00561924      -0.02854048       0.00553037
Ni       8.85703096       5.03009176       2.15186329        3       1.00000000       0.02767479      -0.03550096       0.07264468
Pt      11.50532385       4.99234743       2.15820926        3       0.00000000       0.04057889      -0.05263463       0.00483538
Ni       5.12564463       7.19421644       2.09663311        3       1.00000000      -0.02051359      -0.07614801       0.04867301
Ni       7.55942657       7.22266401       2.09718445        3       1.00000000      -0.05416938      -0.09703698       0.06709081
Pt      10.18595325       7.20359377       2.14879364        3       0.00000000       0.02039171      -0.10802644       0.09287512
Ni      12.75217190       7.20852049       2.08781736        3       1.00000000       0.06958902      -0.09699197       0.02970414
Ni       0.06223353       1.45770406       4.27021237        2       1.00000000       0.06730729      -0.04739129      -0.01419127
Ni       2.49905919       1.46928415       4.23628086        2       1.00000000      -0.00803782       0.00718238       0.01275626
Ni       5.09113960       1.44171861       4.21680790        2       1.00000000      -0.08953787       0.03769577      -0.15757059
Ni       7.60671244       1.41963518       4.26386742        2       1.00000000      -0.03588030      -0.05105092      -0.05306483
Ni       1.27527774       3.59227907       4.30924932        2       1.00000000       0.01967954      -0.02826798      -0.01160182
Ni       3.78082469       3.65544912       4.21214084        2       1.00000000      -0.01122917       0.08137572      -0.14922824
Pt       6.35471583       3.62494620       4.25317383        2       0.00000000       0.00053037      -0.00776744      -0.07264073
Ni       8.94125150       3.64766585       4.21081275        2       1.00000000       0.01361374       0.07363757      -0.13465530
Ni       2.53704710       5.72819887       4.29257076        2       1.00000000      -0.00255319      -0.04331143      -0.07372644
Ni       5.08965389       5.76126682       4.25411801        2       1.00000000       0.01745172      -0.03778979      -0.12046140
Ni       7.60816080       5.76836981       4.21779492        2       1.00000000      -0.00937409       0.01694968      -0.10430899
Ni      10.20708717       5.72238235       4.27901061        2       1.00000000      -0.00180907       0.00528531      -0.03002001
Pt       3.82097067       7.87623857       4.20113379        2       0.00000000      -0.01591150      -0.00849590       0.05022536
Ni       6.34050482       7.93632395       4.17514973        2       1.00000000      -0.07680749      -0.02321765      -0.05535714
Pt       8.82607997       7.96667650       4.16830970        2       0.00000000      -0.12296257      -0.03558263      -0.00507603
Ni      11.47098362       7.93130439       4.19486511        2       1.00000000       0.03645662      -0.07319221      -0.10963381
Pt       0.01132507      -0.09010342       6.47645723        1       0.00000000      -0.07665568       0.02717522       0.15493715
Pt       2.51612100      -0.03578863       6.48118477        1       0.00000000       0.09036076       0.08430232       0.23828264
Pt       5.11909595      -0.03572018       6.31607181        1       0.00000000      -0.05393368       0.07695435       0.01054443
Pt       7.62959326      -0.09966230       6.46403428        1       0.00000000       0.04093905       0.02290242       0.18846686
Ni       1.27165622       2.20821430       6.36866105        1       1.00000000       0.02012456       0.04984036      -0.03674405
Pt       3.80591241       2.27612356       6.28555611        1       0.00000000       0.01393867       0.08344502      -0.03161035
Ni       6.36283953       2.18446978       6.30886982        1       1.00000000      -0.01811770       0.01484324      -0.11015366
Pt       8.91819594       2.24061933       6.26229464        1       0.00000000      -0.00434747       0.04919655      -0.04870126
Ni       2.51429426       4.37470342       6.34828446        1       1.00000000      -0.00507838       0.06852522      -0.10502575
Ni       5.09342871       4.38291046       6.37891172        1       1.00000000      -0.02101476       0.09416781      -0.02347994
Ni       7.57005826       4.31899105       6.38663151        1       1.00000000      -0.12766617       0.01753216      -0.00368564
Ni      10.26200130       4.31414770       6.34820196        1       1.00000000       0.12401924       0.01554203      -0.09727852
Ni       3.81029298       6.40292993       6.36909966        1       1.00000000      -0.00713143      -0.05384643      -0.01092870
Ni       6.32747481       6.42922878       6.35019387        1       1.00000000       0.00585989       0.01920131      -0.13920915
Pt       8.90522850       6.36015981       6.40003561        1       0.00000000      -0.00345278      -0.02785437       0.12611079
Ni      11.48434085       6.42142971       6.33563760        1       1.00000000      -0.00461308       0.03362839      -0.13398696
