64
Lattice="10.310972428310862 -0.02710505064193802 -0.013583103633077895 5.132012551728647 8.89362996170661 -0.06258803161503564 -0.011090557674795127 -0.05260542564247412 8.798425199736231" Properties=species:S:1:pos:R:3:tags:I:1:initial_magmoms:R:1:forces:R:3 unique_id=18d82c4ccc494763924c73e01b6d1bd5 stress="0.0002626643741992507 3.013154157889287e-06 -1.5126258214710346e-05 3.013154157889287e-06 0.0002694044555710817 2.243806728080051e-05 -1.5126258214710346e-05 2.243806728080051e-05 0.0002563428984005481" energy=-398.3512710642906 pbc="T T T"
Ni       0.01949594       0.02771306       0.20442470        4       1.00000000       0.06609454       0.09658050       0.34731682
Ni       2.56559666      -0.00817452       0.20665919        4       1.00000000      -0.06521762      -0.01441778       0.42594666
Ni       5.12402378      -0.03386808       0.15570581        4       1.00000000      -0.05534990       0.13558062       0.33828796
Pt       7.78570585      -0.09449976       0.07723125        4       0.00000000       0.04592209      -0.07451832      -0.04115236
Ni       1.24315320       2.22158683       0.09724157        4       1.00000000      -0.16747085      -0.00916918       0.25697226
Pt       3.77321389       2.22012492       0.09560413        4       0.00000000      -0.12595728      -0.00694311      -0.13057938
Pt       6.43059931       2.22905993       0.12283422        4       0.00000000      -0.00193887      -0.00669225       0.20413926
Ni       9.06675098       2.19494505       0.15266048        4       1.00000000       0.07101387      -0.06984509       0.27210386
Ni       2.55867813       4.45222117       0.04371093        4       1.00000000       0.05629034      -0.02703699       0.03669090
Ni       5.10354537       4.45475520       0.14986804        4       1.00000000      -0.05856600       0.02694939       0.32472799
Pt       7.80268490       4.45284054       0.07075780        4       0.00000000       0.14905234       0.01677365      -0.08619609
Ni      10.32541938       4.40839382       0.03022506        4       1.00000000       0.10216678      -0.13840088       0.12308307
Ni       3.83334911       6.62746451       0.14544430        4       1.00000000      -0.01576185      -0.23245933       0.32414187
Pt       6.39632714       6.69854011       0.14343593        4       0.00000000      -0.06571642      -0.00791953       0.07901354
Ni       9.01741734       6.66065965       0.01367517        4       1.00000000      -0.03570464       0.02164463       0.02364078
Ni      11.58222931       6.61190596       0.00642062        4       1.00000000       0.05948475      -0.14016643       0.00403981
Ni       1.26516439       0.74745433       2.16450412        3       1.00000000      -0.06068020       0.14770111       0.00543492
Ni       3.82594607       0.73896893       2.18849228        3       1.00000000       0.00012955       0.04329525       0.02403687
Pt       6.45920857       0.76343919       2.27510055        3       0.00000000       0.07461266       0.17548289      -0.10076175
Ni       9.06721910       0.73504312       2.19490593        3       1.00000000       0.06768474       0.12877876       0.03142543
Ni       2.56842336       2.93818775       2.18820012        3       1.00000000      -0.03966409       0.00975721       0.01835784
Ni       5.09835840       2.99015500       2.21168924        3       1.00000000      -0.20939959       0.05356743      -0.03031104
Ni       7.78278724       2.95921558       2.21207344        3       1.00000000       0.21399927       0.01385368      -0.06096844
Ni      10.28379711       2.88950092       2.16440405        3       1.00000000       0.03427321      -0.04602195       0.06675460
Ni       3.88432468       5.17131239       2.17893617        3       1.00000000       0.05489973      -0.02973616       0.13008040
Ni       6.41138764       5.16896232       2.19595404        3       1.00000000      -0.02372347       0.12101142      -0.05908677
Ni       8.98195132       5.12725558       2.19509557        3       1.00000000      -0.01147274      -0.13163227       0.15298765
Pt      11.63016157       5.10140773       2.09836256        3       0.00000000       0.03925214      -0.09731785       0.00918594
Ni       5.10077304       7.38758007       2.14734952        3       1.00000000      -0.11727442      -0.08885726      -0.09390929
Ni       7.69581329       7.38745306       2.14771055        3       1.00000000      -0.01795252      -0.10718169      -0.07111124
Pt      10.24114041       7.35182527       2.05554243        3       0.00000000       0.05023395      -0.11165691      -0.02250998
Ni      12.91057710       7.34215621       2.13218531        3       1.00000000      -0.02037160      -0.13461759      -0.00725774
Ni      -0.03463133       1.48731911       4.31386155        2       1.00000000      -0.00489084       0.03374521      -0.22425006
Pt       2.59536967       1.50515327       4.30033551        2       0.00000000      -0.02478570      -0.01382635      -0.08252884
Ni       5.13330118       1.48303430       4.33173372        2       1.00000000      -0.03231103       0.11215519      -0.07727228
Ni       7.77324381       1.47308096       4.32614223        2       1.00000000       0.21641970       0.11712479      -0.09978020
Pt       1.26837249       3.67157103       4.38313539        2       0.00000000      -0.03055514      -0.07221738      -0.06210495
Ni       3.86017222       3.70613967       4.30994372        2       1.00000000      -0.00143329       0.10509813      -0.23507613
Pt       6.44515996       3.69895601       4.22698781        2       0.00000000      -0.06441396      -0.05550833       0.00831055
Ni       8.99065592       3.64051419       4.30564172        2       1.00000000       0.00557546      -0.07951960      -0.28127702
Ni       2.58538400       5.86687029       4.31700695        2       1.00000000       0.07965721      -0.08441194      -0.17569370
Ni       5.10521481       5.86445540       4.27085672        2       1.00000000      -0.08650535      -0.01583855      -0.16890752
Ni       7.71557747       5.84797614       4.28409488        2       1.00000000      -0.04330858      -0.01409206      -0.26135499
Pt      10.24623523       5.82778652       4.38053151        2       0.00000000      -0.06536572      -0.06189769      -0.09514391
Pt       3.84176974       8.13674227       4.22016574        2       0.00000000      -0.01427996       0.00188748      -0.00147340
Pt       6.39348231       8.09519516       4.18325644        2       0.00000000      -0.00263022      -0.03314617       0.00486293
Pt       8.97717017       8.10486862       4.26205089        2       0.00000000      -0.02099335       0.04479801       0.09342718
Pt      11.60706297       8.10232845       4.32073374        2       0.00000000       0.02215796      -0.10822391       0.05549779
Pt      -0.02108036       0.01125931       6.57906111        1       0.00000000      -0.02467516       0.07133306       0.15368165
Pt       2.58796408       0.01537064       6.61101241        1       0.00000000       0.00764960       0.11901899       0.26895496
Pt       5.17969861      -0.10539640       6.58968585        1       0.00000000       0.04643987      -0.13842905       0.16210517
Ni       7.73152435      -0.05353618       6.45527019        1       1.00000000       0.09921859       0.13917878      -0.25681217
Ni       1.29568484       2.24624378       6.52412718        1       1.00000000       0.07045926       0.13006072      -0.01971264
Ni       3.82970817       2.21049270       6.43804239        1       1.00000000      -0.02252593       0.04486756      -0.27094993
Pt       6.44539958       2.16359588       6.41046644        1       0.00000000       0.04385448       0.04559705      -0.33795337
Pt       9.05707109       2.25981446       6.48006453        1       0.00000000       0.17607212       0.17814005       0.10699697
Ni       2.51162472       4.39128602       6.50010294        1       1.00000000      -0.13228062      -0.01236293      -0.12804289
Pt       5.06686509       4.36888656       6.49503988        1       0.00000000      -0.10974886      -0.00649042       0.08219243
Ni       7.76441218       4.41870204       6.40546264        1       1.00000000       0.06987787       0.08635332      -0.32034065
Ni      10.30983663       4.41920313       6.50575747        1       1.00000000       0.07477879       0.15154970       0.01007216
Pt       3.73470084       6.61549844       6.49948003        1       0.00000000      -0.13254884       0.05263599       0.14472334
Pt       6.48102525       6.57372022       6.41116265        1       0.00000000      -0.00234164       0.01095987      -0.26995057
Ni       9.02562414       6.56970754       6.48857319        1       1.00000000      -0.01489823      -0.08429042      -0.10370174
Ni      11.55469293       6.56816213       6.48755295        1       1.00000000      -0.07455639      -0.18063511      -0.11302255
