64
Lattice="10.311478587302895 0.0037824655562267284 -0.03490850847434408 5.159015004912077 8.829251284069336 -0.10382441145081871 -0.028502677814588543 -0.08143056514389034 8.77523148764794" Properties=species:S:1:pos:R:3:tags:I:1:initial_magmoms:R:1:forces:R:3 unique_id=b34074630e244cb39f299896a6ab1805 stress="0.0001967436372241546 -7.178660794731973e-07 -1.3605201916293082e-06 -7.178660794731973e-07 0.00022583345647252118 3.313999841581951e-05 -1.3605201916293082e-06 3.313999841581951e-05 0.00020493484345324858" energy=-396.32456860247777 pbc="T T T"
Ni       0.01366356      -0.07055082       0.18217767        4       1.00000000       0.06923106      -0.12590954       0.27030496
Ni       2.54088747      -0.05672842       0.18822381        4       1.00000000      -0.07034185      -0.07653739       0.31300498
Pt       5.15436345      -0.07098817       0.12119497        4       0.00000000      -0.04160135      -0.24267254       0.31051805
Ni       7.74786012      -0.06105126       0.14673685        4       1.00000000      -0.00912968      -0.09036878       0.29492281
Pt       1.27780377       2.20451788       0.08082977        4       0.00000000       0.03210259      -0.02998406      -0.01894062
Pt       3.83570608       2.22074791       0.15658419        4       0.00000000      -0.07043525       0.04306584       0.24160729
Pt       6.46518257       2.22249280       0.06008440        4       0.00000000       0.00847401       0.05093433      -0.00724737
Pt       9.03096244       2.24951854       0.07547010        4       0.00000000      -0.04322840       0.07373758       0.15150603
Ni       2.56605817       4.46296140       0.01582288        4       1.00000000       0.02759766       0.05913568       0.02424360
Pt       5.15189590       4.53305505       0.03249212        4       0.00000000      -0.03840041       0.19904062      -0.11167972
Ni       7.73500544       4.46737861       0.00237156        4       1.00000000      -0.09124592       0.14250407       0.10329492
Ni      10.31846905       4.46061342      -0.01774861        4       1.00000000       0.02864815       0.12312558       0.03746242
Ni       3.84588420       6.65154723       0.02496076        4       1.00000000      -0.08133297       0.13104815       0.19694404
Ni       6.45810787       6.65682199       0.02843626        4       1.00000000       0.03712911       0.10732898       0.19599728
Ni       8.98816054       6.58630869       0.06019411        4       1.00000000      -0.11799798      -0.04411922       0.25456284
Ni      11.63795159       6.58281009      -0.02880594        4       1.00000000       0.08222146      -0.11733955       0.07720010
Ni       1.30718830       0.70267658       2.23083186        3       1.00000000       0.00109365      -0.00539105       0.15734228
Ni       3.79742483       0.72743963       2.20578462        3       1.00000000      -0.16020770      -0.08245353      -0.05840854
Ni       6.46511207       0.73501061       2.20498486        3       1.00000000       0.08911058      -0.05295639      -0.02851676
Pt       9.03371836       0.71249762       2.19187010        3       0.00000000       0.10587747       0.16548975      -0.09441673
Ni       2.57659656       2.90319349       2.25883033        3       1.00000000       0.03517411      -0.13724554       0.18698719
Ni       5.14292334       2.95645685       2.19526101        3       1.00000000      -0.05467481       0.21324264      -0.01297875
Ni       7.70783415       2.92509178       2.19900979        3       1.00000000       0.02363989      -0.09308227       0.00803379
Ni      10.33462915       2.91140701       2.22115898        3       1.00000000       0.09907119      -0.09588519       0.17988024
Ni       3.87086669       5.13516086       2.15622572        3       1.00000000       0.00825503       0.00021878       0.06373513
Ni       6.42968222       5.15734445       2.13289375        3       1.00000000       0.00655625       0.07490121       0.00105130
Pt       8.95535389       5.08873105       2.14348739        3       0.00000000      -0.00266011      -0.08206579       0.06053053
Pt      11.67011951       5.07842703       2.13945083        3       0.00000000       0.09451066      -0.20716040       0.06091615
Ni       5.18093803       7.30978223       2.08541241        3       1.00000000       0.02079177      -0.09689526      -0.01245694
Ni       7.65759046       7.35194191       2.08116001        3       1.00000000      -0.14066888      -0.07443013       0.03566595
Pt      10.34728622       7.32653180       2.14807678        3       0.00000000       0.09281323       0.06743337      -0.11254091
Ni      12.90994133       7.31950780       2.06135076        3       1.00000000       0.08620759      -0.12942927      -0.01773852
Ni       0.04089415       1.46903633       4.32064745        2       1.00000000       0.10074935       0.03177561      -0.07453886
Ni       2.50172913       1.46960021       4.28714875        2       1.00000000      -0.05351846       0.06282025      -0.09148833
Pt       5.15005006       1.44562723       4.21701732        2       0.00000000      -0.14622888       0.00117807       0.01835496
Ni       7.72659900       1.44003566       4.29464813        2       1.00000000       0.03778655      -0.03681693      -0.07145592
Ni       1.27905818       3.63211122       4.34314562        2       1.00000000       0.03125888      -0.00700216      -0.03948991
Ni       3.78998743       3.67226243       4.26981865        2       1.00000000      -0.10794951       0.05759006      -0.18680170
Pt       6.50872208       3.65297338       4.29100564        2       0.00000000       0.06085571      -0.03736355      -0.07050126
Ni       9.06023632       3.66603125       4.26856630        2       1.00000000       0.19103321       0.01669891      -0.09796067
Ni       2.53661556       5.80981777       4.33641100        2       1.00000000      -0.01818065      -0.06657920       0.00302402
Pt       5.13999638       5.84260102       4.27742008        2       0.00000000       0.02313653      -0.02232087      -0.09465080
Ni       7.71744747       5.83451869       4.27730992        2       1.00000000      -0.03499140       0.02641704      -0.05626598
Ni      10.33916893       5.79826942       4.30302941        2       1.00000000       0.08923741      -0.08188518       0.03247325
Pt       3.82763872       8.04086274       4.21625290        2       0.00000000      -0.05239252      -0.01931036       0.12954706
Ni       6.42457077       8.06892031       4.20206149        2       1.00000000      -0.15480702       0.07472852      -0.16943430
Pt       8.92792848       8.01696482       4.18039540        2       0.00000000      -0.18708930      -0.01320545       0.05341707
Ni      11.60959537       8.00790507       4.22022900        2       1.00000000       0.03196254      -0.10046861       0.00475403
Pt      -0.00984000      -0.09439922       6.53407423        1       0.00000000       0.09099735      -0.04406228       0.12069401
Pt       2.53390359      -0.05176048       6.51981914        1       0.00000000      -0.09410848       0.05721144       0.19104646
Pt       5.15888408      -0.07111523       6.42510999        1       0.00000000       0.05124332       0.03788425      -0.39793668
Pt       7.70933300      -0.09664272       6.51019007        1       0.00000000      -0.07501224      -0.01447793       0.13661746
Ni       1.26475310       2.21277688       6.37298123        1       1.00000000       0.01277496       0.12119579      -0.25950499
Pt       3.81716641       2.27708901       6.39367538        1       0.00000000      -0.00790993       0.24361350      -0.23336136
Ni       6.43368602       2.19624480       6.39264010        1       1.00000000      -0.01364219       0.05155031      -0.23330344
Pt       9.01833516       2.25183081       6.33020879        1       0.00000000       0.03898193       0.12433827      -0.32827545
Ni       2.52592382       4.40851291       6.41653643        1       1.00000000      -0.06570561       0.14005696      -0.24740737
Ni       5.14584904       4.39780205       6.37670768        1       1.00000000       0.00520299       0.09583390      -0.22502427
Ni       7.68273699       4.36490779       6.43433186        1       1.00000000      -0.12982392      -0.00340287      -0.10720314
Ni      10.35603631       4.36418962       6.39145935        1       1.00000000       0.27926641      -0.01394037      -0.25260637
Ni       3.83326616       6.49975608       6.43766423        1       1.00000000      -0.03799509      -0.13775783      -0.06471772
Ni       6.41667432       6.51544520       6.42607286        1       1.00000000       0.01946342      -0.04013783      -0.08376250
Pt       9.00820325       6.43544355       6.42880398        1       0.00000000       0.04399602      -0.11399006       0.12364499
Ni      11.61352535       6.49720734       6.38047153        1       1.00000000       0.04482852      -0.05745207      -0.17866930
