64
Lattice="10.213460723942177 0.03259485603725214 -0.04728886865526968 5.134958335332041 8.78979954822514 -0.05051884152628788 -0.03861119957296784 -0.025337434094048226 8.71404938802608" Properties=species:S:1:pos:R:3:tags:I:1:initial_magmoms:R:1:forces:R:3 unique_id=fd02d027a6aa4fa783cb4cb8e756c773 stress="-7.053693324470672e-05 -3.212515971120558e-06 2.0733855578267013e-05 -3.212515971120558e-06 -5.7981254917460756e-05 3.816308159540263e-06 2.0733855578267013e-05 3.816308159540263e-06 -2.623113808835481e-05" energy=-391.72991484619854 pbc="T T T"
Ni       0.03715433      -0.04447799       0.18635516        4       1.00000000       0.10635729      -0.07855493       0.37489697
Ni       2.52252762      -0.02766527       0.19222297        4       1.00000000      -0.09181673      -0.10066420       0.30498587
Ni       5.09579582      -0.00564269       0.14693227        4       1.00000000      -0.08453382       0.06567763       0.25273297
Ni       7.65375546      -0.00581368       0.11633683        4       1.00000000       0.02366595       0.06739185       0.24187208
Ni       1.28352682       2.20289065       0.09851145        4       1.00000000      -0.01545787       0.02092836       0.24814029
Pt       3.76698128       2.21640143       0.16051739        4       0.00000000      -0.10547841       0.03048640       0.22876071
Pt       6.38409490       2.23690015       0.06680042        4       0.00000000      -0.01235357       0.11547424      -0.05280037
Pt       9.00502347       2.28146333       0.06502777        4       0.00000000       0.05604826       0.05567736       0.19709143
Ni       2.55738424       4.42492815       0.04101107        4       1.00000000      -0.00496289       0.09402351       0.03908623
Ni       5.11823396       4.46326096       0.06632019        4       1.00000000      -0.01323102       0.11689067       0.15497137
Ni       7.66164531       4.47543970       0.05922633        4       1.00000000      -0.07149645       0.16135659       0.20542268
Ni      10.23731154       4.45317244       0.00819776        4       1.00000000      -0.00847918       0.17469126       0.03366590
Ni       3.87707198       6.56757307       0.03274874        4       1.00000000       0.12716143      -0.06125259       0.01785170
Ni       6.39638911       6.59245484       0.06406351        4       1.00000000      -0.04697925      -0.01765050       0.08804810
Ni       8.91535709       6.58383218       0.09506953        4       1.00000000      -0.24460013      -0.06580029       0.18813585
Ni      11.50724356       6.59806736      -0.02880191        4       1.00000000      -0.05922230      -0.05163578      -0.10280541
Ni       1.30794287       0.73357854       2.19393343        3       1.00000000       0.04655390       0.01060223       0.14911186
Ni       3.76863817       0.74795086       2.17391495        3       1.00000000      -0.14153921      -0.02702937       0.01191183
Ni       6.37122864       0.77479767       2.16240417        3       1.00000000       0.08702278       0.01589848       0.00350538
Pt       8.98036411       0.79390237       2.19217830        3       0.00000000       0.02749946       0.12310980      -0.12350523
Ni       2.54322010       2.89649702       2.23560744        3       1.00000000       0.03956723      -0.10515072       0.18976771
Ni       5.10012058       2.98680324       2.17700788        3       1.00000000      -0.03814635       0.15871753      -0.08836716
Ni       7.65787090       3.00114543       2.18228321        3       1.00000000       0.06607802       0.07261393      -0.02721936
Ni      10.23842431       2.95147609       2.19148088        3       1.00000000       0.02615441      -0.07733802       0.14003325
Ni       3.89192652       5.08549984       2.15624766        3       1.00000000       0.08955036      -0.07709062       0.03612638
Ni       6.39121561       5.15540545       2.11902464        3       1.00000000      -0.00063494       0.05443491      -0.04490947
Ni       8.89078468       5.11023783       2.13915791        3       1.00000000      -0.08444967      -0.04363987       0.07263879
Pt      11.49482438       5.05087718       2.13888611        3       0.00000000       0.03767395      -0.15537584       0.04216196
Ni       5.18815577       7.27653958       2.12660660        3       1.00000000       0.03550756      -0.13180430       0.04310610
Ni       7.60347173       7.30753638       2.10659184        3       1.00000000      -0.10987167      -0.12698925       0.03665717
Pt      10.17723295       7.33202954       2.08301924        3       0.00000000      -0.06931768      -0.10590343       0.05128731
Pt      12.81343335       7.29514193       2.06525248        3       0.00000000       0.13024793      -0.11175149      -0.04235830
Ni       0.04698083       1.49088688       4.30537829        2       1.00000000       0.14469713       0.03191657       0.00308606
Ni       2.47301834       1.49874587       4.26432071        2       1.00000000      -0.02452557       0.03916830      -0.05778481
Pt       5.10199713       1.48234122       4.20331290        2       0.00000000      -0.12459133       0.01522154       0.03389437
Ni       7.65477080       1.48797446       4.26151245        2       1.00000000       0.02017782       0.00748377      -0.10510780
Ni       1.27151895       3.63726930       4.34429634        2       1.00000000       0.04965515      -0.03814729       0.00740613
Ni       3.77955021       3.72535251       4.25848126        2       1.00000000      -0.02681256       0.11295434      -0.18438640
Pt       6.40599772       3.73880834       4.27075966        2       0.00000000      -0.00278872      -0.00746761      -0.08607673
Ni       8.97093636       3.71911599       4.22122075        2       1.00000000       0.09712512       0.11538260      -0.23038385
Ni       2.54630035       5.79494195       4.34762789        2       1.00000000      -0.01982387      -0.07992707      -0.07373941
Ni       5.10813204       5.84288139       4.29378675        2       1.00000000       0.01751396      -0.04688795      -0.16431751
Ni       7.64253968       5.85315448       4.24845540        2       1.00000000      -0.00840643       0.05244217      -0.20229048
Ni      10.23852850       5.80926762       4.28149517        2       1.00000000       0.02720571      -0.07396762      -0.05422662
Pt       3.87068876       7.97839308       4.27747830        2       0.00000000       0.04151232      -0.06087487       0.18630893
Ni       6.38098815       8.02518774       4.22093259        2       1.00000000      -0.05176800      -0.03925130      -0.13638613
Pt       8.87554292       8.01742493       4.20351865        2       0.00000000      -0.09430803      -0.02290334       0.09653319
Ni      11.50401175       8.01683400       4.23736709        2       1.00000000      -0.01280626      -0.12360106      -0.07321822
Pt      -0.01224027      -0.05689862       6.50712783        1       0.00000000       0.11972896      -0.06393021       0.20373923
Pt       2.50445967      -0.00139707       6.48190481        1       0.00000000      -0.09596415       0.02855750       0.18797888
Pt       5.09859363      -0.02099800       6.48347515        1       0.00000000       0.11527554      -0.00867888       0.04267471
Pt       7.62829687      -0.03751302       6.45038712        1       0.00000000      -0.08985454      -0.07124232       0.03236725
Ni       1.25104792       2.24478842       6.41430601        1       1.00000000       0.03720958       0.08425708      -0.16774610
Pt       3.78297626       2.32038116       6.36496796        1       0.00000000       0.03359214       0.24846496      -0.28688219
Ni       6.36993972       2.24547141       6.35126145        1       1.00000000      -0.01785262       0.05023429      -0.26532228
Pt       8.93031586       2.30510141       6.28466150        1       0.00000000       0.01241846       0.13638464      -0.45900459
Ni       2.51252145       4.43331793       6.40200127        1       1.00000000      -0.02362817       0.10777468      -0.20356133
Ni       5.10187897       4.44485681       6.41592930        1       1.00000000      -0.00146958       0.11850171      -0.11755697
Ni       7.60253606       4.40084276       6.41359521        1       1.00000000      -0.15801010      -0.02303696      -0.05027046
Ni      10.27002262       4.39802119       6.36639637        1       1.00000000       0.25972181      -0.03084999      -0.23343228
Ni       3.82365689       6.48709831       6.41619120        1       1.00000000       0.01229808      -0.17882430      -0.13950854
Ni       6.35016840       6.51585019       6.39599185        1       1.00000000      -0.00686031      -0.05323577      -0.18804844
Pt       8.93257513       6.45286915       6.42501751        1       0.00000000       0.03756056      -0.17886302       0.08216822
Ni      11.51861911       6.52599013       6.36042999        1       1.00000000       0.03726050      -0.04739815      -0.26691041
