64
Lattice="10.205460630195873 0.02673756093384757 -0.04106480855946145 5.125885722101882 8.759050788972862 -0.11019387571194554 -0.033529275785251694 -0.08453364594784411 8.699563815139815" Properties=species:S:1:pos:R:3:tags:I:1:initial_magmoms:R:1:forces:R:3 unique_id=2142616176f74723842b0b394d2dd805 stress="-0.007113093527489497 -2.8356737609590863e-05 2.2292890586601355e-05 -2.8356737609590863e-05 -0.007057047286158136 1.5568215678766246e-05 2.2292890586601355e-05 1.5568215678766246e-05 -0.006051103590026807" energy=-391.76340137580354 pbc="T T T"
Ni       0.03860000      -0.06408001       0.20126855        4       1.00000000       0.04790751      -0.09139919       0.13933209
Ni       2.48250650      -0.03244301       0.20906655        4       1.00000000      -0.08320222      -0.04987712       0.15120470
Pt       5.08925343      -0.04915572       0.14014790        4       0.00000000      -0.05394619       0.02925039      -0.19965503
Ni       7.67493477      -0.05149553       0.15989977        4       1.00000000       0.00602570      -0.07893483       0.14196153
Ni       1.27658151       2.19584190       0.10181824        4       1.00000000      -0.01655944      -0.00217148       0.13585397
Pt       3.73451883       2.25522585       0.16151898        4       0.00000000      -0.03122510      -0.00126866      -0.08256468
Pt       6.39025660       2.27094705       0.05139866        4       0.00000000      -0.04906844       0.02056616      -0.11438103
Pt       9.00904135       2.25188072       0.07674259        4       0.00000000       0.01768241       0.06788905      -0.10985263
Ni       2.53365167       4.42656848       0.05435889        4       1.00000000       0.00829562       0.02876136       0.06040621
Ni       5.09426163       4.46522568       0.04821715        4       1.00000000      -0.09464876       0.07737117       0.06195921
Ni       7.63571761       4.45306734       0.00470234        4       1.00000000      -0.07891655       0.06583109       0.01926841
Ni      10.27088751       4.42893731      -0.00017719        4       1.00000000       0.09257121       0.04798029       0.02748475
Ni       3.84672403       6.54314240       0.03255659        4       1.00000000       0.01644897      -0.02858241       0.03107342
Ni       6.37060918       6.56049876       0.02395276        4       1.00000000      -0.06447760      -0.04624117      -0.02632349
Ni       8.90202154       6.53934922       0.06761202        4       1.00000000      -0.09780071      -0.02267325       0.10455657
Ni      11.54468843       6.52471114      -0.02835523        4       1.00000000       0.07608863      -0.05654635      -0.05520380
Ni       1.29664326       0.72006040       2.20086020        3       1.00000000      -0.00209989       0.01096020       0.13803371
Ni       3.74348168       0.73397144       2.17380309        3       1.00000000      -0.10274259      -0.04079953       0.00804710
Ni       6.40423084       0.74000512       2.17484288        3       1.00000000       0.06687245      -0.01939169      -0.00585172
Pt       8.95580757       0.72520196       2.17530612        3       0.00000000       0.06283945      -0.02912048       0.12888903
Ni       2.51158848       2.93205199       2.22819118        3       1.00000000       0.03093611       0.01778727       0.10642561
Ni       5.07759767       2.97960272       2.15437705        3       1.00000000      -0.06254536       0.13399889      -0.03369454
Ni       7.63204842       2.91602122       2.17899501        3       1.00000000      -0.02331880      -0.06363858       0.01930468
Ni      10.29086981       2.92441548       2.18109826        3       1.00000000       0.09230557      -0.00191160       0.08987814
Ni       3.82571344       5.08884785       2.12450014        3       1.00000000      -0.01057481      -0.00559364       0.03958039
Ni       6.33702153       5.12243095       2.08456968        3       1.00000000      -0.02591817      -0.00092774      -0.01040079
Pt       8.90460931       5.04310285       2.11641790        3       0.00000000       0.01330902      -0.04120408       0.03201319
Ni      11.54976120       5.05709254       2.10350534        3       1.00000000       0.04723924      -0.09270357       0.08386437
Ni       5.14302981       7.21992790       2.06770257        3       1.00000000      -0.04760424      -0.08553072       0.03760595
Ni       7.57988293       7.28392612       2.04870083        3       1.00000000      -0.08643148      -0.10274689       0.03208999
Pt      10.30317045       7.23538260       2.10817867        3       0.00000000       0.08815701      -0.11996373       0.09276050
Ni      12.80251177       7.22495287       2.03070951        3       1.00000000       0.11920499      -0.14079161       0.01171300
Ni       0.05048867       1.45212039       4.27976185        2       1.00000000       0.07162712      -0.02322396      -0.00622464
Ni       2.46921023       1.47252943       4.23677882        2       1.00000000      -0.00524085       0.03852143      -0.02608609
Pt       5.09040733       1.45519928       4.17013653        2       0.00000000      -0.05857766       0.01786620      -0.16677545
Ni       7.65284589       1.44368545       4.24422652        2       1.00000000      -0.01447823      -0.04489595      -0.06032001
Ni       1.27941348       3.61358425       4.28012910        2       1.00000000       0.04462487       0.00114330      -0.02740001
Ni       3.76708113       3.69437691       4.21235668        2       1.00000000       0.00116996       0.08453515      -0.11830811
Pt       6.39403158       3.69468707       4.24156936        2       0.00000000       0.00330642      -0.00700245      -0.08763801
Ni       8.97710237       3.65764457       4.21533429        2       1.00000000       0.05674949       0.02844965      -0.06674116
Ni       2.53203726       5.73793074       4.24750625        2       1.00000000      -0.02928948      -0.03957365      -0.13791813
Ni       5.09356418       5.78990666       4.23477951        2       1.00000000      -0.01555000      -0.03808847      -0.12759718
Ni       7.61455892       5.81115461       4.22022632        2       1.00000000      -0.06317229       0.04208901      -0.06508072
Ni      10.26585278       5.75010766       4.24336912        2       1.00000000       0.04968098      -0.01854156      -0.02847058
Pt       3.83738074       7.89488191       4.17979734        2       0.00000000      -0.01785814      -0.00336355       0.05395262
Ni       6.35645642       7.96705282       4.14889917        2       1.00000000      -0.08279330      -0.00406787      -0.07905064
Pt       8.84537174       7.95611491       4.12293305        2       0.00000000      -0.08377662      -0.03046937      -0.04162767
Ni      11.51970153       7.94445173       4.17013418        2       1.00000000       0.04773203      -0.05799372      -0.04642736
Pt      -0.00701314      -0.10286493       6.49247032        1       0.00000000      -0.04615398       0.02412666       0.14975710
Pt       2.50272346      -0.03792719       6.48160655        1       0.00000000       0.09112534       0.08184517       0.17214647
Pt       5.10520351      -0.05749720       6.34700130        1       0.00000000      -0.04933453       0.03797825       0.05628047
Pt       7.62991064      -0.08381059       6.45123404        1       0.00000000       0.05068902       0.04386562       0.17909733
Ni       1.25516673       2.20529684       6.37831979        1       1.00000000       0.03545956       0.07095789      -0.06866132
Pt       3.78299795       2.29068911       6.32437180        1       0.00000000      -0.00242195       0.12759510       0.02817754
Ni       6.36776730       2.20376098       6.31129456        1       1.00000000      -0.00198192       0.04132042      -0.13167724
Pt       8.92997497       2.26027522       6.25292614        1       0.00000000       0.02180146       0.03317212       0.01367561
Ni       2.51069405       4.38912307       6.35413471        1       1.00000000       0.00642732       0.10104759      -0.08027605
Ni       5.09884853       4.39887493       6.37154838        1       1.00000000      -0.00100151       0.10948148      -0.02459397
Ni       7.58842221       4.34506094       6.36788661        1       1.00000000      -0.09615049       0.01637654      -0.03198693
Ni      10.27988059       4.34136814       6.32193858        1       1.00000000       0.16471698       0.01440370      -0.09234261
Ni       3.82216515       6.42062720       6.35820418        1       1.00000000      -0.00219650      -0.04598307      -0.03607353
Ni       6.34593695       6.45173299       6.33030984        1       1.00000000       0.01388762       0.01938204      -0.13172448
Pt       8.92626179       6.38374724       6.37121069        1       0.00000000       0.03108440      -0.03430815       0.09493889
Ni      11.51448501       6.45721533       6.29966506        1       1.00000000       0.02509134       0.03497689      -0.12040294
