64
Lattice="10.317168107964413 -0.008510105891619567 0.017929415934959638 5.151214086091168 8.84795491439034 -0.013626419123123741 0.0 0.0 21.58062495295445" Properties=species:S:1:pos:R:3:tags:I:1:initial_magmoms:R:1:forces:R:3 unique_id=66b969bbe28e49c98887a8aebd52483b energy=-374.93067721756506 stress="0.005705494316873601 1.2038680311547057e-05 0.00012320512834583828 1.2038680311547057e-05 0.004887283275439259 7.890724829500467e-05 0.00012320512834583828 7.890724829500467e-05 -0.0021777337100380035" pbc="T T T"
Ni       0.01193970       0.00463784       0.14884301        1       1.00000000       0.11199008       0.07224395      -0.14128335
Ni       2.57775735       0.00783772       0.17296289        2       1.00000000      -0.04493938       0.04461440       0.00372791
Ni       5.15361075      -0.02690166       0.14374854        1       1.00000000      -0.05667999       0.11263644      -0.50662303
Ni       7.73292160      -0.06529721       0.17186696        2       1.00000000      -0.05081799      -0.06539418      -0.21812286
Ni       1.29251281       2.21882666       0.07424662        1       1.00000000      -0.00471913      -0.00688083       0.37247513
Pt       3.77544483       2.17280354       0.16019394        2       0.00000000       0.04140374       0.04211816      -0.45628071
Pt       6.44733693       2.12708487       0.07736431        1       0.00000000       0.05650111      -0.04331155      -0.18795548
Pt       9.12027879       2.20556761       0.09799361        1       0.00000000       0.00877038       0.05998111      -0.57240035
Ni       2.52766973       4.44698536       0.01927417        0       1.00000000      -0.03308431      -0.00869938       0.19214199
Pt       5.10213486       4.45577351       0.00070201        0       0.00000000       0.05952314      -0.06740356      -0.33498639
Pt       7.78400317       4.46455280       0.00000000        0       0.00000000      -0.05807746      -0.00626754      -0.28231004
Ni      10.36955025       4.44578090       0.03389226        0       1.00000000       0.06629081       0.02391316       0.19342955
Ni       3.81266943       6.67810531       0.04518784        0       1.00000000      -0.05332154       0.09142617       0.27513795
Pt       6.44232035       6.74092230       0.06287631        1       0.00000000       0.00069520       0.01044242      -0.02481296
Ni       9.05740782       6.66668977       0.02874721        0       1.00000000      -0.02188657       0.05654478       0.09053019
Ni      11.61928595       6.63241932       0.03440128        0       1.00000000       0.09456618       0.01779963       0.24722801
Ni       1.32371807       0.74184246       2.19779360        4       1.00000000       0.04281727       0.07378885       0.22502067
Ni       3.82094324       0.73442151       2.20219124        4       1.00000000      -0.19985230       0.03511415       0.19249898
Ni       6.45903319       0.73945426       2.19903351        4       1.00000000       0.05030252       0.08019594       0.18931871
Pt       9.05023592       0.72511657       2.22762444        4       0.00000000       0.07004313       0.17330704       0.01075177
Ni       2.54683704       2.89436107       2.23992694        4       1.00000000      -0.06222682      -0.14360489       0.34288515
Ni       5.16406344       2.93389727       2.20264620        4       1.00000000       0.02489864       0.07919444       0.10839942
Ni       7.72342233       2.92315203       2.22774273        4       1.00000000      -0.01360694      -0.03661673       0.11058370
Ni      10.36285722       2.90841028       2.24333648        4       1.00000000       0.09771095      -0.12851267       0.27167393
Pt       3.87400369       5.15840499       2.21205642        4       0.00000000       0.03938624      -0.08193126      -0.06327686
Ni       6.45008351       5.16512563       2.19633018        4       1.00000000      -0.00710867      -0.01212614       0.04211687
Pt       8.98702301       5.12552512       2.26751657        5       0.00000000      -0.14190806      -0.11987887       0.00944001
Pt      11.61120955       5.09646277       2.20216781        4       0.00000000      -0.03244648      -0.11484672       0.11948082
Ni       5.18868692       7.38241469       2.17493701        4       1.00000000       0.11145713       0.00527984       0.16959271
Ni       7.69126228       7.39962653       2.18634398        4       1.00000000      -0.16445188       0.03602183       0.15944832
Pt      10.30748231       7.40170170       2.10368685        3       0.00000000      -0.01944052      -0.02126210      -0.07411207
Ni      12.90612069       7.36132507       2.14728010        3       1.00000000       0.03424113      -0.03402463       0.01915072
Ni       0.06619973       1.51180106       4.31554334        6       1.00000000       0.18241701       0.06734245      -0.17504164
Ni       2.51629850       1.49845752       4.30665870        6       1.00000000      -0.12420311       0.03153008      -0.18492015
Pt       5.14031019       1.48711818       4.25828043        6       0.00000000      -0.11615046      -0.05085990      -0.13206383
Ni       7.76295902       1.48185966       4.33247615        6       1.00000000       0.04779501      -0.08399960      -0.25531476
Ni       1.29106347       3.66306339       4.36766827        7       1.00000000      -0.00468430      -0.07086207      -0.02739691
Ni       3.80766805       3.69952793       4.32569028        6       1.00000000      -0.17708634      -0.05956607      -0.17043434
Pt       6.53216893       3.68183004       4.33006578        6       0.00000000       0.07782997      -0.08491869      -0.26855709
Ni       9.08224430       3.69353357       4.33517626        6       1.00000000       0.23389535      -0.07182782      -0.14456575
Ni       2.55956204       5.82729888       4.38892888        7       1.00000000      -0.04568901      -0.18555394       0.05759333
Pt       5.19211172       5.88784748       4.37765740        7       0.00000000       0.11149673      -0.01724870      -0.07427425
Ni       7.75721530       5.87508853       4.37589482        7       1.00000000       0.01314392      -0.00056473      -0.04730013
Ni      10.31834825       5.81449918       4.41282478        7       1.00000000       0.02168884      -0.13238098       0.09419914
Pt       3.90720849       8.10224250       4.29841788        6       0.00000000      -0.02109277       0.08424701      -0.01705393
Ni       6.45243569       8.11926479       4.29136437        6       1.00000000      -0.02805974       0.16990588      -0.31369512
Pt       8.94405605       8.04304427       4.29121554        6       0.00000000      -0.04297280       0.02611296      -0.01872406
Pt      11.62108608       8.02134963       4.30288307        6       0.00000000      -0.03692503      -0.12269598      -0.02669001
Pt       0.03031137      -0.04701273       6.53084600        9       0.00000000       0.08265980       0.06064288       0.28699654
Pt       2.57062850      -0.05386664       6.53609868        9       0.00000000      -0.01151840       0.07432728       0.19780210
Pt       5.16282578      -0.08065318       6.57827537       10       0.00000000      -0.06801302       0.07484188       0.45706233
Pt       7.74477373      -0.06410398       6.58062495       10       0.00000000      -0.04590776       0.14169532       0.38269792
Ni       1.29182126       2.25447193       6.46244994        9       1.00000000      -0.01654293       0.13785472      -0.31495941
Pt       3.83654407       2.29934035       6.43592496        8       0.00000000      -0.09766141       0.05075380       0.46676885
Ni       6.46066443       2.22365770       6.43398045        8       1.00000000       0.00940532      -0.00490792       0.15431070
Pt       9.05514213       2.28760674       6.38481255        8       0.00000000      -0.01852183       0.04580184       0.53309383
Ni       2.54737830       4.44521090       6.46084305        9       1.00000000      -0.05349479      -0.00482034      -0.36290816
Ni       5.17226398       4.42668690       6.41392819        8       1.00000000      -0.02370701      -0.06159477       0.26593978
Ni       7.75241547       4.44885089       6.40002075        8       1.00000000       0.10356779       0.06933310       0.17024866
Ni      10.35370319       4.43859540       6.47049442        9       1.00000000       0.03231853      -0.00788662      -0.39447125
Ni       3.85526836       6.55112498       6.49443242        9       1.00000000      -0.07958701      -0.10834560      -0.18775430
Ni       6.47291211       6.56550417       6.41899889        8       1.00000000       0.15173923       0.03635381       0.15018391
Ni       9.03471463       6.53066893       6.48187146        9       1.00000000       0.01880845      -0.11469990      -0.29661033
Ni      11.61124255       6.52637662       6.49850247        9       1.00000000      -0.02097786      -0.01187066      -0.28703008
