64
Lattice="10.678704714473541 -0.007202793207322036 -0.001209885132940152 5.333114555341088 9.255912737157505 0.008994862155533651 0.0 0.0 21.882338607842946" Properties=species:S:1:pos:R:3:tags:I:1:initial_magmoms:R:1:forces:R:3 unique_id=3d6c5ad9c76f4fdd99d5a7eae842b4aa energy=-397.12010454165954 stress="0.006994161826810291 -4.890643881413613e-05 -9.10087574351857e-06 -4.890643881413613e-05 0.007067340472802447 -3.675500142150518e-05 -9.10087574351857e-06 -3.675500142150518e-05 0.00016961699681446694" pbc="T T T"
Pt       0.02326542      -0.00020869       0.07926337        1       0.00000000      -0.13173536      -0.03136890      -0.39155709
Ni       2.69118139       0.00342944       0.03960317        0       1.00000000      -0.02098837      -0.06169384       0.45283365
Ni       5.32669101      -0.01128507       0.09622210        1       1.00000000       0.02038951       0.01086970       0.24897276
Pt       7.93497160      -0.04910747       0.00000000        0       0.00000000      -0.05045616      -0.00282451       0.18238226
Pt       1.35282969       2.29263509       0.10176773        1       0.00000000      -0.15093410       0.16318709      -0.35843133
Pt       4.00416355       2.23527825       0.01986541        0       0.00000000       0.11451220       0.11855634       0.05146263
Pt       6.64400301       2.28029543       0.10756391        1       0.00000000      -0.13514544       0.03701868      -0.36879505
Pt       9.34568419       2.30704653       0.10187632        1       0.00000000       0.09473347       0.01786540      -0.27641966
Pt       2.65268894       4.65111121       0.08307234        1       0.00000000      -0.01529050      -0.07461465      -0.40117471
Pt       5.32736469       4.60586980       0.10866830        1       0.00000000      -0.04586188      -0.13143696      -0.43547369
Pt       8.01690996       4.63793053       0.01317102        0       0.00000000       0.07531683       0.12526390      -0.06590523
Pt      10.68383897       4.65422436       0.10150709        1       0.00000000      -0.02305986      -0.04412779      -0.33642924
Pt       3.95888953       6.94979611       0.00313963        0       0.00000000       0.03666390       0.02647527       0.01146892
Pt       6.69488853       6.97060038       0.08974231        1       0.00000000       0.03178271       0.00305353      -0.46756487
Pt       9.38504607       7.02653065       0.08878043        1       0.00000000       0.02034344      -0.01668125      -0.24663893
Ni      12.00558416       6.95359663       0.09525158        1       1.00000000      -0.02106103       0.00012827       0.27864137
Pt       1.32546763       0.80803980       2.35850635        3       0.00000000       0.11336983      -0.00739549       0.34118021
Pt       4.01452429       0.78172982       2.31101784        2       0.00000000      -0.03587248      -0.00722370       0.15070531
Pt       6.66167988       0.78091201       2.34527404        2       0.00000000       0.07281776       0.03253046       0.26854929
Pt       9.36409445       0.80233826       2.37694017        3       0.00000000      -0.03285358      -0.03146001       0.40161112
Pt       2.67375411       3.08227363       2.34774055        2       0.00000000       0.06554291      -0.00230563       0.30254596
Ni       5.33356220       3.07648998       2.32694467        2       1.00000000      -0.00273364      -0.03553199       0.40487186
Pt       8.02324726       3.08577678       2.37813202        3       0.00000000       0.00621571       0.00461588       0.33001121
Ni      10.67403135       3.07628376       2.34919726        2       1.00000000       0.01831410      -0.01273699       0.45499711
Pt       3.99781796       5.38717231       2.37749613        3       0.00000000       0.01563089       0.03990939       0.32722965
Pt       6.66764586       5.36645865       2.35825015        3       0.00000000       0.04369238      -0.03495962       0.35941356
Pt       9.35857609       5.35521186       2.39157268        3       0.00000000       0.01318339      -0.03096840       0.42913378
Pt      12.00486739       5.38852443       2.35760299        3       0.00000000      -0.00259322       0.05870279       0.29902271
Pt       5.32233132       7.71483574       2.35644639        3       0.00000000      -0.06197334      -0.02422740       0.36497575
Pt       8.02375943       7.74198865       2.35750614        3       0.00000000       0.00947705       0.08903171       0.35020209
Pt      10.68693062       7.73186120       2.33995873        2       0.00000000       0.08214415       0.02223296       0.23451289
Pt      13.32310118       7.70796699       2.39349837        3       0.00000000      -0.00293461       0.02979334       0.34928664
Ni      -0.01259666       1.56510613       4.60861081        4       1.00000000      -0.02475952      -0.00768225      -0.42150259
Pt       2.68169343       1.50722224       4.65198250        5       0.00000000       0.13030448      -0.10016486      -0.10502610
Pt       5.33444769       1.48416416       4.60210584        4       0.00000000      -0.00070441      -0.08318532      -0.26545254
Pt       8.03831448       1.51607420       4.62377044        4       0.00000000      -0.04554012      -0.15979375      -0.21892102
Pt       1.26261512       3.83568314       4.56968745        4       0.00000000      -0.12597012      -0.07965791      -0.37849753
Pt       3.99051722       3.84332400       4.60183325        4       0.00000000      -0.04444462      -0.20936219      -0.31046237
Pt       6.71045448       3.84467234       4.60744324        4       0.00000000       0.11725282      -0.04055720      -0.28345696
Ni       9.35385869       3.84018271       4.60675262        4       1.00000000      -0.00636303      -0.02705417      -0.41352239
Ni       2.65231990       6.19399388       4.63356734        4       1.00000000      -0.07661039      -0.02141115      -0.29220220
Pt       5.28195557       6.19334397       4.64276416        4       0.00000000      -0.11545605       0.04384517      -0.28435989
Pt       8.04329389       6.14992631       4.62935670        4       0.00000000       0.08419068      -0.11303134      -0.27355041
Pt      10.72187543       6.23193041       4.60654565        4       0.00000000       0.17162136       0.17139611      -0.20411566
Pt       3.92848298       8.46959469       4.67608524        5       0.00000000      -0.12847161      -0.08793765      -0.12758179
Pt       6.69411990       8.51868328       4.62909384        4       0.00000000       0.07880956       0.01817238      -0.25263003
Ni       9.35091473       8.48904052       4.62941295        4       1.00000000       0.03300132       0.00363587      -0.25543662
Ni      12.00325457       8.47509970       4.63277434        4       1.00000000      -0.05925791       0.02747936      -0.24191950
Pt      -0.02771093      -0.01076690       6.81061520        6       0.00000000      -0.04007692       0.21038670       0.32246437
Ni       2.68383097       0.01604482       6.88036414        7       1.00000000      -0.00148048      -0.05613618      -0.45375209
Pt       5.31094448       0.01670598       6.88233861        7       0.00000000       0.00964721      -0.08026442      -0.27206028
Ni       8.00231233      -0.01264328       6.81026423        6       1.00000000      -0.08150894       0.06350849      -0.22780055
Pt       1.37431920       2.27946082       6.81758014        6       0.00000000      -0.21191671       0.01074904       0.27958047
Ni       4.00058483       2.29637228       6.82495270        6       1.00000000       0.06705749       0.05352368      -0.25872159
Pt       6.66014998       2.30296838       6.83849426        6       0.00000000      -0.02166285      -0.02218936       0.33965461
Pt       9.33161494       2.31950098       6.79114135        6       0.00000000       0.18823956       0.02389482       0.24894370
Pt       2.68288970       4.66165393       6.80785827        6       0.00000000      -0.08710407       0.12198966       0.23258139
Pt       5.34056999       4.62337791       6.84171546        6       0.00000000       0.02898294      -0.03740845       0.44219916
Ni       8.00317152       4.62905566       6.82066096        6       1.00000000       0.00170608      -0.01394050      -0.16968683
Pt      10.63547714       4.63441537       6.80664513        6       0.00000000      -0.05702212       0.00050530       0.19395481
Ni       3.98311659       6.95852212       6.81914687        6       1.00000000       0.03484201      -0.06864815      -0.13930381
Pt       6.66839304       6.95655006       6.83714765        6       0.00000000      -0.04341150      -0.03723218       0.47694173
Pt       9.32367565       6.98418956       6.82322890        6       0.00000000       0.04466696       0.18168094       0.31256855
Pt      12.08015928       7.00085199       6.86593753        7       0.00000000       0.08080222       0.08521193      -0.24454695
