64
Lattice="10.328765519666602 -0.013441949385045676 0.03521912631555274 5.152741690189462 8.88275956473729 -0.002050766778186898 0.0 0.0 21.57231049535651" Properties=species:S:1:pos:R:3:tags:I:1:initial_magmoms:R:1:forces:R:3 unique_id=d1b09e8ef9f841dba67e0c72b45d622c energy=-375.6437337092244 stress="0.0053997522739993266 -1.3398458568320673e-06 0.00046897737813281605 -1.3398458568320673e-06 0.005252363098532845 2.112838537140367e-05 0.00046897737813281605 2.112838537140367e-05 -0.002103634011264101" pbc="T T T"
Ni      -0.02061483       0.02166112       0.15119540        2       1.00000000      -0.03908363       0.04440316      -0.00538790
Ni       2.58512459      -0.00089860       0.16516702        2       1.00000000      -0.01538428       0.00675197      -0.10803883
Ni       5.16730712      -0.02062040       0.12695490        1       1.00000000       0.02288215       0.21284779      -0.39575354
Ni       7.77654099      -0.04907353       0.08198495        1       1.00000000       0.01356693      -0.02100713       0.39618280
Ni       1.27561274       2.20845567       0.12589257        1       1.00000000       0.03709182      -0.08452654      -0.19215416
Pt       3.81609119       2.21772787       0.06534261        1       0.00000000       0.03395947      -0.03172106      -0.04584700
Pt       6.48519591       2.15099590       0.15609167        2       0.00000000       0.04543610      -0.09248149      -0.50861527
Ni       9.05657718       2.17178959       0.11971950        1       1.00000000      -0.06807238      -0.12607040      -0.04521722
Ni       2.56675288       4.45803453       0.00000000        0       1.00000000      -0.02539853      -0.03521392       0.11306036
Ni       5.15551263       4.43993063       0.10981603        1       1.00000000       0.18481939      -0.09716886      -0.35235003
Pt       7.81739987       4.44400360       0.06527437        1       0.00000000       0.01227271      -0.05668797       0.00390011
Ni      10.35167887       4.44047216       0.02780503        0       1.00000000       0.04800066      -0.00881258       0.15737711
Ni       3.83123167       6.68732421       0.03109774        0       1.00000000      -0.00844736       0.12628214       0.29252521
Pt       6.42373632       6.70921789       0.15269852        2       0.00000000      -0.03968615       0.03806724      -0.57913948
Ni       9.05591675       6.66814420       0.03702392        0       1.00000000      -0.06590667       0.00120933       0.15977969
Ni      11.63428930       6.66202909       0.02106898        0       1.00000000       0.10071817       0.06696801       0.19775985
Ni       1.29548779       0.71944303       2.11477996        3       1.00000000      -0.01383261      -0.03166015       0.05733526
Ni       3.87487475       0.74958004       2.15922666        4       1.00000000       0.05159174       0.06445677       0.18649665
Ni       6.48875861       0.73189016       2.21266141        4       1.00000000       0.10714601       0.05651977       0.23086115
Ni       9.01795503       0.70653489       2.16395468        4       1.00000000      -0.14773372       0.00137363       0.03769246
Ni       2.59172563       2.93605300       2.15491728        4       1.00000000      -0.02491157       0.02131464       0.12248610
Ni       5.16280353       2.92519294       2.20093122        4       1.00000000      -0.07829190      -0.13139192       0.22802785
Ni       7.75506911       2.92972351       2.20572802        4       1.00000000       0.04115374      -0.08853941       0.15306779
Pt      10.28082840       2.88468134       2.17490483        4       0.00000000      -0.05274390       0.02737369       0.10151893
Pt       3.89558743       5.16750001       2.10664716        3       0.00000000       0.02935981      -0.00538787      -0.04984910
Ni       6.49346198       5.16202041       2.17921622        4       1.00000000       0.12309865      -0.04660738       0.15436261
Ni       9.00537059       5.17375196       2.21652896        4       1.00000000      -0.10015004      -0.02960165       0.26401448
Pt      11.61286723       5.17924010       2.13466496        3       0.00000000      -0.03930025      -0.04809863      -0.02616123
Ni       5.13648672       7.44037348       2.14166570        3       1.00000000      -0.11992844       0.07583821       0.00992722
Ni       7.74633101       7.39307196       2.16196727        4       1.00000000       0.05202462      -0.05505943       0.10328248
Pt      10.30151436       7.41453794       2.08840060        3       0.00000000      -0.01315739       0.00788457      -0.06775178
Ni      12.93097304       7.42481826       2.13732314        3       1.00000000       0.00831652       0.08197719      -0.10897565
Ni      -0.01709587       1.50079309       4.29769366        6       1.00000000       0.01020345       0.08099785      -0.14831959
Pt       2.64510946       1.52870857       4.24320129        5       0.00000000      -0.00538707       0.01553306      -0.10922797
Ni       5.18495586       1.48066272       4.29302470        6       1.00000000       0.04356442       0.00101964      -0.34451799
Ni       7.78081322       1.47532021       4.29129256        6       1.00000000       0.08477741       0.05777488      -0.34922458
Pt       1.27585209       3.77306743       4.34187041        6       0.00000000      -0.03779946      -0.01564983       0.07256744
Ni       3.88171361       3.68341557       4.32044900        6       1.00000000       0.06605155      -0.00935372      -0.22008343
Pt       6.51686656       3.65915097       4.23173629        5       0.00000000       0.00384628      -0.03855148      -0.07096497
Ni       9.04620792       3.71018509       4.33743673        6       1.00000000       0.02458269       0.02322658      -0.19067472
Ni       2.57366525       5.90788396       4.36648208        7       1.00000000       0.02274300       0.03895275      -0.03631126
Pt       5.13563473       5.88135528       4.27845624        6       0.00000000      -0.01283488       0.01615144      -0.08261616
Ni       7.81067892       5.85641966       4.31043022        6       1.00000000       0.06768892      -0.07145308      -0.27338130
Ni      10.30684429       5.87937984       4.38733237        7       1.00000000      -0.06666751       0.04666480      -0.08357683
Pt       3.84550816       8.17340665       4.25366067        6       0.00000000       0.01010946       0.09449605      -0.03412750
Pt       6.45526388       8.15238749       4.20712897        5       0.00000000      -0.01934930       0.13386034      -0.15623348
Pt       9.04911905       8.06518821       4.29755889        6       0.00000000      -0.09146316      -0.01640414      -0.00738896
Pt      11.64122223       8.11515082       4.32320835        6       0.00000000      -0.04125949       0.02937321      -0.05201450
Pt      -0.04890368      -0.04199267       6.54749616        9       0.00000000       0.16175771       0.12770013       0.21910059
Pt       2.63184029      -0.01341445       6.57231050       10       0.00000000      -0.06909374      -0.03095406       0.40946210
Pt       5.22638902      -0.09488622       6.56575281       10       0.00000000       0.02414223      -0.05865771       0.41639120
Ni       7.75961706      -0.06703181       6.52152428        9       1.00000000      -0.05032339      -0.01586872      -0.13675076
Pt       1.33773947       2.29928420       6.54955551        9       0.00000000      -0.13802764      -0.03762736       0.24421788
Ni       3.88835596       2.22198873       6.41443511        8       1.00000000       0.06595460      -0.08252528       0.11662343
Pt       6.46727045       2.17894167       6.43145360        8       0.00000000      -0.04409798      -0.05790018       0.54989426
Pt       9.04543101       2.26523267       6.48341317        9       0.00000000       0.06976088       0.06582277       0.02862784
Ni       2.57351539       4.48737563       6.47507020        9       1.00000000      -0.06909381       0.14948979      -0.15349081
Pt       5.07360314       4.40774735       6.52602170        9       0.00000000      -0.05030155      -0.05288145       0.26352322
Ni       7.80419401       4.44233482       6.40992420        8       1.00000000       0.00650673       0.02491788       0.00389751
Ni      10.33023029       4.49517686       6.49834981        9       1.00000000      -0.05544317       0.06861905      -0.20355026
Ni       3.80800797       6.63710318       6.48731892        9       1.00000000      -0.07091659      -0.02077224      -0.24078790
Pt       6.51740958       6.58365899       6.44931621        8       0.00000000       0.09151505      -0.12739097       0.61053223
Ni       9.09245897       6.57227786       6.48772655        9       1.00000000       0.02769598      -0.06514756      -0.20030973
Ni      11.64932425       6.58591923       6.50256268        9       1.00000000      -0.01825131      -0.11669415      -0.32570194
