64
Lattice="10.779695423688192 -0.0037190528601295644 0.002367355621785305 5.386626917589206 9.338657446211613 0.004889146774484421 0.001932937771027735 0.003493549642176055 9.441375971874313" Properties=species:S:1:pos:R:3:tags:I:1:initial_magmoms:R:1:forces:R:3 unique_id=5a5ff8fd10d9403092bb5cbf5f523ff5 stress="-0.00069066824808732 1.8750485875114368e-07 -4.055725446858036e-06 1.8750485875114368e-07 -0.0006897301980347409 2.024375348510344e-07 -4.055725446858036e-06 2.024375348510344e-07 -0.0004703131586980755" energy=-432.3979655589409 pbc="T T T"
Pt      -0.01043741       0.00721331       0.11228048        4       0.00000000      -0.02782911       0.03937826       0.13151562
Pt       2.69200005      -0.00001333       0.09589905        4       0.00000000      -0.02052356       0.00134785       0.15213212
Pt       5.39494427       0.00080351       0.09966646        4       0.00000000       0.04045125       0.02212733       0.16705367
Pt       8.09399983       0.00490972       0.11599449        4       0.00000000       0.02577572       0.01672852       0.11222028
Pt       1.34284899       2.33472705       0.09630617        4       0.00000000      -0.03634457       0.02241165       0.13407611
Pt       4.04395139       2.33525865       0.09548280        4       0.00000000       0.01830219       0.00798988       0.13470604
Pt       6.74861571       2.33948327       0.10794020        4       0.00000000       0.02529465       0.04050766       0.10801567
Pt       9.41988794       2.33049486       0.13244933        4       0.00000000      -0.04012576       0.01168209       0.14788934
Pt       2.69346552       4.66986448       0.09184511        4       0.00000000      -0.00967481      -0.00330797       0.10143496
Pt       5.39353373       4.66829538       0.09077565        4       0.00000000       0.01908070       0.00369856       0.08419243
Pt       8.08498691       4.65771380       0.04484858        4       0.00000000       0.02372380      -0.01658198       0.02821550
Pt      10.76975022       4.66232954       0.09518582        4       0.00000000      -0.03428408      -0.02775804       0.09828845
Pt       4.03935560       7.00639298       0.09636680        4       0.00000000       0.00217155      -0.00098741       0.09894957
Pt       6.73423471       6.99897083       0.09609081        4       0.00000000      -0.00122732      -0.01479155       0.12022271
Pt       9.42811759       6.99694943       0.09176051        4       0.00000000      -0.00725261      -0.03492647       0.13642806
Pt      12.12679981       7.00305705       0.09848817        4       0.00000000       0.00118146       0.00810618       0.11425822
Pt       1.30630235       0.78611098       2.38944998        3       0.00000000      -0.11169891       0.04417537       0.13951012
Pt       4.04877573       0.78086933       2.38756381        3       0.00000000       0.04513997       0.01329051       0.14239171
Pt       6.80163209       0.81578908       2.38990917        3       0.00000000       0.19693006       0.12788246       0.11508667
Ni       9.42428800       0.79221977       2.36992530        3       1.00000000      -0.03953206       0.08748661       0.04585905
Pt       2.68446500       3.11067767       2.39066284        3       0.00000000      -0.07052842      -0.00497520       0.14965013
Pt       5.42971380       3.10894025       2.38947732        3       0.00000000       0.11045708      -0.00818740       0.16275163
Ni       8.09648677       3.10251604       2.38593364        3       1.00000000       0.05691132      -0.02330405       0.11218530
Pt      10.70582959       3.08195009       2.41152546        3       0.00000000      -0.27097944      -0.06560015       0.19831216
Pt       4.04765627       5.45044420       2.38589665        3       0.00000000       0.03604078      -0.00016764       0.11308792
Pt       6.76018188       5.41411891       2.39367399        3       0.00000000       0.06397563      -0.07656341       0.10476393
Pt       9.40962420       5.39440514       2.41608340        3       0.00000000      -0.07922949      -0.19545574       0.19789620
Pt      12.11611184       5.43998030       2.38948575        3       0.00000000      -0.06343062      -0.04079434       0.09566809
Pt       5.37337252       7.80956847       2.38768522        3       0.00000000       0.00632495       0.01608310       0.11451233
Pt       8.07862727       7.77568416       2.38872410        3       0.00000000      -0.00864171      -0.05959599       0.14709518
Pt      10.78058482       7.78063863       2.39008732        3       0.00000000       0.00793338      -0.00546230       0.12035559
Pt      13.48785150       7.81499740       2.39082799        3       0.00000000       0.01280371       0.07497181       0.11590061
Pt      -0.03095554       1.58598820       4.67290420        2       0.00000000      -0.07484332       0.02320267      -0.11963505
Pt       2.68634813       1.56088205       4.69621223        2       0.00000000      -0.03989013       0.01349082      -0.11806394
Pt       5.40460475       1.56459145       4.69577510        2       0.00000000       0.08220345       0.03972023      -0.10587519
Pt       8.11323280       1.59836687       4.64764953        2       0.00000000       0.12228954       0.13173240      -0.32476147
Pt       1.30487698       3.88967805       4.69511710        2       0.00000000      -0.11581870      -0.02597028      -0.14520231
Pt       4.04925727       3.89195739       4.69827445        2       0.00000000       0.05405302      -0.00245808      -0.13147311
Pt       6.79949626       3.88873856       4.70289200        2       0.00000000       0.19034992      -0.04832963      -0.12115270
Ni       9.42231014       3.88838782       4.71590600        2       1.00000000      -0.03971239      -0.02498906      -0.05452715
Pt       2.68979325       6.22793826       4.69631514        2       0.00000000      -0.01399448       0.00020778      -0.13908862
Pt       5.39751387       6.22296261       4.69800604        2       0.00000000       0.04735142      -0.01954201      -0.14878140
Pt       8.10211832       6.17439904       4.72928130        2       0.00000000       0.05408889      -0.11783551      -0.00203725
Pt      10.75757511       6.19217980       4.70078657        2       0.00000000      -0.02138481      -0.05916797      -0.15071910
Pt       4.03872178       8.58463029       4.67477905        2       0.00000000      -0.00899260       0.12784596      -0.18215927
Pt       6.73467730       8.55947289       4.70372012        2       0.00000000       0.00902222      -0.02806255      -0.08641901
Pt       9.42845439       8.55089851       4.70514443        2       0.00000000      -0.01014389      -0.05398160      -0.10570757
Pt      12.12862143       8.56501394       4.69794412        2       0.00000000       0.00787227       0.04372821      -0.11639762
Pt      -0.00132024       0.00620174       6.98933037        1       0.00000000      -0.03199635       0.03437830      -0.09446673
Pt       2.69660138      -0.00309904       6.99309719        1       0.00000000      -0.00876071      -0.02861414      -0.08715993
Pt       5.39166143       0.00085718       6.99300868        1       0.00000000       0.01937368       0.00616963      -0.08311346
Pt       8.08852033       0.00857109       6.99376016        1       0.00000000       0.01873621       0.07485412      -0.10754445
Pt       1.34167204       2.34098841       6.99081647        1       0.00000000      -0.05413001       0.01175338      -0.10038073
Pt       4.04735586       2.33820586       6.99273335        1       0.00000000       0.03226110       0.01646611      -0.10943245
Pt       6.75858764       2.36655378       6.99145030        1       0.00000000       0.06299689       0.05875807      -0.08302686
Pt       9.41341599       2.37340841       6.97317761        1       0.00000000      -0.08040808       0.09082426      -0.09300888
Pt       2.69173926       4.67088753       6.98820604        1       0.00000000      -0.02722885      -0.00505437      -0.14241427
Pt       5.42447848       4.67050205       6.98951718        1       0.00000000       0.09703640      -0.00625096      -0.13706633
Ni       8.08692542       4.66760617       6.99725122        1       1.00000000       0.01324187      -0.03124870      -0.31523003
Pt      10.73578451       4.66359126       6.97525033        1       0.00000000      -0.14300138      -0.02166852      -0.12230376
Pt       4.04706312       7.00308324       6.99568273        1       0.00000000       0.02615499      -0.00052675      -0.13449485
Pt       6.75403100       6.97582056       6.99050942        1       0.00000000       0.03155604      -0.06921488      -0.09144997
Pt       9.41538838       6.97368977       6.99081469        1       0.00000000      -0.02839567      -0.06063253      -0.07044089
Pt      12.11852505       6.99868175       6.99313052        1       0.00000000      -0.04108226      -0.02899258      -0.12109107
