64
Lattice="10.314265691271537 0.002346904414377573 0.002055169104252068 5.159165324478874 8.85347972626959 -0.03379037358281326 0.0016780385468500845 -0.032826685739046534 8.799097475691179" Properties=species:S:1:pos:R:3:tags:I:1:initial_magmoms:R:1:forces:R:3 unique_id=c4e8f4ac149449a4a1d11b1e4000a566 stress="0.00021246576952609064 -9.834180870625464e-07 3.7302685402707993e-06 -9.834180870625464e-07 0.00023100950251608854 1.7672541932599083e-05 3.7302685402707993e-06 1.7672541932599083e-05 0.0002107191341565312" energy=-397.5147469834204 pbc="T T T"
Ni       0.01326259      -0.00046302       0.17744677        4       1.00000000       0.07815622       0.05775426       0.31231425
Ni       2.57101645       0.00372536       0.19713207        4       1.00000000      -0.01880091       0.02906629       0.35877880
Ni       5.15471904      -0.01961849       0.16710209        4       1.00000000      -0.04720491       0.04300573       0.21601362
Ni       7.72759140      -0.05112419       0.18711102        4       1.00000000      -0.00553033      -0.08304759       0.34467972
Ni       1.28736535       2.22034849       0.09908612        4       1.00000000       0.00582004       0.01860975       0.24594829
Pt       3.78311495       2.17880768       0.17955015        4       0.00000000      -0.08652445       0.01166024       0.21526709
Pt       6.46490555       2.16552301       0.09531102        4       0.00000000       0.06395635      -0.09845940      -0.08107290
Pt       9.09634727       2.26274363       0.11377806        4       0.00000000       0.09462955       0.05633393       0.11243322
Ni       2.53317438       4.44768344       0.03666937        4       1.00000000      -0.07642477       0.03018145       0.00560569
Pt       5.14718348       4.45566164       0.01995791        4       0.00000000      -0.04904224       0.05053999      -0.16275508
Ni       7.75663942       4.44912310       0.05795766        4       1.00000000      -0.00601041       0.04358470       0.09342507
Ni      10.34041718       4.45404675       0.04203712        4       1.00000000       0.08981957       0.13478392       0.00429670
Ni       3.82385246       6.67568959       0.05879847        4       1.00000000      -0.04979200       0.07915349       0.15365004
Pt       6.47691010       6.70258608       0.07947591        4       0.00000000      -0.00389801       0.00813047      -0.11490668
Ni       9.03699014       6.64081458       0.11420691        4       1.00000000      -0.03881171      -0.02110019       0.11061148
Ni      11.62403835       6.64107074       0.04071339        4       1.00000000       0.08852548      -0.03954630       0.00591988
Ni       1.31931063       0.74118202       2.22215927        3       1.00000000       0.02160700       0.04407531       0.13977612
Ni       3.81705969       0.73781888       2.21782168        3       1.00000000      -0.18865844       0.02859589       0.05322279
Ni       6.45426198       0.74774850       2.20987739        3       1.00000000       0.06142077       0.01079725       0.07680861
Pt       9.04439808       0.73919568       2.23045379        3       0.00000000       0.05908641       0.22081771      -0.05852885
Ni       2.54591571       2.89428171       2.25820273        3       1.00000000      -0.06027630      -0.10187143       0.22827309
Ni       5.16581447       2.93719137       2.21921180        3       1.00000000      -0.03125179       0.07554087      -0.07007786
Ni       7.71849194       2.93882496       2.23358917        3       1.00000000       0.02144000      -0.10336533      -0.03367447
Ni      10.35838168       2.91754442       2.25175462        3       1.00000000       0.09015399      -0.10883640       0.17024329
Pt       3.87745440       5.15644042       2.21645064        3       0.00000000      -0.02365956      -0.05900474      -0.11625122
Ni       6.45796545       5.16129802       2.20086113        3       1.00000000      -0.03927406       0.03284475      -0.06071439
Pt       8.96257026       5.11358835       2.20933372        3       0.00000000      -0.06123073      -0.06033837       0.00381177
Pt      11.60367440       5.10330670       2.20489911        3       0.00000000       0.00745345      -0.09576318       0.08122140
Ni       5.19437858       7.38266600       2.17891838        3       1.00000000       0.08817254       0.01176769       0.03790973
Ni       7.68991547       7.40278626       2.18806084        3       1.00000000      -0.14355781       0.01225289       0.07075620
Pt      10.31359652       7.40609881       2.10849745        3       0.00000000      -0.00483378      -0.06329705      -0.00262587
Ni      12.90710894       7.37313259       2.14174089        3       1.00000000       0.03014833      -0.07475251      -0.00981031
Ni       0.05942908       1.50667169       4.34150265        2       1.00000000       0.14352948       0.08700223      -0.08928473
Ni       2.50810969       1.50310932       4.32350215        2       1.00000000      -0.09281492       0.07375104      -0.08489680
Pt       5.13705863       1.49420701       4.27142233        2       0.00000000      -0.14358705       0.04323976       0.04206723
Ni       7.75657442       1.48321322       4.34782463        2       1.00000000       0.04376734      -0.05303219      -0.07132276
Ni       1.28915325       3.65681546       4.38636767        2       1.00000000       0.00472370      -0.04543403      -0.03343547
Ni       3.80353991       3.70049263       4.34002345        2       1.00000000      -0.13283251      -0.02648847      -0.13384039
Pt       6.53274457       3.68431665       4.34646153        2       0.00000000       0.08772322      -0.09444100      -0.14167917
Ni       9.07526252       3.69680067       4.33620145        2       1.00000000       0.20910155      -0.02171303      -0.14256474
Ni       2.56163290       5.82358902       4.40217958        2       1.00000000      -0.03042847      -0.12306037       0.01990678
Pt       5.18565348       5.88692448       4.38833788        2       0.00000000       0.09324536       0.01452599      -0.09814620
Ni       7.74527462       5.87031928       4.35187847        2       1.00000000       0.04314529       0.01200733      -0.08316056
Ni      10.33105794       5.81121642       4.38402992        2       1.00000000       0.04769878      -0.15203008      -0.01378628
Pt       3.90879239       8.10434405       4.30132311        2       0.00000000      -0.03497550       0.02167177       0.12529494
Ni       6.44910245       8.12145877       4.29545576        2       1.00000000      -0.03884021       0.14068779      -0.15119393
Pt       8.93728952       8.07120772       4.27003097        2       0.00000000      -0.07284473      -0.04081813       0.11227595
Pt      11.62050079       8.03179006       4.30210549        2       0.00000000       0.02136195      -0.08146016       0.09235700
Pt       0.01736641      -0.05189353       6.56016460        1       0.00000000       0.07063968      -0.03483141       0.15780969
Pt       2.55470240      -0.01561424       6.55202094        1       0.00000000      -0.07110151       0.03867015       0.17286291
Pt       5.16709776      -0.03170642       6.59712768        1       0.00000000       0.04018390       0.02702027       0.05339773
Pt       7.74304275      -0.06067001       6.59599092        1       0.00000000      -0.09883715      -0.06347094       0.19809805
Ni       1.28494707       2.25066357       6.48500337        1       1.00000000      -0.01584123       0.13733442      -0.20727089
Pt       3.83097382       2.31246479       6.45347448        1       0.00000000      -0.03668379       0.21753553      -0.19425514
Ni       6.45494146       2.22856350       6.45091110        1       1.00000000      -0.02537773       0.03118239      -0.25215675
Pt       9.04558530       2.28922630       6.39744448        1       0.00000000      -0.00335732       0.09891549      -0.33188777
Ni       2.54560274       4.44358467       6.47754103        1       1.00000000      -0.10534650       0.11850427      -0.23137684
Ni       5.16753267       4.42924522       6.42875151        1       1.00000000       0.01322071       0.05854893      -0.32600343
Ni       7.70848657       4.40372741       6.50170049        1       1.00000000      -0.14423832      -0.01751799      -0.11984569
Ni      10.37701726       4.40073019       6.48072706        1       1.00000000       0.26140395      -0.03648078      -0.24064444
Ni       3.85307356       6.54939630       6.50658146        1       1.00000000      -0.06156716      -0.15593418      -0.07447067
Ni       6.44625079       6.56986253       6.43395832        1       1.00000000       0.08010060      -0.02129322      -0.16460977
Pt       9.03687945       6.48389518       6.51397286        1       0.00000000       0.05261618      -0.12185918       0.04157116
Ni      11.63677606       6.53824258       6.49934903        1       1.00000000       0.03060491      -0.12084630      -0.16035824
