64
Lattice="10.192288588872042 0.00608174202691071 0.006552806599499923 5.101411237530592 8.770719935963177 -0.08783490784050793 0.005350344183972318 -0.085900567933432 8.709179806346818" Properties=species:S:1:pos:R:3:tags:I:1:initial_magmoms:R:1:forces:R:3 unique_id=ede2d825288e47de81f21079ed9d10c0 stress="-0.0036384340676858806 1.5388856010883874e-06 -1.1028597831082309e-06 1.5388856010883874e-06 -0.003605774482595317 1.8659275945732992e-06 -1.1028597831082309e-06 1.8659275945732992e-06 -0.0031409754695867764" energy=-391.9650514438716 pbc="T T T"
Ni       0.04011566      -0.04689097       0.19470013        4       1.00000000       0.09659132      -0.04342007       0.22490959
Ni       2.50174519      -0.03297435       0.19726531        4       1.00000000      -0.02663485      -0.05093842       0.13925223
Pt       5.11739690      -0.02898207       0.15915613        4       0.00000000      -0.00514842      -0.05598470      -0.08539538
Ni       7.66665206      -0.01391868       0.17109039        4       1.00000000       0.07992420       0.01792278       0.13478440
Ni       1.27122879       2.19257428       0.09789533        4       1.00000000      -0.01818953      -0.00453549       0.16840661
Pt       3.78635512       2.24696688       0.17348094        4       0.00000000      -0.04840404      -0.01613379      -0.01003031
Ni       6.37770721       2.23448184       0.09706342        4       1.00000000      -0.01598350       0.08463358       0.15046772
Pt       8.92496583       2.24222298       0.10345662        4       0.00000000       0.02572067       0.02149946      -0.13441807
Ni       2.54367304       4.40803042       0.01767263        4       1.00000000       0.01031519       0.01614168      -0.02983355
Ni       5.10601312       4.40987252       0.02925407        4       1.00000000       0.00833109       0.00300217      -0.00220783
Ni       7.63642793       4.41091090       0.03945894        4       1.00000000      -0.00324261       0.02090444       0.03889629
Ni      10.20515346       4.40736704       0.03187867        4       1.00000000      -0.00425198       0.01969249      -0.00501921
Ni       3.86185308       6.54124738      -0.00271661        4       1.00000000       0.13935727      -0.10553426      -0.02424249
Ni       6.36807557       6.58261160       0.01995246        4       1.00000000       0.01244082       0.01553149      -0.04110205
Ni       8.88132177       6.52308805       0.10665567        4       1.00000000      -0.11834327      -0.10048630       0.19214658
Ni      11.48097770       6.52430572      -0.01153825        4       1.00000000      -0.02983801      -0.11906471      -0.05695664
Ni       1.31667935       0.71737934       2.20568387        3       1.00000000      -0.00459235       0.03617727       0.12390201
Ni       3.74778450       0.71863224       2.20912248        3       1.00000000      -0.11178996      -0.06206736       0.00605524
Ni       6.39196686       0.76976137       2.18640275        3       1.00000000       0.07972542       0.02907244      -0.00554616
Pt       8.97244475       0.76286757       2.23163833        3       0.00000000       0.01136530      -0.01432469       0.11363596
Ni       2.53900653       2.86496331       2.24012684        3       1.00000000       0.00237292      -0.09394153       0.18664038
Ni       5.09982680       2.91973650       2.17243046        3       1.00000000       0.00681956       0.06154030       0.02194649
Ni       7.64045447       2.92611730       2.18891390        3       1.00000000       0.01954013       0.02694401       0.05488763
Ni      10.21738871       2.89970318       2.21909537        3       1.00000000       0.04003977      -0.05875339       0.09952011
Ni       3.84459228       5.04323929       2.14070369        3       1.00000000       0.00191570      -0.11008813       0.01094225
Pt       6.37642685       5.12992546       2.10561039        3       0.00000000      -0.00424727       0.03674653       0.00693161
Ni       8.90226317       5.04919374       2.14966329        3       1.00000000      -0.00347506      -0.12475532       0.03717511
Pt      11.46917840       4.99418188       2.16579967        3       0.00000000       0.00302212      -0.07469095       0.01826003
Ni       5.15383063       7.29017850       2.09524542        3       1.00000000       0.00448616       0.01274506       0.03666120
Ni       7.60753749       7.32307074       2.13094359        3       1.00000000      -0.06507921       0.03814524       0.06313905
Pt      10.11002369       7.27002856       2.20877677        3       0.00000000      -0.02168410      -0.06797287       0.07668995
Pt      12.76948821       7.24473314       2.07540522        3       0.00000000       0.04269580      -0.08619233       0.00595630
Ni       0.07284395       1.46066597       4.29232894        2       1.00000000       0.12455290      -0.00034678      -0.02041039
Ni       2.49685486       1.43490131       4.25862404        2       1.00000000      -0.01382158       0.00144538      -0.03131538
Pt       5.07550940       1.40688112       4.19934107        2       0.00000000      -0.06247184      -0.00154017      -0.10283150
Ni       7.64672221       1.43208039       4.29455552        2       1.00000000      -0.04539033      -0.04194032      -0.06443718
Ni       1.28141382       3.59925374       4.32088473        2       1.00000000       0.03539620      -0.03930549      -0.00767572
Ni       3.77760741       3.67853977       4.24847890        2       1.00000000      -0.00939501       0.08323970      -0.15409481
Pt       6.40540730       3.65893653       4.32666149        2       0.00000000       0.02054696      -0.00480748      -0.03154783
Ni       8.97200629       3.66661322       4.23970127        2       1.00000000       0.05700514       0.10425367      -0.19343499
Ni       2.54487450       5.75044577       4.31310118        2       1.00000000      -0.00826590      -0.05150602      -0.10364750
Ni       5.09896644       5.79523374       4.29771010        2       1.00000000       0.01658938      -0.04193968      -0.09963338
Ni       7.66059647       5.83782794       4.25077165        2       1.00000000       0.05369746       0.06275979      -0.12097301
Ni      10.21026093       5.76696348       4.29260524        2       1.00000000       0.01989216      -0.06508608      -0.00051379
Pt       3.87174523       7.93686941       4.24198536        2       0.00000000       0.06045640      -0.00639231       0.06655159
Ni       6.41285656       7.97917318       4.18376099        2       1.00000000      -0.00674521      -0.00225838      -0.08587003
Ni       8.86189683       7.96994641       4.22432330        2       1.00000000      -0.16610528      -0.01201612       0.00451684
Ni      11.48216380       7.93942850       4.23212158        2       1.00000000       0.07910450      -0.09792880      -0.05994756
Pt       0.02416443      -0.09273327       6.50887760        1       0.00000000      -0.04724472       0.04468365       0.23043066
Pt       2.53295859      -0.05457430       6.43910892        1       0.00000000       0.02368071       0.07135783       0.09873801
Pt       5.11001560      -0.07641274       6.36131377        1       0.00000000      -0.06607625       0.01176574      -0.02727143
Pt       7.63313978      -0.09144547       6.49597663        1       0.00000000       0.00167839       0.04256882       0.13844988
Ni       1.27471774       2.20337355       6.39253423        1       1.00000000       0.01197090       0.09869994      -0.08947138
Pt       3.79837162       2.28181863       6.35625303        1       0.00000000      -0.02853620       0.16721294      -0.00908862
Ni       6.37296282       2.19102489       6.43446716        1       1.00000000      -0.04906054       0.06218464      -0.02956056
Pt       8.93313807       2.25182091       6.30003991        1       0.00000000      -0.00548703       0.10694235      -0.12450913
Ni       2.52197429       4.39104174       6.37056314        1       1.00000000      -0.03219962       0.11365418      -0.14047931
Ni       5.10564836       4.39824368       6.40861086        1       1.00000000      -0.05127775       0.15170520      -0.06540581
Ni       7.60303753       4.34352678       6.42144377        1       1.00000000      -0.12607877       0.03920853      -0.00786940
Ni      10.27089681       4.33957139       6.37864086        1       1.00000000       0.16469977       0.02693687      -0.14544400
Ni       3.82640921       6.43346846       6.37415445        1       1.00000000      -0.02926807      -0.06003649      -0.10941328
Ni       6.34784515       6.45818523       6.36534847        1       1.00000000      -0.01780831       0.00521678      -0.19623054
Pt       8.92126971       6.39648611       6.38584224        1       0.00000000      -0.01108590      -0.03626297       0.14352662
Ni      11.50601818       6.45272463       6.35778702        1       1.00000000       0.00328814       0.01571645      -0.17759206
