64
Lattice="10.29204656260965 -0.006904740088907283 -0.013973094869468874 5.1400436009813015 8.849506444193986 -0.08321704481074496 -0.011408984185900075 -0.0718708021704005 8.768640461830303" Properties=species:S:1:pos:R:3:tags:I:1:initial_magmoms:R:1:forces:R:3 unique_id=5bcf80578b2840ef889627a2520ae799 stress="0.00018121332783711808 4.844648101780145e-06 -9.076569727588992e-06 4.844648101780145e-06 0.00019771490497090538 4.240482922187084e-05 -9.076569727588992e-06 4.240482922187084e-05 0.00019049180591555748" energy=-396.20663415634766 pbc="T T T"
Ni      -0.01982911       0.02547272       0.21096153        4       1.00000000      -0.06656649       0.03993579       0.31334286
Ni       2.56204832      -0.00460767       0.21009896        4       1.00000000      -0.06803434      -0.01752009       0.40536651
Ni       5.13595119      -0.03515994       0.15965954        4       1.00000000      -0.02598151       0.09158189       0.33922515
Ni       7.75446665      -0.05548517       0.09021080        4       1.00000000       0.10546736      -0.12319770       0.19317208
Ni       1.24591746       2.20655131       0.09379200        4       1.00000000      -0.14561236      -0.04112296       0.22614547
Pt       3.78262447       2.20998066       0.08625665        4       0.00000000      -0.09959409      -0.03228207      -0.13020279
Pt       6.45398569       2.18632135       0.10722686        4       0.00000000       0.04154849      -0.11292231       0.23979247
Ni       9.05087277       2.17146475       0.15059291        4       1.00000000       0.06005034      -0.12080376       0.22433961
Ni       2.56413418       4.43483774       0.03392429        4       1.00000000       0.06906637      -0.00000446       0.04100578
Ni       5.10457830       4.43611364       0.14344342        4       1.00000000      -0.05136316       0.02080480       0.31675376
Pt       7.79835786       4.42975192       0.05897790        4       0.00000000       0.15522908      -0.00327712      -0.06963593
Ni      10.32075741       4.40130104       0.01893731        4       1.00000000       0.11249268      -0.12750131       0.05998734
Ni       3.82073929       6.63090104       0.13219789        4       1.00000000      -0.04665509      -0.09726448       0.26004424
Pt       6.39256198       6.67257056       0.12355012        4       0.00000000      -0.10818307      -0.00588785       0.08561589
Ni       9.01840351       6.63797277      -0.00772403        4       1.00000000      -0.02955065      -0.00287422      -0.06182690
Ni      11.59466633       6.62124115      -0.01099096        4       1.00000000       0.11692613      -0.04506303      -0.04015413
Ni       1.26068809       0.74126365       2.15389514        3       1.00000000      -0.08213783       0.12803016       0.00272886
Ni       3.82613180       0.73395291       2.18343734        3       1.00000000       0.04090014       0.01988619       0.06214748
Pt       6.47491850       0.73413468       2.24651848        3       0.00000000       0.06040059       0.17629127      -0.07448052
Ni       9.04100022       0.73333512       2.16361778        3       1.00000000       0.04667080       0.08758372       0.05654236
Ni       2.56718163       2.92221979       2.17567330        3       1.00000000      -0.03531275       0.01855324      -0.00350779
Ni       5.09943071       2.97130424       2.19297972        3       1.00000000      -0.15471643      -0.01077693      -0.05705519
Ni       7.77857052       2.94680621       2.19587468        3       1.00000000       0.21045456      -0.01678972      -0.06379803
Ni      10.26735663       2.88820768       2.15132196        3       1.00000000       0.02441016      -0.03502415       0.05928460
Ni       3.88245610       5.14486820       2.16008918        3       1.00000000       0.02536776      -0.00931454       0.11058511
Ni       6.40987472       5.14578540       2.17706553        3       1.00000000      -0.00572736       0.12857761      -0.06915365
Ni       8.98234923       5.11038352       2.19499004        3       1.00000000       0.03099439      -0.12543020       0.17240988
Pt      11.61011810       5.09636122       2.09937785        3       0.00000000       0.04308871      -0.06510321      -0.02602145
Ni       5.09743383       7.35145764       2.12111100        3       1.00000000      -0.11263902      -0.08577587      -0.09477183
Ni       7.70178228       7.34860803       2.12260546        3       1.00000000      -0.00960345      -0.13012708      -0.08366822
Pt      10.23925441       7.31084446       2.04198814        3       0.00000000       0.01872707      -0.13740365       0.01056769
Ni      12.90157165       7.33469035       2.07588171        3       1.00000000      -0.03151433      -0.07424326      -0.04303940
Ni      -0.02860441       1.47758185       4.29568817        2       1.00000000      -0.01601086       0.06970742      -0.19844917
Pt       2.58750009       1.49964192       4.28097767        2       0.00000000      -0.04296025      -0.00310792      -0.07166374
Ni       5.12562374       1.46478067       4.31038051        2       1.00000000      -0.03633360       0.04164555      -0.11590612
Ni       7.76133842       1.46439764       4.30197348        2       1.00000000       0.22968609       0.13303928      -0.07676535
Pt       1.23406739       3.69607951       4.36400414        2       0.00000000      -0.05135951      -0.03871237      -0.06547184
Ni       3.85431979       3.68490960       4.28289375        2       1.00000000      -0.02407200       0.10505443      -0.23672679
Pt       6.44562594       3.67906352       4.20233644        2       0.00000000      -0.06418662      -0.05186077       0.02439996
Ni       8.99912668       3.66855811       4.28299790        2       1.00000000       0.01598328       0.02200395      -0.23776072
Ni       2.57606769       5.82498674       4.29492739        2       1.00000000       0.09594241      -0.06725070      -0.14624781
Ni       5.10463961       5.82828828       4.23963604        2       1.00000000      -0.08515235      -0.00427054      -0.15269523
Ni       7.75740605       5.80665748       4.25571365        2       1.00000000       0.06544492      -0.04720958      -0.21704478
Ni      10.25410184       5.82180315       4.33104926        2       1.00000000      -0.07291350      -0.04429995      -0.10712683
Pt       3.84277030       8.08703930       4.18846605        2       0.00000000       0.00062757       0.01600275       0.03009198
Pt       6.40272578       8.04786753       4.14953015        2       0.00000000      -0.01676532      -0.04334532       0.02413741
Pt       8.98976594       8.01297278       4.24237137        2       0.00000000      -0.01244127       0.03839567       0.11772470
Pt      11.59449954       8.02601358       4.29401305        2       0.00000000      -0.01146230      -0.15531784       0.11198067
Pt      -0.02709170      -0.00366507       6.56841469        1       0.00000000      -0.03552683       0.09968763       0.17767103
Pt       2.58239830       0.00668617       6.58611290        1       0.00000000       0.00028792       0.13289254       0.26435299
Pt       5.17067481      -0.11465633       6.57489373        1       0.00000000       0.04867441      -0.13647339       0.17888698
Ni       7.70886992      -0.05502349       6.50854701        1       1.00000000       0.07994068       0.12613859      -0.09604933
Ni       1.29447763       2.23031596       6.49234047        1       1.00000000       0.04561447       0.16384259      -0.03544011
Ni       3.82367151       2.19269514       6.40654543        1       1.00000000      -0.01960718       0.04113383      -0.28526336
Pt       6.43902142       2.14517340       6.37929209        1       0.00000000       0.03699579       0.04412074      -0.40064158
Pt       9.04188950       2.25597728       6.45547653        1       0.00000000       0.19265610       0.19768572       0.10623638
Ni       2.50681729       4.35740547       6.46424241        1       1.00000000      -0.13841411       0.01140802      -0.10395015
Pt       5.06022364       4.33906340       6.46589241        1       0.00000000      -0.11483322       0.00943010       0.08204316
Ni       7.76224030       4.39643724       6.36816340        1       1.00000000       0.06436617       0.09887624      -0.30575656
Ni      10.29229908       4.42484696       6.44651485        1       1.00000000       0.00352479       0.23036847      -0.06505075
Pt       3.72979082       6.57529006       6.46907833        1       0.00000000      -0.15687742       0.06622852       0.15819010
Pt       6.48208276       6.53086663       6.36871018        1       0.00000000       0.01666568       0.01190383      -0.31889011
Ni       9.03642419       6.51629123       6.42212225        1       1.00000000       0.02930728      -0.12842991      -0.22351895
Ni      11.53140415       6.52377074       6.43109137        1       1.00000000      -0.11540390      -0.23082229      -0.17703739
