64
Lattice="10.16318790938126 0.02438291837095138 -0.022685056149505202 5.102710181418331 8.799977170130859 -0.02003049593415547 -0.01852227078422468 -0.008191094650819374 8.678821424934279" Properties=species:S:1:pos:R:3:tags:I:1:initial_magmoms:R:1:forces:R:3 unique_id=91507018770e420e9d344bf468a43574 stress="-7.775461737059147e-05 1.1880173757906692e-06 -4.835357023159561e-06 1.1880173757906692e-06 -5.944436264749414e-05 9.869874540517244e-06 -4.835357023159561e-06 9.869874540517244e-06 -1.9954670838116806e-05" energy=-390.97436748165836 pbc="T T T"
Ni       0.02098036      -0.01740796       0.15590581        4       1.00000000       0.04286041       0.03483922       0.19696818
Ni       2.48908249       0.00500529       0.18551621        4       1.00000000      -0.08285436       0.00723780       0.22501322
Pt       5.13549776      -0.00060787       0.18996821        4       0.00000000       0.06192552      -0.01806255       0.35598859
Ni       7.64733487      -0.01749897       0.15199038        4       1.00000000       0.12286750      -0.08296090       0.26932773
Ni       1.26998521       2.21379196       0.11480926        4       1.00000000      -0.01992778       0.05288019       0.24473615
Pt       3.77643488       2.26973130       0.18487456        4       0.00000000      -0.09411649       0.07172675       0.23785929
Ni       6.36294684       2.24980183       0.10369157        4       1.00000000      -0.03412516       0.07814428       0.24099549
Pt       8.90253700       2.26623183       0.10878687        4       0.00000000       0.01642506       0.00359174       0.21824091
Ni       2.52181886       4.44067188       0.10180603        4       1.00000000      -0.04693966       0.07736203       0.18420906
Ni       5.10371817       4.43994873       0.18271517        4       1.00000000      -0.09188239       0.09357129       0.28980161
Ni       7.58245421       4.40678166       0.09179807        4       1.00000000      -0.14328856      -0.01112203       0.16486926
Ni      10.22526287       4.41464857       0.08411826        4       1.00000000       0.16816398       0.00795981       0.20860837
Ni       3.80586712       6.57649764       0.07139127        4       1.00000000      -0.08330320      -0.08853393       0.06271949
Ni       6.33927737       6.58762771       0.06732134        4       1.00000000      -0.05479757      -0.03951247       0.03191928
Pt       8.88347506       6.54790065       0.17324660        4       0.00000000      -0.01975354      -0.08565699       0.33781169
Ni      11.49710367       6.57698116       0.08196106        4       1.00000000       0.04018891      -0.05748407       0.19368110
Ni       1.30182289       0.76870935       2.19519281        3       1.00000000      -0.06379616       0.10947140       0.07349438
Ni       3.75352454       0.71703138       2.20568260        3       1.00000000      -0.16730637      -0.03556919      -0.10283389
Ni       6.36666480       0.75050523       2.19446912        3       1.00000000       0.10142598      -0.03426496      -0.02836460
Pt       8.87730415       0.76013317       2.24441157        3       0.00000000       0.10872545       0.13179986      -0.07641790
Ni       2.50247608       2.96368730       2.23925152        3       1.00000000      -0.04188339       0.08601358       0.10831442
Ni       5.09166468       2.97453410       2.16545211        3       1.00000000      -0.09194024       0.09563126      -0.05343777
Ni       7.60502464       2.98291549       2.17175246        3       1.00000000       0.09422500      -0.02230047      -0.00736082
Ni      10.21419413       2.99342058       2.20112989        3       1.00000000       0.09015906       0.00327285       0.07650883
Ni       3.77996125       5.10365332       2.17533275        3       1.00000000      -0.15462562      -0.05164246       0.08412074
Ni       6.37089050       5.11359935       2.11212946        3       1.00000000       0.05739991       0.00012636      -0.06276755
Ni       8.93262557       5.09516568       2.18626966        3       1.00000000       0.18605230      -0.14346992      -0.02983981
Ni      11.44659533       5.14855794       2.16168096        3       1.00000000       0.02488751      -0.01296864       0.10373638
Pt       5.11005357       7.26762323       2.17402076        3       0.00000000      -0.05539027      -0.13014730      -0.02135393
Ni       7.64503187       7.37581569       2.17858511        3       1.00000000       0.00432102       0.12957248      -0.05977882
Ni      10.20458684       7.31266227       2.23849325        3       1.00000000       0.01656083      -0.10861789       0.08339654
Ni      12.67495463       7.30463303       2.15865066        3       1.00000000      -0.01920191      -0.16170195       0.06856119
Ni       0.04068726       1.48236245       4.28160671        2       1.00000000       0.12124295       0.10930632      -0.03804006
Ni       2.47311462       1.48422033       4.23919290        2       1.00000000      -0.04491215       0.06560594      -0.12242025
Pt       5.05916393       1.44019360       4.17435914        2       0.00000000      -0.14963302      -0.04887583       0.10681988
Ni       7.63018460       1.45453506       4.27590544        2       1.00000000      -0.04394953      -0.04134824       0.03078283
Ni       1.27269321       3.67130614       4.29997137        2       1.00000000       0.04368181       0.05668491      -0.11262433
Ni       3.74326383       3.72472800       4.23978227        2       1.00000000      -0.06611932       0.10225033      -0.14351842
Pt       6.36958258       3.66521541       4.24327956        2       0.00000000      -0.05578288       0.04323325       0.08585237
Ni       8.96253838       3.70064013       4.22706548        2       1.00000000       0.14945822       0.05252638      -0.19910824
Ni       2.53661753       5.84954828       4.29535060        2       1.00000000      -0.00753181      -0.05672891      -0.20161728
Ni       5.02709987       5.89327510       4.29668441        2       1.00000000      -0.10380318      -0.06695724      -0.02150202
Pt       7.62522584       5.90577242       4.19117093        2       0.00000000       0.08404408       0.07908443       0.02799527
Ni      10.23988354       5.85485355       4.24045711        2       1.00000000       0.10136808      -0.08045853      -0.13143862
Ni       3.80672692       8.01913623       4.28067377        2       1.00000000      -0.08485764      -0.15784847      -0.00777913
Ni       6.35083073       8.09111325       4.24451435        2       1.00000000      -0.01240855       0.13247442      -0.11824015
Ni       8.89977897       8.06713752       4.20938819        2       1.00000000       0.01109677      -0.03619486      -0.09284356
Ni      11.47074272       8.00354571       4.20945746        2       1.00000000       0.03976116      -0.11156843      -0.09415162
Pt      -0.01557696      -0.05136585       6.41237220        1       0.00000000       0.11232669      -0.04243817       0.00719018
Pt       2.50754695      -0.00706407       6.40536786        1       0.00000000      -0.06872019      -0.02003299      -0.00337724
Pt       5.09191106      -0.02153143       6.35766590        1       0.00000000       0.07729032       0.00810482      -0.29464770
Pt       7.61307664      -0.04103860       6.39831588        1       0.00000000      -0.10871281      -0.03553231       0.05792754
Ni       1.24607036       2.25338066       6.39485831        1       1.00000000      -0.00763038       0.04979934      -0.19459098
Pt       3.74392309       2.28490928       6.34537155        1       0.00000000      -0.07465134       0.12032019      -0.30366463
Ni       6.35576828       2.22943851       6.41710570        1       1.00000000      -0.05017484       0.00814551      -0.12095052
Pt       8.89998427       2.30431428       6.29493806        1       0.00000000       0.00317995       0.11608859      -0.38724470
Ni       2.48131072       4.44403697       6.39181270        1       1.00000000      -0.02956190       0.07931601      -0.20379681
Pt       5.08177406       4.48299149       6.45497951        1       0.00000000      -0.00970363       0.07531716       0.20652846
Ni       7.61213671       4.40954266       6.42013790        1       1.00000000      -0.03984515       0.01856585      -0.13520450
Ni      10.22909163       4.40913008       6.37661275        1       1.00000000       0.20921761      -0.04841738      -0.21533005
Ni       3.78198934       6.56462118       6.38781655        1       1.00000000      -0.11883833      -0.03111674      -0.23596079
Ni       6.34868238       6.58825788       6.40171592        1       1.00000000       0.09133435       0.05011418      -0.25434469
Pt       8.93816008       6.49856535       6.35680395        1       0.00000000       0.08676572      -0.22098954      -0.29697599
Ni      11.48272505       6.53944042       6.36927917        1       1.00000000       0.07501322      -0.06761517      -0.21245107
