64
Lattice="10.15694826207725 -0.006596111443969199 0.002974610879643073 5.072761730962009 8.71132894867314 -0.11680474133344523 0.00242875961281894 -0.11152681124508482 8.664813320190326" Properties=species:S:1:pos:R:3:tags:I:1:initial_magmoms:R:1:forces:R:3 unique_id=f5e2ca58cb1e4ebc9bc8c84e3aa4b0eb stress="-0.006215458346006453 1.3493054026183507e-05 -9.758863670568332e-06 1.3493054026183507e-05 -0.006147046518201339 6.943306289770081e-06 -9.758863670568332e-06 6.943306289770081e-06 -0.005350450645299189" energy=-389.8886535314771 pbc="T T T"
Ni       0.03928416      -0.05757184       0.19709488        4       1.00000000       0.06479132      -0.05833299       0.10468027
Ni       2.48848210      -0.04313548       0.20334149        4       1.00000000      -0.02025598      -0.06228497       0.07362861
Pt       5.10031254      -0.04972086       0.16718184        4       0.00000000      -0.01447891      -0.03597430      -0.19278751
Ni       7.63700947      -0.06866268       0.19929034        4       1.00000000       0.05257689      -0.13393783       0.13558694
Ni       1.26066190       2.18178471       0.10228762        4       1.00000000      -0.02134970      -0.00747255       0.11218302
Pt       3.75914825       2.22671164       0.17247154        4       0.00000000      -0.04493181      -0.05277743      -0.08499146
Ni       6.35175982       2.21045362       0.09845036        4       1.00000000      -0.01956613       0.02943027       0.12246309
Pt       8.89608411       2.20898775       0.10141196        4       0.00000000       0.01737351      -0.01047006      -0.20776389
Ni       2.50661503       4.38855939       0.05016539        4       1.00000000      -0.01431372      -0.02637023       0.04332213
Ni       5.07055420       4.38156598       0.01497504        4       1.00000000      -0.04994023      -0.00029562      -0.02055886
Ni       7.60718696       4.37146834       0.02807970        4       1.00000000       0.01594741      -0.02821534       0.02215194
Ni      10.19005064       4.37622942       0.06068529        4       1.00000000       0.04763345       0.00452584       0.07722461
Ni       3.80638318       6.50032664       0.02366923        4       1.00000000       0.03630538      -0.08936495       0.03229312
Ni       6.33254252       6.53195061      -0.00332760        4       1.00000000      -0.00814312      -0.02766544      -0.08741899
Ni       8.84501816       6.46083316       0.09679505        4       1.00000000      -0.08169371      -0.11065404       0.12700184
Ni      11.46053079       6.45975343       0.00861050        4       1.00000000       0.03913894      -0.08887984      -0.02447942
Ni       1.30075535       0.71100612       2.19467862        3       1.00000000      -0.01667372       0.05021545       0.08360666
Ni       3.73015538       0.69064382       2.19305908        3       1.00000000      -0.08498809      -0.04757547       0.01629190
Ni       6.38107530       0.71929976       2.17618053        3       1.00000000       0.05640203      -0.01617012       0.02646178
Pt       8.91420956       0.70158945       2.20498214        3       0.00000000       0.04493533      -0.00498438       0.14634010
Ni       2.49381769       2.90209721       2.21547849        3       1.00000000      -0.01104684       0.01160661       0.08853908
Ni       5.06949625       2.89549223       2.15241135        3       1.00000000      -0.02605666       0.06586408       0.03324829
Ni       7.61557016       2.88754023       2.17109157        3       1.00000000       0.01670720       0.01372087       0.03976989
Ni      10.20856422       2.91413145       2.19294796        3       1.00000000       0.05028942       0.01199939       0.02929468
Ni       3.76390553       5.04466453       2.11360428        3       1.00000000       0.00319795      -0.02968094       0.01169648
Pt       6.34303174       5.08787373       2.07675819        3       0.00000000       0.00355840       0.01019169      -0.00785764
Ni       8.90237376       4.99480478       2.12289495        3       1.00000000       0.01631880      -0.08772003       0.03425510
Ni      11.45109945       5.00093900       2.12846962        3       1.00000000       0.01272832      -0.05021285       0.07290600
Ni       5.09132670       7.21913296       2.04893908        3       1.00000000      -0.02454347      -0.00557267       0.01369820
Ni       7.59160315       7.26262053       2.09481556        3       1.00000000      -0.01984282       0.00067478       0.03802712
Pt      10.15593221       7.15533551       2.15895694        3       0.00000000       0.01640286      -0.08968931       0.07115748
Ni      12.69746953       7.15345784       2.05388391        3       1.00000000       0.03393303      -0.10794510       0.03407018
Ni       0.06663420       1.43698479       4.25237414        2       1.00000000       0.07286525      -0.00674479      -0.03081421
Ni       2.48172111       1.41625648       4.22241932        2       1.00000000      -0.00135470       0.02608757      -0.02862968
Pt       5.05332409       1.37435740       4.16695139        2       0.00000000      -0.02968240       0.01242874      -0.13950462
Ni       7.61806368       1.39604327       4.26079321        2       1.00000000      -0.05132261      -0.05916321      -0.04262598
Ni       1.27174450       3.58491202       4.25012448        2       1.00000000       0.02166411      -0.01334641      -0.03749825
Ni       3.74980285       3.64672843       4.20082114        2       1.00000000       0.00589595       0.05804429      -0.12422222
Pt       6.37850762       3.61770957       4.28880661        2       0.00000000       0.02034285      -0.01441099      -0.03681759
Ni       8.94462477       3.62559958       4.19181714        2       1.00000000       0.03284156       0.06677701      -0.13414168
Ni       2.50792222       5.69413423       4.21925803        2       1.00000000      -0.04020936      -0.04075922      -0.14376334
Ni       5.06601982       5.73999494       4.24842616        2       1.00000000       0.00089275      -0.03715713      -0.09616165
Ni       7.63149926       5.78500959       4.19841455        2       1.00000000       0.07184335       0.04142641      -0.09207950
Ni      10.18631643       5.69452782       4.22518732        2       1.00000000       0.03264112      -0.04296187      -0.02442917
Pt       3.81333806       7.84406757       4.15278002        2       0.00000000       0.00894030      -0.00033776       0.03502705
Ni       6.37112352       7.90880265       4.12386760        2       1.00000000      -0.03721319       0.00682909      -0.07352119
Ni       8.82759565       7.88855538       4.15415464        2       1.00000000      -0.08035881      -0.02577865      -0.02594160
Ni      11.44143841       7.85269059       4.16819516        2       1.00000000       0.06584131      -0.07604750      -0.05476824
Pt       0.01967841      -0.11303388       6.46546926        1       0.00000000      -0.08145233       0.07340500       0.13746388
Pt       2.52195052      -0.07398592       6.40628051        1       0.00000000       0.07349196       0.08335364       0.06905778
Pt       5.09301654      -0.09616410       6.32318830        1       0.00000000      -0.09443688       0.01850635       0.04980031
Pt       7.60926661      -0.12020708       6.46840202        1       0.00000000       0.03763086       0.08619751       0.18956368
Ni       1.26705131       2.17651361       6.34766417        1       1.00000000       0.01276616       0.08144481      -0.06229068
Pt       3.78155092       2.25599475       6.31204901        1       0.00000000      -0.03171759       0.12808326       0.06791494
Ni       6.34612498       2.15744161       6.39173963        1       1.00000000      -0.03759080       0.05975388       0.01861935
Pt       8.89967897       2.21611914       6.25143384        1       0.00000000      -0.00262754       0.08652775      -0.03601885
Ni       2.50506184       4.34963477       6.32369262        1       1.00000000      -0.01228575       0.10681352      -0.07427111
Ni       5.08026185       4.35592678       6.35662142        1       1.00000000      -0.04277441       0.13676251      -0.03494725
Ni       7.56428831       4.29259621       6.37471113        1       1.00000000      -0.10132426       0.05729937       0.02926894
Ni      10.23864502       4.28401629       6.33029423        1       1.00000000       0.12856301       0.04038749      -0.05529340
Ni       3.80420626       6.36922517       6.32468336        1       1.00000000      -0.03350541       0.00134019      -0.03512481
Ni       6.31670128       6.39375684       6.30197235        1       1.00000000       0.00828661       0.04873064      -0.18456838
Pt       8.88427878       6.32685513       6.33281213        1       0.00000000       0.01034518       0.01057645       0.11837232
Ni      11.45892937       6.38103386       6.30063774        1       1.00000000       0.00258841       0.05994956      -0.11169556
