64
Lattice="10.276229637675323 -0.006272502316110055 0.01861240816740948 5.132682672486611 8.813919141939373 -0.03882957598959244 0.015196967631521138 -0.045382848676710434 8.758338354095557" Properties=species:S:1:pos:R:3:tags:I:1:initial_magmoms:R:1:forces:R:3 unique_id=0efcf62d9026479a85782f3632c9bcfc stress="0.00018015536470655097 7.472190447902659e-07 -7.959169209574783e-06 7.472190447902659e-07 0.0001977797990670646 1.7141792611034807e-05 -7.959169209574783e-06 1.7141792611034807e-05 0.0001835843487598271" energy=-395.61902015456656 pbc="T T T"
Ni       0.01579352      -0.00460975       0.18027819        4       1.00000000       0.07634665       0.03953552       0.31791430
Ni       2.56448901      -0.00200785       0.20676944        4       1.00000000       0.01042515       0.01617538       0.40218844
Ni       5.13753541      -0.02635120       0.17134627        4       1.00000000      -0.03247624       0.03508886       0.23580431
Ni       7.70140476      -0.06473898       0.20544062        4       1.00000000      -0.03250700      -0.07255089       0.38092651
Ni       1.28366962       2.20943926       0.10105330        4       1.00000000       0.01976729       0.01548565       0.24528416
Pt       3.77104417       2.16458722       0.17241738        4       0.00000000      -0.08338611      -0.02176088       0.14315530
Pt       6.43498289       2.15640528       0.10387801        4       0.00000000       0.03810522      -0.05641203      -0.04630874
Pt       9.06406580       2.24475440       0.12518419        4       0.00000000       0.08615335       0.05667723       0.14348354
Ni       2.53186269       4.43093811       0.04446900        4       1.00000000      -0.04714283       0.02058021       0.00295099
Pt       5.09126903       4.44683922       0.08253783        4       0.00000000      -0.07305155       0.04285607      -0.05665124
Ni       7.72199639       4.42427466       0.06586673        4       1.00000000      -0.03861596       0.03210390       0.08691724
Ni      10.30815628       4.42945649       0.05580601        4       1.00000000       0.13418713       0.13148600       0.02662336
Ni       3.80211400       6.63632962       0.07453258        4       1.00000000      -0.04701907       0.05263522       0.17042242
Pt       6.44858880       6.66644223       0.07680580        4       0.00000000       0.00422806      -0.02156559      -0.16171438
Ni       9.00128857       6.60454375       0.12005117        4       1.00000000      -0.02883654      -0.03586032       0.09862603
Ni      11.58320836       6.60036834       0.05056842        4       1.00000000       0.11196579      -0.05262809      -0.02033815
Ni       1.32070806       0.73570973       2.21570088        3       1.00000000       0.04391875       0.05122163       0.14450005
Ni       3.82460585       0.74807933       2.23847514        3       1.00000000      -0.05191420       0.12270827       0.11276512
Ni       6.41642157       0.75350055       2.23389095        3       1.00000000      -0.04690376       0.10436064       0.16232161
Pt       9.01080396       0.72339184       2.23660899        3       0.00000000       0.05357653       0.21839445      -0.04540384
Ni       2.56337250       2.89648117       2.25666103        3       1.00000000       0.01992947      -0.08970008       0.15878988
Ni       5.12030606       2.91938667       2.25151068        3       1.00000000      -0.15268485      -0.01421202       0.00685725
Ni       7.68357859       2.91681465       2.23408122        3       1.00000000       0.01084095      -0.08381760      -0.05540062
Ni      10.32986415       2.90016431       2.25756973        3       1.00000000       0.13439335      -0.06929464       0.15572948
Ni       3.86129060       5.12665714       2.19785365        3       1.00000000      -0.01195911      -0.06026229       0.03635005
Ni       6.40975150       5.12723880       2.19723422        3       1.00000000      -0.00380338      -0.01590834      -0.07670731
Pt       8.93905757       5.08077764       2.20754643        3       0.00000000      -0.02062433      -0.07150617      -0.00987659
Pt      11.62760804       5.07493993       2.20880509        3       0.00000000       0.06407182      -0.08494316       0.07307448
Ni       5.15267285       7.31655693       2.16327393        3       1.00000000       0.04406364      -0.04536976      -0.01641030
Ni       7.65883096       7.36394173       2.18548560        3       1.00000000      -0.12843522      -0.00610326       0.08007765
Pt      10.28199135       7.36174760       2.10553809        3       0.00000000       0.02564047      -0.04204322      -0.00777735
Ni      12.87796631       7.30260092       2.14290976        3       1.00000000       0.10150866      -0.12674036       0.03131305
Ni       0.06997113       1.49499027       4.31516932        2       1.00000000       0.15315198       0.07158246      -0.06982967
Ni       2.52984107       1.49518860       4.29482324        2       1.00000000      -0.05704950       0.08843536      -0.08847321
Ni       5.13180447       1.46833139       4.30002059        2       1.00000000      -0.13268558       0.00298108      -0.15677053
Ni       7.71359439       1.46241762       4.33603871        2       1.00000000       0.04721149      -0.06152784      -0.05725653
Ni       1.29489184       3.63672512       4.36060410        2       1.00000000       0.02920822      -0.03086369      -0.03393033
Ni       3.80851818       3.65596106       4.28521559        2       1.00000000      -0.11769564      -0.03473841      -0.24160419
Pt       6.45990760       3.60362169       4.32276356        2       0.00000000       0.02820465      -0.07562255      -0.09171847
Ni       9.03564161       3.66995655       4.32151032        2       1.00000000       0.12167758      -0.02458112      -0.12890253
Ni       2.55904075       5.79008021       4.36029808        2       1.00000000      -0.00543896      -0.10474072      -0.01910466
Pt       5.14267110       5.82526026       4.31227701        2       0.00000000      -0.00135585      -0.03317779      -0.13071920
Ni       7.70956972       5.83029327       4.33380722        2       1.00000000      -0.01707769      -0.02132100      -0.09706797
Ni      10.29999468       5.77974829       4.36633669        2       1.00000000       0.06520612      -0.09373138      -0.03713910
Pt       3.88907486       8.05360566       4.27336637        2       0.00000000      -0.01583040      -0.00627672       0.16941725
Ni       6.42756567       8.07308391       4.26835061        2       1.00000000      -0.05796281       0.08465489      -0.13995626
Pt       8.91888391       8.07013444       4.24915788        2       0.00000000      -0.06338658       0.00538711       0.14478147
Pt      11.56583578       8.03028491       4.27768483        2       0.00000000       0.00978801      -0.02170061       0.12686778
Pt       0.02333494      -0.06020753       6.52922275        1       0.00000000       0.07170555      -0.03100847       0.14620034
Pt       2.55073728      -0.02364067       6.53062362        1       0.00000000      -0.10223571       0.04988535       0.18773347
Pt       5.15387716      -0.02478792       6.55545482        1       0.00000000       0.05207082       0.03166487       0.02387965
Pt       7.71962824      -0.07379749       6.58054965        1       0.00000000      -0.12077804      -0.06086927       0.21141162
Ni       1.29180852       2.23583582       6.44874929        1       1.00000000       0.01410376       0.13289620      -0.20072366
Pt       3.84450756       2.28594019       6.38136441        1       0.00000000      -0.03574485       0.23870421      -0.25838522
Ni       6.43346153       2.20528172       6.41486808        1       1.00000000      -0.02683166       0.01480160      -0.23236597
Pt       9.01558320       2.26619488       6.37543976        1       0.00000000      -0.00738654       0.11659881      -0.36376666
Ni       2.54316455       4.41359125       6.44073144        1       1.00000000      -0.06656740       0.09809113      -0.24064245
Ni       5.15158807       4.40457646       6.41042534        1       1.00000000      -0.00351991       0.10132419      -0.20433700
Ni       7.67731522       4.37116831       6.46799196        1       1.00000000      -0.18077233      -0.00909280      -0.17231048
Ni      10.34599288       4.36866752       6.45621087        1       1.00000000       0.23479514      -0.01539769      -0.24238361
Ni       3.84214906       6.50662890       6.47092823        1       1.00000000      -0.05118739      -0.16112916      -0.08543793
Ni       6.41892360       6.52543571       6.39220114        1       1.00000000       0.01398589      -0.02549843      -0.26095845
Pt       9.00681488       6.44756490       6.48346831        1       0.00000000       0.02452505      -0.11455604       0.00955104
Ni      11.59336073       6.49721252       6.47378603        1       1.00000000       0.01811046      -0.07980390      -0.18554523
