64
Lattice="9.862914016570796 0.004032363333385967 -0.028303283012553068 4.934949137369405 8.539644379174641 -0.018928385137709516 -0.023109533808779475 -0.004503557085034549 8.434093194182903" Properties=species:S:1:pos:R:3:tags:I:1:initial_magmoms:R:1:forces:R:3 unique_id=617ba5f3385b4b00baf900e9b414f6e7 stress="0.0030784035066114754 -4.356460435281374e-06 3.435946857553639e-06 -4.356460435281374e-06 0.0030938123724773142 -2.577697623287099e-06 3.435946857553639e-06 -2.577697623287099e-06 0.0027556186821761156" energy=-377.45035418081443 pbc="T T T"
Ni       0.00033804       0.00172465       0.10979683        4       1.00000000      -0.00932382      -0.01094271       0.00515510
Ni       2.45598069      -0.00671195       0.09581020        4       1.00000000      -0.03133505      -0.01643433       0.03015082
Ni       4.92545546      -0.00673045       0.09165362        4       1.00000000      -0.02509875      -0.00799024       0.05713332
Ni       7.39485427      -0.00264137       0.08658029        4       1.00000000      -0.00755795      -0.03426634       0.00978254
Ni       1.21954031       2.12997039       0.09276279        4       1.00000000      -0.04132258      -0.01109408      -0.00433838
Ni       3.66167079       2.11498507       0.06124405        4       1.00000000      -0.07153461      -0.02671784       0.01532252
Ni       6.19619851       2.11430626       0.03106752        4       1.00000000       0.03031072      -0.03495158      -0.07379803
Ni       8.63602996       2.13821611       0.06702968        4       1.00000000       0.00737014       0.00868707      -0.04016411
Ni       2.45589591       4.26940115       0.11469645        4       1.00000000      -0.00943465       0.01331345       0.10776362
Ni       4.92807001       4.30510486       0.06111861        4       1.00000000      -0.04498430       0.06872648       0.01023183
Ni       7.40128089       4.27543940       0.08046428        4       1.00000000      -0.01760327       0.00801377       0.02301229
Ni       9.86012037       4.27249771       0.07426516        4       1.00000000      -0.01526997       0.00586101       0.00817287
Ni       3.69377457       6.41451720       0.22165241        4       1.00000000      -0.02153672       0.03543530       0.16505279
Ni       6.17138413       6.41257200       0.07969148        4       1.00000000      -0.00703129       0.01801543      -0.00946752
Ni       8.62846177       6.40461750       0.07779483        4       1.00000000      -0.01872341      -0.00438495       0.01872218
Ni      11.08647445       6.40492939       0.06841572        4       1.00000000      -0.03170785      -0.00941073      -0.00189710
Ni       1.22461585       0.70851051       2.12532867        3       1.00000000      -0.00566353      -0.00046786       0.01582198
Ni       3.66907137       0.66431081       2.12368409        3       1.00000000      -0.00235004      -0.01011506       0.03584220
Ni       6.18371898       0.66412208       2.11190671        3       1.00000000       0.01545220      -0.02034288       0.02095077
Ni       8.63323238       0.74198724       2.05748134        3       1.00000000       0.01133063      -0.00668245       0.00358217
Ni       2.40178419       2.83255836       2.09794948        3       1.00000000       0.00143921      -0.02665251       0.04373146
Pt       4.95954623       2.82582782       2.07190499        3       0.00000000      -0.00487006      -0.00500876      -0.01110035
Ni       7.45132439       2.85439747       2.10312806        3       1.00000000       0.02570359       0.01188356      -0.02242529
Ni       9.85672241       2.85466542       2.09700248        3       1.00000000       0.00119315       0.01214660      -0.01369801
Ni       3.67289768       5.01747495       2.11503735        3       1.00000000       0.00605631      -0.01440833       0.13811791
Ni       6.19599023       5.02114733       2.10530544        3       1.00000000       0.01683263      -0.00273095       0.00860522
Ni       8.63373018       4.98644268       2.10543679        3       1.00000000       0.00738396       0.00013060      -0.00332690
Ni      11.07349623       4.98510382       2.09270352        3       1.00000000      -0.02122554      -0.00382057       0.02691064
Ni       4.96863741       7.12131935       2.08994772        3       1.00000000       0.05894378       0.02540143       0.08262272
Ni       7.40339734       7.11491649       2.10729309        3       1.00000000       0.02168339      -0.00782316       0.01156565
Ni       9.85043638       7.10704572       2.10086225        3       1.00000000      -0.02463009      -0.01638591       0.01645457
Ni      12.28622908       7.11247095       2.06814569        3       1.00000000      -0.06042895      -0.00126041       0.09158936
Ni       0.00960280       1.47133527       4.18104305        2       1.00000000      -0.01413065       0.00903269      -0.07423750
Ni       2.43217544       1.37798808       4.18197745        2       1.00000000       0.00088102      -0.00114895      -0.04291804
Ni       4.93346547       1.36830944       4.20035333        2       1.00000000      -0.02463040      -0.00530062      -0.04832426
Ni       7.36895659       1.47427075       4.16223213        2       1.00000000       0.01207699       0.01368006      -0.09507277
Ni       1.16217900       3.56021267       4.18071929        2       1.00000000      -0.02186196       0.02879981      -0.04173190
Pt       3.65681377       3.56141734       4.22331019        2       0.00000000       0.00601806       0.00552279       0.02548484
Ni       6.21482466       3.57098367       4.19050152        2       1.00000000       0.00732622       0.03849292      -0.07345518
Ni       8.62282745       3.56985315       4.15921528        2       1.00000000       0.00030819       0.01617949      -0.05945160
Ni       2.37891279       5.69732745       4.15847508        2       1.00000000      -0.03817482       0.02646976       0.04634172
Ni       4.99309692       5.69304584       4.14938292        2       1.00000000       0.02339407       0.01506963       0.01862081
Ni       7.41357564       5.69400181       4.16008813        2       1.00000000       0.02903144       0.00385403      -0.04685019
Ni       9.83057445       5.69211769       4.15166320        2       1.00000000      -0.02671139       0.00236839      -0.04264722
Pt       3.69070999       7.86172136       4.13052832        2       0.00000000      -0.00001805      -0.00515910       0.06038707
Ni       6.20721631       7.82608115       4.16452410        2       1.00000000       0.01516535       0.00470836      -0.03279749
Ni       8.62080015       7.81409700       4.16142540        2       1.00000000       0.00075689      -0.01336984      -0.02132773
Ni      11.03636704       7.82474561       4.15542164        2       1.00000000      -0.01733831       0.00429475      -0.02058886
Ni       0.03018395       0.05062389       6.24500871        1       1.00000000       0.05854457       0.02543010      -0.02791854
Ni       2.46421441      -0.00364983       6.21790542        1       1.00000000       0.03726500      -0.01202786      -0.02403316
Ni       4.90716754      -0.00411457       6.21516986        1       1.00000000       0.00229342      -0.01827434       0.00289585
Ni       7.34156809       0.05448654       6.22287697        1       1.00000000      -0.01762503       0.03081613      -0.02987420
Ni       1.21846058       2.13235935       6.21716189        1       1.00000000       0.01895421      -0.00400619      -0.06654756
Ni       3.68682417       2.08930447       6.24106822        1       1.00000000       0.02395703      -0.05686995      -0.00438124
Ni       6.15508685       2.13506991       6.18876253        1       1.00000000       0.01984000       0.00076529      -0.11933512
Ni       8.61776914       2.14934533       6.19063633        1       1.00000000       0.01706550       0.00722104      -0.08764087
Ni       2.38489049       4.22930227       6.26286836        1       1.00000000      -0.07248275      -0.00894489       0.06751757
Ni       4.98764125       4.22822990       6.23403746        1       1.00000000       0.10599196      -0.01458015      -0.01258253
Ni       7.40571374       4.26877821       6.20060858        1       1.00000000       0.06581508       0.00223288      -0.02475880
Ni       9.83286870       4.26952871       6.18965600        1       1.00000000      -0.02869045       0.00120095      -0.03921139
Pt       3.68968307       6.37254122       6.31244595        1       0.00000000       0.02778708      -0.04044249       0.18471877
Ni       6.21618068       6.40450233       6.19668347        1       1.00000000       0.05448271       0.00296463      -0.06293083
Ni       8.62038346       6.40431310       6.19230899        1       1.00000000       0.01967822       0.00139540      -0.02258833
Ni      11.02278840       6.40610593       6.18374171        1       1.00000000      -0.01703646       0.00390224      -0.05084014
