64
Lattice="10.150771427609586 0.009997454698267178 -0.0029813533795691963 5.084043763546735 8.781816096503702 0.003796341205122017 -0.0024342648409556135 0.004984648274324244 8.687854835885073" Properties=species:S:1:pos:R:3:tags:I:1:initial_magmoms:R:1:forces:R:3 unique_id=3e15ee63cafb40f4a474a263bce650c4 stress="6.574530573683762e-05 -2.5290629227982032e-06 9.785820302481701e-06 -2.5290629227982032e-06 6.863977875144756e-05 2.3528517761480448e-06 9.785820302481701e-06 2.3528517761480448e-06 7.6697178851802e-05" energy=-391.3405716016737 pbc="T T T"
Ni       0.02979590      -0.00796676       0.18590426        4       1.00000000       0.10726274       0.02716590       0.27715054
Ni       2.51398490      -0.02570611       0.20045468        4       1.00000000      -0.03217619      -0.03267785       0.23968037
Ni       5.07317397      -0.02112916       0.07732794        4       1.00000000      -0.03337263      -0.00705187       0.08114758
Ni       7.61917240      -0.00509804       0.14631997        4       1.00000000       0.08002149       0.04006726       0.25061070
Ni       1.22935294       2.20417569       0.11267438        4       1.00000000      -0.09251479       0.04101825       0.15725764
Pt       3.74681404       2.20598698       0.18356529        4       0.00000000      -0.10597675      -0.01020621       0.30189055
Pt       6.39921918       2.21769364       0.09055167        4       0.00000000       0.06941412       0.09626177      -0.03826205
Ni       8.92755858       2.24565701       0.14290275        4       1.00000000       0.10271431       0.11908397       0.19332550
Ni       2.52936324       4.42040017       0.06590017        4       1.00000000      -0.04077089       0.06129642       0.00315911
Ni       5.06573182       4.44240492       0.07310750        4       1.00000000      -0.04582062       0.05069429       0.02818027
Ni       7.65458990       4.42778697       0.08016386        4       1.00000000       0.12486107       0.07590557       0.06084034
Ni      10.14217524       4.38999434       0.07444075        4       1.00000000      -0.03949595       0.01008111       0.01873285
Ni       3.84011767       6.57065069       0.06986321        4       1.00000000       0.12158087      -0.03412075      -0.00742154
Ni       6.34463191       6.61027426       0.07992964        4       1.00000000      -0.00636833       0.08283090      -0.05316339
Ni       8.86216992       6.57681488       0.15061046        4       1.00000000      -0.11814605      -0.05686221       0.17041666
Ni      11.41846438       6.58345409       0.04159547        4       1.00000000      -0.08644488      -0.05944688      -0.09186994
Ni       1.30992199       0.76679556       2.16597459        3       1.00000000       0.02975382       0.15096545       0.07611235
Ni       3.75886462       0.73737918       2.20714124        3       1.00000000      -0.12880539      -0.01151195       0.03418879
Ni       6.33227342       0.76457533       2.18659101        3       1.00000000       0.04777540       0.02397355      -0.05149281
Pt       8.92165451       0.81717298       2.17688118        3       0.00000000      -0.01411069       0.02458363       0.08272683
Ni       2.52510000       2.90152405       2.24994467        3       1.00000000       0.00414269      -0.05753568       0.14989283
Ni       5.06049510       2.94524077       2.21146840        3       1.00000000      -0.05504356       0.03216227      -0.03595616
Ni       7.64454902       2.96372697       2.20486601        3       1.00000000       0.05824352       0.06963479       0.06817732
Ni      10.16002464       2.93804472       2.19097534        3       1.00000000       0.03968458      -0.00111684       0.11327121
Ni       3.82551577       5.07874567       2.18460607        3       1.00000000      -0.01624612      -0.11855593       0.01698043
Pt       6.35375218       5.15373714       2.14344207        3       0.00000000      -0.01210674       0.06264692      -0.04039207
Ni       8.87515285       5.09325650       2.18657057        3       1.00000000       0.01252118      -0.06187387       0.05412249
Pt      11.41277348       5.04051587       2.19827392        3       0.00000000       0.00477785      -0.09430526      -0.00197734
Ni       5.11171212       7.31815843       2.14357612        3       1.00000000      -0.02725870       0.00167637      -0.03581000
Ni       7.60149238       7.33957555       2.15246413        3       1.00000000      -0.01193036      -0.02473727      -0.03630658
Pt      10.08384749       7.34949164       2.19693109        3       0.00000000      -0.06655161      -0.02400009      -0.01064347
Pt      12.71618086       7.28849360       2.13678770        3       0.00000000       0.06345698      -0.07581949      -0.02412903
Ni       0.03086666       1.52985754       4.30831211        2       1.00000000       0.07878002       0.06820022       0.01958184
Ni       2.50091636       1.51483716       4.26924591        2       1.00000000      -0.01421345       0.06073855      -0.00943867
Pt       5.06832259       1.41438844       4.24525151        2       0.00000000      -0.09799685       0.00344858       0.06376232
Ni       7.63054803       1.48945936       4.29938293        2       1.00000000       0.05588452       0.01196918      -0.03152008
Ni       1.27160206       3.65268700       4.35420372        2       1.00000000       0.01671922      -0.04216284      -0.00713268
Ni       3.76217903       3.71754413       4.27895203        2       1.00000000      -0.04472844       0.03313569      -0.15993336
Pt       6.37084958       3.69969930       4.34654059        2       0.00000000       0.01872662      -0.00032554      -0.03836142
Ni       8.93271888       3.70336625       4.28246116        2       1.00000000       0.11519778       0.05309495      -0.14345896
Ni       2.52116635       5.80050335       4.36824480        2       1.00000000      -0.05018511      -0.08836043      -0.08483501
Ni       5.05042503       5.83024088       4.34645565        2       1.00000000      -0.06359662      -0.03480681      -0.11016784
Ni       7.66163730       5.84814774       4.31246748        2       1.00000000       0.17034082       0.00242694      -0.13464548
Ni      10.17182956       5.82729758       4.32941982        2       1.00000000       0.03138848      -0.12396477      -0.05422436
Pt       3.78533841       8.00416305       4.32503643        2       0.00000000      -0.03769938      -0.04380082       0.17391247
Pt       6.40602653       8.03025553       4.22834591        2       0.00000000       0.04420126       0.04278099       0.10351531
Ni       8.91063375       8.02777557       4.31299888        2       1.00000000      -0.03633591      -0.11983521       0.04574890
Ni      11.38890657       8.00382851       4.32619925        2       1.00000000      -0.00604125      -0.17058717      -0.02931670
Pt      -0.00014764      -0.03251037       6.51199689        1       0.00000000       0.01320231      -0.08958763       0.16328983
Pt       2.57840107       0.01080010       6.47901862        1       0.00000000      -0.03481360       0.03687922       0.13825760
Ni       5.07490007      -0.01334436       6.42626534        1       1.00000000      -0.06217439      -0.03247056      -0.19880835
Pt       7.50896630      -0.02742875       6.47771789        1       0.00000000      -0.11821915      -0.05471747       0.06689134
Ni       1.27076883       2.25820997       6.41191808        1       1.00000000       0.02180974       0.04273429      -0.14367010
Pt       3.80804941       2.30638704       6.37815986        1       0.00000000       0.01978493       0.20273171      -0.29426657
Ni       6.33769469       2.22475692       6.37116542        1       1.00000000      -0.04755526       0.03417025      -0.22724022
Pt       8.88498029       2.30369065       6.42361338        1       0.00000000      -0.01730850       0.11163506      -0.02001012
Ni       2.51465343       4.44015595       6.40876863        1       1.00000000      -0.04636241       0.07805397      -0.18445705
Ni       5.07801119       4.45144298       6.43630424        1       1.00000000      -0.02116609       0.13556168      -0.11810600
Ni       7.58573818       4.42109042       6.44466608        1       1.00000000      -0.08950987       0.03151369      -0.07387290
Ni      10.21470716       4.40394874       6.41127419        1       1.00000000       0.19922034      -0.03858292      -0.18067251
Ni       3.80168814       6.50154173       6.43798859        1       1.00000000      -0.06200682      -0.13337267      -0.12195355
Ni       6.32830147       6.52168064       6.43566812        1       1.00000000       0.00800328      -0.04744014      -0.21394836
Pt       8.93081157       6.51324268       6.43469674        1       0.00000000       0.06330700      -0.11149781       0.09255126
Ni      11.44220004       6.54087794       6.40871478        1       1.00000000       0.06027639      -0.11778844      -0.23791059
