64
Lattice="10.317509975089592 -0.016116737715310855 0.036685383400198106 5.144797483257209 8.891273287587143 0.013922384093015702 0.0 0.0 21.559828365565266" Properties=species:S:1:pos:R:3:tags:I:1:initial_magmoms:R:1:forces:R:3 unique_id=c6cd04ea8eb444e286e9509ced554ed5 energy=-375.72021385648463 stress="0.005359094969394376 -8.118010966927923e-06 0.0005038985455351259 -8.118010966927923e-06 0.005346738959520191 0.00011973723984201742 0.0005038985455351259 0.00011973723984201742 -0.0022061022664558658" pbc="T T T"
Ni      -0.01588084       0.02733545       0.13880289        1       1.00000000      -0.03269781       0.04441240      -0.01307231
Ni       2.58073557       0.00111219       0.15291620        2       1.00000000      -0.01088314       0.02137926      -0.11481405
Ni       5.16174652      -0.02030912       0.11671052        1       1.00000000       0.01407061       0.21208643      -0.38820918
Ni       7.76403951      -0.04760236       0.07658445        1       1.00000000       0.01935760      -0.03604201       0.38691036
Ni       1.26946434       2.21566702       0.02488498        0       1.00000000      -0.01890865      -0.07522947       0.29003997
Pt       3.80365340       2.21935878       0.05413472        1       0.00000000       0.07633689      -0.04296089      -0.02043689
Pt       6.47625869       2.15258704       0.15009285        2       0.00000000       0.02887319      -0.07712821      -0.52690216
Ni       9.04854421       2.17174255       0.11331905        1       1.00000000      -0.07244233      -0.11992341      -0.06090762
Ni       2.55708192       4.45476784       0.00000000        0       1.00000000      -0.02701577       0.00176586       0.12860070
Ni       5.14864112       4.44123743       0.10928612        1       1.00000000       0.18673009      -0.08928206      -0.33847070
Pt       7.80824088       4.44726230       0.06476941        1       0.00000000       0.01717053      -0.05477659      -0.00525004
Ni      10.34318635       4.44018757       0.02412861        0       1.00000000       0.03923208       0.00481977       0.15691295
Ni       3.82940176       6.69794902       0.12096545        1       1.00000000      -0.03230315       0.18257599      -0.18066343
Pt       6.42176603       6.71634550       0.15555029        2       0.00000000      -0.05259382       0.04405733      -0.59334985
Ni       9.04494492       6.67457799       0.03966028        0       1.00000000      -0.05105433      -0.00229498       0.16750315
Ni      11.61484050       6.66739327       0.03026982        0       1.00000000       0.12080477       0.06160394       0.20594548
Ni       1.29686473       0.73050514       2.10419885        3       1.00000000       0.01394090       0.02361125      -0.01256483
Ni       3.86831145       0.75446386       2.15218343        4       1.00000000       0.04374789       0.07152926       0.19247418
Ni       6.48164109       0.73482302       2.20386215        4       1.00000000       0.08924963       0.06467455       0.24052715
Ni       9.00790763       0.71127206       2.14819659        3       1.00000000      -0.13750675       0.00963189       0.01322866
Ni       2.58460896       2.93813658       2.15097363        4       1.00000000      -0.05533278      -0.03378076       0.10768547
Ni       5.15537621       2.92925144       2.19375929        4       1.00000000      -0.08777787      -0.15266250       0.23595254
Ni       7.74817120       2.93343882       2.19869813        4       1.00000000       0.06769797      -0.09587896       0.13499177
Pt      10.28064926       2.88756657       2.16254816        4       0.00000000       0.02800346      -0.00240997       0.02316830
Pt       3.88777109       5.16392086       2.10968334        3       0.00000000       0.02069445      -0.08938787       0.03564669
Ni       6.48723637       5.16788796       2.17627830        4       1.00000000       0.12660835      -0.04491009       0.15568549
Ni       8.99583413       5.18042222       2.21611653        4       1.00000000      -0.08743442      -0.04215964       0.23979643
Pt      11.59717997       5.18073567       2.14339608        3       0.00000000      -0.05083061      -0.04721095       0.01311779
Ni       5.13398263       7.45458745       2.13930500        3       1.00000000      -0.08358813       0.08491098       0.04528454
Ni       7.73681243       7.40401086       2.16624730        4       1.00000000       0.05035248      -0.05187871       0.09947110
Pt      10.28667197       7.42216384       2.09447245        3       0.00000000      -0.01756943       0.01053145      -0.04478655
Ni      12.91036346       7.43422662       2.14552248        3       1.00000000      -0.03429766       0.08141792      -0.02160564
Ni      -0.00872280       1.51867954       4.29081799        6       1.00000000      -0.00485567       0.05276853      -0.18185657
Pt       2.62718831       1.54303847       4.26265723        6       0.00000000      -0.01257491      -0.00246639      -0.11914969
Ni       5.17482714       1.48881911       4.28563686        6       1.00000000       0.04765859       0.00858093      -0.34063858
Ni       7.77522893       1.48545652       4.28575021        6       1.00000000       0.08343894       0.04752078      -0.35036707
Pt       1.26707007       3.75616615       4.38718559        7       0.00000000      -0.08677076      -0.00858864       0.00100627
Ni       3.87642078       3.69279625       4.31559441        6       1.00000000       0.08706505       0.03613755      -0.21153943
Pt       6.51394727       3.66245727       4.22212350        5       0.00000000      -0.00303461      -0.04035272      -0.05560940
Ni       9.03960579       3.71804911       4.33094184        6       1.00000000       0.01394765       0.03214315      -0.23959083
Ni       2.55492024       5.90949882       4.33332137        6       1.00000000       0.01350791       0.01653145      -0.11453272
Pt       5.14670814       5.88886242       4.26038102        6       0.00000000      -0.01319529       0.01486742      -0.10080591
Ni       7.80867398       5.86624962       4.30419856        6       1.00000000       0.08389969      -0.08369573      -0.26431042
Ni      10.29666571       5.88546121       4.38489726        7       1.00000000      -0.05868477       0.03553522      -0.09214646
Pt       3.84749911       8.20976809       4.23191818        5       0.00000000       0.00164572       0.10086518      -0.06562777
Pt       6.44891803       8.16929084       4.20733338        5       0.00000000      -0.02632881       0.09855354      -0.16723692
Pt       9.03326990       8.08602379       4.30460980        6       0.00000000      -0.06840360      -0.02547496      -0.01357764
Pt      11.62735981       8.13207990       4.32488743        6       0.00000000      -0.00050006       0.03080901      -0.01792099
Pt      -0.00150800       0.03731680       6.52473349        9       0.00000000       0.08204535       0.01451406       0.19804492
Pt       2.61970096       0.04926123       6.55982837       10       0.00000000       0.02153282       0.00158905       0.36658978
Pt       5.21151577      -0.08065843       6.54947023        9       0.00000000      -0.07110111       0.02330160       0.41961737
Ni       7.75030259      -0.01924358       6.50630079        9       1.00000000       0.01283235       0.06939649      -0.07678586
Ni       1.32305795       2.27667176       6.48212172        9       1.00000000      -0.01705414      -0.01287859      -0.11308890
Ni       3.85453729       2.24248856       6.40569421        8       1.00000000       0.05670156      -0.06283616       0.13868147
Pt       6.48017398       2.18043109       6.42186009        8       0.00000000      -0.01021882      -0.04956611       0.55842831
Pt       9.08607330       2.29678566       6.47783149        9       0.00000000       0.03800200       0.13288673      -0.02679849
Ni       2.53784044       4.42181398       6.47497504        9       1.00000000      -0.01798580       0.04759223      -0.11488455
Pt       5.10204417       4.38444985       6.51664087        9       0.00000000      -0.10103365      -0.01938876       0.31324902
Ni       7.80321949       4.45076546       6.40406669        8       1.00000000       0.04580505       0.03410420      -0.01022093
Ni      10.33648962       4.48038131       6.49906272        9       1.00000000      -0.07863480       0.11559138      -0.18501524
Pt       3.74954330       6.65469916       6.52872301        9       0.00000000       0.02870561      -0.13084976       0.13508926
Pt       6.53321095       6.60939422       6.44608677        8       0.00000000      -0.02529012      -0.04630699       0.59899848
Ni       9.08157276       6.58794813       6.48634711        9       1.00000000       0.00299677      -0.09516146      -0.19449332
Ni      11.58005024       6.59660246       6.50040146        9       1.00000000      -0.11475235      -0.19681348      -0.22541668
