64
Lattice="10.791125646702621 0.003210738204451721 0.004141604366478602 5.398343404201325 9.353583909748878 0.009157583616890183 0.0033816058047851784 0.006681481611361927 9.459974444529166" Properties=species:S:1:pos:R:3:tags:I:1:initial_magmoms:R:1:forces:R:3 unique_id=7a4e61578d1c4523ae83c1b60a1d01e2 stress="-0.00011538097478164255 6.000229177571214e-07 3.9496551198187115e-06 6.000229177571214e-07 -0.00011610763486707282 4.732224824677245e-07 3.9496551198187115e-06 4.732224824677245e-07 -6.109897278933768e-05" energy=-433.1790399681245 pbc="T T T"
Pt      -0.01494075       0.03133036       0.09522274        4       0.00000000      -0.02686735       0.06124739       0.08962624
Pt       2.69072718       0.00565568       0.09372395        4       0.00000000      -0.03755421       0.03699244       0.12771613
Pt       5.40168320       0.00230589       0.09603363        4       0.00000000       0.03051351      -0.00219227       0.14122178
Pt       8.11030990       0.02868487       0.10190576        4       0.00000000       0.03054753       0.04612180       0.12873977
Pt       1.30546701       2.34653580       0.11992809        4       0.00000000      -0.14500305      -0.00005997       0.14316171
Pt       4.04314263       2.34174012       0.10118274        4       0.00000000      -0.04435951       0.02175795       0.15534910
Pt       6.77972181       2.34087505       0.10093925        4       0.00000000       0.08154711       0.00087335       0.13300179
Ni       9.44489409       2.34240802       0.09540029        4       1.00000000       0.01800844       0.02124096       0.36738416
Pt       2.68377134       4.67863265       0.11935856        4       0.00000000      -0.05163691       0.00346523       0.12964559
Pt       5.39887402       4.67633187       0.09884886        4       0.00000000       0.01118433      -0.01224139       0.12997713
Pt       8.11669586       4.65090371       0.10624464        4       0.00000000       0.06959425      -0.04342707       0.11423656
Pt      10.78655253       4.64412237       0.14488149        4       0.00000000      -0.00929111      -0.10344165       0.19039829
Pt       4.04753502       7.01894995       0.09990104        4       0.00000000       0.00338879       0.03377300       0.11019644
Pt       6.74695494       7.01644872       0.09750358        4       0.00000000       0.00531444       0.00171840       0.11276657
Pt       9.44630373       7.00737230       0.10621236        4       0.00000000       0.00477987      -0.05735882       0.13348448
Pt      12.14135196       7.00521057       0.12291078        4       0.00000000      -0.01684192      -0.05172362       0.14440499
Pt       1.33188278       0.81716592       2.38695243        3       0.00000000      -0.01155832       0.07817240       0.12487816
Pt       4.04217873       0.78579459       2.38907025        3       0.00000000      -0.03195913       0.03720297       0.10807964
Pt       6.75360415       0.78155554       2.38751070        3       0.00000000       0.02977345      -0.00441199       0.11635029
Pt       9.46023576       0.82808141       2.36100054        3       0.00000000       0.04996454       0.09455560       0.01195703
Pt       2.63551233       3.15533129       2.38918209        3       0.00000000      -0.19662282       0.10341561       0.07122292
Pt       5.39544991       3.12360567       2.38832790        3       0.00000000      -0.01177236       0.01399453       0.09647869
Pt       8.14828527       3.11803785       2.36248463        3       0.00000000       0.15089799       0.01577183       0.00840950
Ni      10.79612844       3.13207783       2.36602060        3       1.00000000       0.02411348       0.05010969      -0.00035506
Pt       4.01091703       5.45429600       2.39354714        3       0.00000000      -0.07827939      -0.02235619       0.09706271
Pt       6.75465086       5.45219451       2.39206049        3       0.00000000       0.06283140      -0.04118555       0.10297915
Pt       9.50547460       5.42161501       2.39360135        3       0.00000000       0.18879389      -0.09925275       0.12592279
Ni      12.13517949       5.44636146       2.37768502        3       1.00000000      -0.03703705      -0.07110689       0.02553541
Pt       5.39108762       7.80305860       2.39372609        3       0.00000000      -0.03205801       0.03967231       0.10093978
Pt       8.10188204       7.79368130       2.39689379        3       0.00000000       0.02273762      -0.03662181       0.11393003
Pt      10.80966632       7.76304555       2.39793157        3       0.00000000       0.03085432      -0.08310884       0.10102413
Pt      13.47833862       7.77502244       2.39662702        3       0.00000000      -0.00340699      -0.00174632       0.09887153
Pt      -0.00045169       1.57777547       4.67933447        2       0.00000000      -0.02142617       0.07729116      -0.19522791
Pt       2.69487934       1.56838255       4.70512667        2       0.00000000      -0.03536829       0.03684785      -0.12244678
Pt       5.39864617       1.56454530       4.71194394        2       0.00000000       0.01406774       0.00928818      -0.11703566
Pt       8.10325026       1.56890764       4.70589320        2       0.00000000       0.04490855       0.02344265      -0.12344261
Pt       1.34136439       3.90749406       4.65940770        2       0.00000000      -0.08045027       0.03924510      -0.28746383
Pt       4.04297922       3.90176739       4.70430473        2       0.00000000      -0.03421035      -0.00745194      -0.14063183
Pt       6.75025493       3.90228967       4.71215398        2       0.00000000       0.03231710      -0.00707036      -0.15251697
Pt       9.45645352       3.89415829       4.68416980        2       0.00000000       0.03072615      -0.06017539      -0.16861431
Pt       2.68925672       6.22986242       4.68528668        2       0.00000000      -0.06128915      -0.04527292      -0.19492332
Pt       5.39578959       6.23946637       4.70750684        2       0.00000000      -0.02044101      -0.00308065      -0.16698200
Pt       8.10218828       6.23634683       4.71050655        2       0.00000000       0.04296747      -0.03964642      -0.15454965
Pt      10.80463960       6.23100890       4.68938718        2       0.00000000       0.04074861      -0.04580499      -0.15994423
Pt       4.05008726       8.57712101       4.71175367        2       0.00000000      -0.00995737       0.02268262      -0.16288476
Pt       6.74635319       8.58156581       4.71339963        2       0.00000000      -0.02069645       0.02976268      -0.14180282
Pt       9.44818013       8.57599373       4.71519074        2       0.00000000       0.00650634      -0.01712892      -0.13125724
Pt      12.14546165       8.57704548       4.71807033        2       0.00000000       0.01604294       0.00496983      -0.09754601
Pt       0.00073377       0.00825414       7.01339335        1       0.00000000      -0.00967608       0.02659104      -0.10045888
Pt       2.70055518       0.00548519       7.00703323        1       0.00000000      -0.00615627       0.00561923      -0.09373739
Pt       5.39763389       0.00636497       7.00948254        1       0.00000000       0.00245742      -0.00702806      -0.07553834
Pt       8.09700639       0.01108126       7.01523730        1       0.00000000       0.00881805       0.01150190      -0.06556481
Pt       1.34627073       2.34259809       7.01798272        1       0.00000000      -0.02986974       0.01695194      -0.05521528
Pt       4.04964369       2.34363965       7.01009671        1       0.00000000      -0.01456784       0.00692544      -0.07438549
Pt       6.75149530       2.34397685       7.01688367        1       0.00000000       0.02103643      -0.00162884      -0.06735807
Pt       9.44591633       2.34584177       7.08365866        1       0.00000000       0.01253859       0.00784374       0.03886752
Pt       2.70039943       4.68259788       7.01590005        1       0.00000000      -0.03491923      -0.00851724      -0.07247028
Pt       5.39928468       4.68209115       7.01197272        1       0.00000000      -0.00385529      -0.00554604      -0.09322010
Pt       8.09920908       4.68046155       7.02120717        1       0.00000000       0.02858937      -0.01910355      -0.07789412
Pt      10.79401152       4.67974788       7.02189155        1       0.00000000       0.00652143      -0.02583485      -0.02256342
Pt       4.05119271       7.02031258       7.01506744        1       0.00000000      -0.01552252      -0.00289602      -0.10732110
Pt       6.74927067       7.02062155       7.01268707        1       0.00000000      -0.00044024      -0.00474658      -0.11714941
Pt       9.44612222       7.02184565       7.01803928        1       0.00000000       0.01350945      -0.02230387      -0.08601283
Pt      12.14419273       7.02067878       7.01840860        1       0.00000000      -0.00350619      -0.02557707      -0.06730550
