64
Lattice="10.15594891476601 0.004663699834212297 0.005535416753826431 5.082013339915118 8.75200529992904 -0.01626744728060743 0.004519648853509322 -0.01794651686183257 8.691016311426335" Properties=species:S:1:pos:R:3:tags:I:1:initial_magmoms:R:1:forces:R:3 unique_id=d7ba303b5e3c4bf9829aa9428c74ccbc stress="-0.007236919385351495 1.5240515220961499e-05 5.866539128636363e-06 1.5240515220961499e-05 -0.00722234217701017 -3.4996266375540625e-05 5.866539128636363e-06 -3.4996266375540625e-05 -0.006219091799902023" energy=-390.50086710654836 pbc="T T T"
Ni       0.04317734      -0.04869156       0.20598369        4       1.00000000       0.08375313      -0.03502856       0.15479581
Ni       2.49354386      -0.02693071       0.22036090        4       1.00000000       0.02952369       0.00908879       0.13279354
Pt       5.10618855      -0.01042877       0.16441897        4       0.00000000       0.00076188       0.05966898      -0.18678344
Ni       7.63240227      -0.04529928       0.18998598        4       1.00000000       0.00304670      -0.06824656       0.11776449
Ni       1.26501612       2.20458872       0.12921401        4       1.00000000      -0.02397271       0.05433232       0.12626961
Pt       3.77075126       2.26771609       0.18186673        4       0.00000000      -0.02637578       0.06285141      -0.14804607
Ni       6.35432546       2.24606075       0.13039255        4       1.00000000      -0.02384684       0.11140018       0.14974830
Pt       8.88922174       2.25885353       0.14648567        4       0.00000000      -0.00224127       0.10453967      -0.19816440
Ni       2.51872422       4.42274136       0.10428205        4       1.00000000       0.01305240       0.06254965       0.05372254
Ni       5.10256292       4.43033763       0.10947052        4       1.00000000      -0.01455513       0.08111898       0.04550356
Ni       7.58341354       4.42360069       0.11644324        4       1.00000000      -0.05019574       0.06175625       0.05595620
Ni      10.19046198       4.41845701       0.11299285        4       1.00000000       0.04946623       0.09691983       0.05110274
Ni       3.82372734       6.54014394       0.10345684        4       1.00000000       0.07192948      -0.02315108       0.03647242
Ni       6.33917972       6.55192407       0.11100411        4       1.00000000      -0.02059803       0.00891835      -0.01590792
Ni       8.84734559       6.51131310       0.19429647        4       1.00000000      -0.08508966      -0.03685224       0.11810218
Ni      11.47331805       6.51147172       0.07528098        4       1.00000000       0.08120872      -0.02665794      -0.07885314
Ni       1.31751555       0.72979538       2.17120573        3       1.00000000       0.02768995       0.04404492       0.09911355
Ni       3.77759554       0.77322345       2.20934886        3       1.00000000       0.00253239       0.05451649      -0.00788552
Ni       6.33523481       0.77816227       2.23906758        3       1.00000000      -0.04621334       0.02581833       0.06212545
Pt       8.86966002       0.70511345       2.18655783        3       0.00000000       0.00482956      -0.01725877       0.16204309
Ni       2.51498519       2.94826592       2.24197329        3       1.00000000      -0.00610161       0.03667225       0.01929615
Ni       5.07756205       2.94121383       2.19817483        3       1.00000000      -0.06450662       0.06656938      -0.01644156
Ni       7.58856729       2.95811307       2.20155670        3       1.00000000      -0.02611072       0.01348301       0.05347370
Ni      10.20721582       2.98274631       2.19332540        3       1.00000000       0.05265735       0.02904564       0.01622169
Ni       3.81099516       5.09016014       2.17255109        3       1.00000000       0.02440374      -0.05134607      -0.01809596
Ni       6.32488026       5.10452207       2.12404616        3       1.00000000      -0.05010136      -0.03557524       0.00626533
Ni       8.88181453       5.04226067       2.15452817        3       1.00000000       0.00337100      -0.10181206       0.01035213
Ni      11.47079029       5.04969296       2.18901992        3       1.00000000       0.07946761      -0.06292624       0.05896555
Ni       5.11324847       7.22233308       2.14440926        3       1.00000000      -0.02093302      -0.09948202       0.06022219
Ni       7.56243112       7.27837720       2.12629002        3       1.00000000      -0.03582544      -0.04970479       0.03256770
Pt      10.21403387       7.19108841       2.19503634        3       0.00000000       0.03962146      -0.12478961       0.06627426
Ni      12.71823243       7.20833187       2.14147482        3       1.00000000       0.09838059      -0.16206043       0.00704483
Pt       0.09148942       1.50981504       4.26542717        2       0.00000000       0.06916436      -0.06192814       0.00209238
Ni       2.56679967       1.52210351       4.24518565        2       1.00000000       0.07176170       0.09848927      -0.09277755
Ni       5.08259853       1.46506165       4.23492851        2       1.00000000      -0.06172687       0.00543416      -0.16246412
Ni       7.57821713       1.43749690       4.29316614        2       1.00000000      -0.01960936      -0.08879289      -0.02061104
Ni       1.31049570       3.68993068       4.30484146        2       1.00000000       0.02735690      -0.00439591      -0.06222034
Ni       3.76088322       3.69521172       4.23737125        2       1.00000000      -0.02827684       0.07317050      -0.18207490
Pt       6.30035286       3.59225985       4.29996254        2       0.00000000      -0.01025425      -0.04251046      -0.01264640
Ni       8.92861160       3.68646064       4.24939264        2       1.00000000       0.04309703       0.02631516      -0.18328394
Ni       2.52109228       5.76322469       4.29678448        2       1.00000000      -0.02763191      -0.01818317      -0.16114022
Ni       5.04185865       5.78029697       4.29906994        2       1.00000000      -0.02554769      -0.10441052      -0.13209802
Pt       7.59519964       5.81062939       4.23967276        2       0.00000000       0.00453800      -0.01383461      -0.01752454
Ni      10.22582878       5.77220292       4.31594413        2       1.00000000      -0.00718749      -0.02404599      -0.02281444
Pt       3.80085284       7.89588809       4.25881436        2       0.00000000       0.02334366      -0.02345438       0.04531740
Ni       6.33730576       7.99718717       4.23849871        2       1.00000000      -0.03938609      -0.00709105      -0.09754119
Pt       8.86488179       8.06579234       4.21641104        2       0.00000000      -0.08531400      -0.02017711      -0.05376480
Ni      11.44781605       7.97932187       4.26348831        2       1.00000000       0.02672966      -0.08516344      -0.09368890
Pt       0.00887446      -0.07828393       6.51584261        1       0.00000000      -0.08166136      -0.03256432       0.16705099
Pt       2.51647968      -0.00088235       6.48989058        1       0.00000000       0.07577807       0.04207868       0.14235078
Pt       5.11365582       0.01173813       6.34829665        1       0.00000000      -0.05478130       0.06044727       0.02310016
Pt       7.61391140      -0.05973607       6.48448414        1       0.00000000       0.04612587      -0.02525378       0.15778932
Ni       1.28090768       2.25477368       6.42891856        1       1.00000000       0.03597701       0.06306130       0.00540475
Pt       3.80744129       2.32063676       6.32131324        1       0.00000000       0.01131845       0.06419534      -0.06141763
Ni       6.34556739       2.23304616       6.43829562        1       1.00000000      -0.02733014       0.01438584       0.04597887
Pt       8.87123140       2.29774777       6.34307636        1       0.00000000      -0.06052379       0.06284078       0.02689313
Ni       2.51893475       4.42272422       6.39650672        1       1.00000000       0.00148455       0.05148745      -0.07442594
Ni       5.08561163       4.42859154       6.43319586        1       1.00000000      -0.03934941       0.07455051      -0.00336289
Ni       7.55005316       4.37328271       6.45155839        1       1.00000000      -0.14846849       0.01160574       0.00178861
Ni      10.24601562       4.36554273       6.40503990        1       1.00000000       0.12701867      -0.01568135      -0.09025825
Ni       3.80512259       6.44892686       6.42812698        1       1.00000000      -0.03078634      -0.09344082      -0.01829945
Ni       6.31632692       6.48567505       6.43268533        1       1.00000000      -0.01508726      -0.01090500      -0.09286231
Pt       8.92084338       6.42978106       6.50415728        1       0.00000000       0.02024445      -0.06429763       0.14665292
Ni      11.47423561       6.48165467       6.39690409        1       1.00000000       0.00995560      -0.00033426      -0.15516144
