64
Lattice="10.167635671138559 0.006656530320757987 0.004903648867393879 5.089582559928176 8.733380297937497 -0.06533820532504236 0.0 0.0 21.467034539083638" Properties=species:S:1:pos:R:3:tags:I:1:initial_magmoms:R:1:forces:R:3 unique_id=4b56ba82a4cc44f4b2d777a660ccb5e4 stress="0.004460029216200902 5.781630321213264e-05 8.187711417202885e-05 5.781630321213264e-05 0.0037218478223852835 -0.0003757923141170645 8.187711417202885e-05 -0.0003757923141170645 -0.0018767113394175866" energy=-368.13855828286444 pbc="T T T"
Ni       0.03782752      -0.04245488       0.17589573        2       1.00000000       0.12722197       0.01771374      -0.36236333
Ni       2.52199103      -0.03336918       0.18464826        2       1.00000000       0.01964246      -0.00905436      -0.08495343
Ni       5.09438448      -0.01594617       0.17358736        2       1.00000000      -0.07301569       0.04380446      -0.32355625
Ni       7.60070069      -0.01573763       0.15963664        2       1.00000000      -0.01644411       0.08600309      -0.49906184
Ni       1.27662972       2.19036637       0.09178510        1       1.00000000      -0.00013832      -0.01171355       0.33330520
Pt       3.80362873       2.18874203       0.16219278        2       0.00000000      -0.05819596      -0.02093907      -0.57974995
Ni       6.35109184       2.19263215       0.09022460        1       1.00000000       0.00294174       0.01280465       0.17138479
Pt       8.90461596       2.24142372       0.09060668        1       0.00000000       0.04087420       0.08280731      -0.73079459
Ni       2.52198692       4.39176125       0.05654306        1       1.00000000       0.02177842       0.01625177       0.36724897
Ni       5.08751446       4.38499603       0.03219173        0       1.00000000      -0.12502251      -0.03882930       0.13480423
Ni       7.61976559       4.39643052       0.03888989        0       1.00000000       0.12505090       0.03495467       0.05937741
Ni      10.20017975       4.40286123       0.06641003        1       1.00000000      -0.00591683       0.07779330       0.29759309
Ni       3.83977160       6.51865779       0.00807640        0       1.00000000       0.11732783      -0.07032022       0.11713744
Ni       6.35515294       6.55981569       0.02503398        0       1.00000000       0.02467800       0.10868999       0.16739346
Ni       8.87538390       6.52675801       0.09807282        1       1.00000000      -0.14153753      -0.06709835      -0.18731974
Ni      11.43592806       6.52125087       0.00000000        0       1.00000000      -0.07856409      -0.06239929       0.09258051
Ni       1.31621276       0.72415120       2.18199974        4       1.00000000       0.03974930       0.15977195       0.15213827
Ni       3.76013544       0.70901738       2.18325132        4       1.00000000      -0.19270638      -0.04893340       0.13981288
Ni       6.34855786       0.75476275       2.13726317        3       1.00000000       0.02258861       0.06206323       0.02719891
Pt       8.94228705       0.75807238       2.21410002        4       0.00000000       0.06955399       0.11089574       0.02010506
Ni       2.50863877       2.91275226       2.20677174        4       1.00000000      -0.03691127      -0.01762128       0.17322126
Ni       5.08665740       2.90713254       2.16492471        4       1.00000000      -0.02633788       0.05202975       0.04535456
Ni       7.61870461       2.91827770       2.17648049        4       1.00000000       0.04787422       0.00862581       0.10370838
Ni      10.22275649       2.94844424       2.19784498        4       1.00000000       0.09042951      -0.00572799       0.14253783
Ni       3.80371602       5.02317384       2.13429225        3       1.00000000      -0.03330081      -0.20119678       0.06019920
Pt       6.36164939       5.11242572       2.10026911        3       0.00000000       0.01550008       0.03356527      -0.01963103
Ni       8.91790321       5.04145867       2.14165792        3       1.00000000       0.02683763      -0.16033217       0.08687840
Ni      11.43534284       5.01878863       2.14498417        3       1.00000000      -0.03532030      -0.13225932       0.17791353
Ni       5.13533423       7.26171053       2.09527063        3       1.00000000       0.00717390       0.03990135       0.06185380
Ni       7.60251958       7.29618973       2.12813402        3       1.00000000      -0.05110551       0.05793526       0.17502545
Pt      10.11154711       7.24342433       2.14381049        3       0.00000000      -0.03121629      -0.08667553       0.11364606
Pt      12.71465592       7.17776424       2.08175488        3       0.00000000       0.03877331      -0.16009095      -0.00796949
Ni       0.06998264       1.46639788       4.26449083        6       1.00000000       0.18741716       0.05638396      -0.12051868
Ni       2.48919715       1.44278483       4.23382233        5       1.00000000      -0.03250641       0.00976517      -0.18327145
Pt       5.06967999       1.39450145       4.18720284        5       0.00000000      -0.08516376      -0.13536080       0.05192790
Ni       7.62752640       1.43495772       4.26891996        6       1.00000000      -0.02035471      -0.07344637      -0.17366434
Ni       1.27774532       3.61522217       4.27103566        6       1.00000000       0.03427463      -0.01492318      -0.12895571
Ni       3.76272991       3.67209126       4.23033795        5       1.00000000      -0.06970776       0.03627618      -0.19491070
Pt       6.38736364       3.65026279       4.31030446        6       0.00000000       0.03286748      -0.00724908       0.09635853
Ni       8.95409089       3.66493340       4.22043520        5       1.00000000       0.11300365       0.10005587      -0.23468858
Ni       2.52368130       5.73056482       4.28414792        6       1.00000000      -0.09109297      -0.08307695      -0.13721675
Ni       5.08404469       5.78176944       4.28726206        6       1.00000000       0.05512662      -0.06254167      -0.10168392
Ni       7.64403890       5.82233171       4.24230959        5       1.00000000       0.08453728       0.10850138      -0.19368857
Ni      10.19649639       5.75274534       4.25135984        6       1.00000000       0.05491251      -0.09402355      -0.11220451
Pt       3.85177454       7.90873368       4.22520177        5       0.00000000       0.04565258      -0.02113394       0.15909045
Ni       6.39931833       7.95534615       4.17959596        5       1.00000000       0.07397436      -0.00024960      -0.20047188
Ni       8.86596843       7.94282196       4.21242296        5       1.00000000      -0.12854386       0.01206012      -0.13714917
Ni      11.43454030       7.91654321       4.23311878        5       1.00000000      -0.03279229      -0.15447460      -0.03886830
Pt       0.02104336      -0.07991091       6.46703454        9       0.00000000      -0.01194320       0.12395315       0.36765220
Pt       2.53333611      -0.04255016       6.40501774        8       0.00000000       0.04273029       0.04569505       0.11970102
Pt       5.09624357      -0.06057453       6.45189635        9       0.00000000      -0.05362200      -0.03135395       0.35291697
Pt       7.61794365      -0.07778453       6.46288830        9       0.00000000      -0.02934057       0.10285060       0.47575243
Ni       1.27061058       2.20519119       6.36928359        8       1.00000000       0.02821750       0.08638423      -0.17425909
Pt       3.79037265       2.27790398       6.34094962        7       0.00000000      -0.10774157       0.13916941       0.57703579
Ni       6.35899645       2.19296276       6.41412837        8       1.00000000      -0.02073941       0.02077731       0.03341099
Pt       8.91003912       2.24955048       6.28283982        7       0.00000000       0.01753630      -0.05881017       0.69366864
Ni       2.51619099       4.38146079       6.35811848        8       1.00000000       0.02706943      -0.02929415      -0.32265292
Ni       5.09477223       4.38950349       6.38889061        8       1.00000000      -0.12269400       0.01980886      -0.09710200
Ni       7.58814242       4.33922363       6.39874565        8       1.00000000      -0.03055941      -0.02213401       0.03844702
Ni      10.24239465       4.33240843       6.36361438        8       1.00000000       0.11266385      -0.02841597      -0.30185675
Ni       3.81918017       6.41907547       6.36292781        8       1.00000000      -0.01416946      -0.07563512      -0.15586047
Ni       6.33439518       6.44143774       6.35231995        8       1.00000000      -0.01156822       0.05249304      -0.23012953
Pt       8.90571472       6.38727975       6.36390586        8       0.00000000       0.03662382      -0.00048295       0.02350950
Ni      11.47693275       6.43757248       6.34721942        7       1.00000000      -0.01633045       0.06601197      -0.17533716
