64
Lattice="10.47700795352726 0.012304627567523195 0.028552093562037785 5.249160096821208 9.113147661576214 -0.018196414202980758 0.0 0.0 21.72817163917246" Properties=species:S:1:pos:R:3:tags:I:1:initial_magmoms:R:1:forces:R:3 unique_id=27fc706c14c84999a3c3d46168c2ed4b energy=-385.8394911349863 stress="0.006437687677496168 6.447730729902414e-05 0.00031002265729236547 6.447730729902414e-05 0.006332643915145219 -0.00032553239388382753 0.00031002265729236547 -0.00032553239388382753 -0.001010089809324148" pbc="T T T"
Ni      -0.04729131      -0.01899211       0.08495763        1       1.00000000      -0.26655742      -0.05302350       0.03941901
Ni       2.64182476      -0.03024021       0.00112664        0       1.00000000       0.11572182      -0.03158135       0.38258352
Ni       5.25642385      -0.04506546       0.08135339        1       1.00000000       0.15888126       0.00282969      -0.02455237
Ni       7.88860274      -0.02815484       0.05647218        1       1.00000000       0.04182590      -0.12736283       0.70353517
Pt       1.23895752       2.22975283       0.02590090        0       0.00000000       0.02539085      -0.02257603      -0.90843631
Pt       3.94972428       2.20837190       0.03984110        0       0.00000000       0.11635371       0.09745671      -0.83856150
Pt       6.61761812       2.17250987       0.07789795        1       0.00000000      -0.02198372      -0.16956156      -0.06027503
Ni       9.16786370       2.25235874       0.01630054        0       1.00000000      -0.00309358      -0.19041067       0.42152755
Pt       2.57818669       4.63396994       0.02132347        0       0.00000000       0.07885028       0.00039679      -0.95810389
Pt       5.28362401       4.57060956       0.07428450        1       0.00000000       0.25034142      -0.11089107      -0.50979084
Pt       7.96790826       4.57969828       0.08165505        1       0.00000000      -0.01344725       0.05569612       0.05249859
Ni      10.47439278       4.59130287       0.00000000        0       1.00000000       0.06647352       0.10563899       0.32230800
Ni       3.92292785       6.89670401       0.08384888        1       1.00000000      -0.04684186       0.17790777       0.12747033
Pt       6.57687673       6.92535295       0.12143981        1       0.00000000      -0.02386260      -0.07469860      -0.14640610
Ni       9.20289257       6.85489810       0.00589418        0       1.00000000       0.02576860      -0.00305232       0.48754506
Ni      11.78895038       6.88137968       0.07631193        1       1.00000000       0.15782316       0.12100247       0.07009142
Pt       1.26863454       0.63867942       2.15298556        3       0.00000000       0.00207703      -0.10053223       0.09620722
Pt       3.99966580       0.72415769       2.22532954        3       0.00000000      -0.00609473       0.00813433       0.20240287
Ni       6.59278424       0.74091150       2.22994169        3       1.00000000       0.13338481      -0.08063582       0.16477538
Ni       9.12586048       0.72800021       2.18315882        3       1.00000000      -0.17789709       0.00211325      -0.08906228
Pt       2.64269274       3.03655047       2.21846034        3       0.00000000      -0.05680603       0.04949885       0.26392779
Ni       5.28614491       3.02255778       2.23943393        3       1.00000000       0.03906824      -0.01635089       0.30471961
Pt       7.80535251       3.02299609       2.33481095        4       0.00000000      -0.09878588      -0.05332732       0.08676800
Pt      10.38632176       3.05540749       2.20089891        3       0.00000000      -0.27153340       0.02466920      -0.01435777
Pt       3.99285934       5.40877093       2.19290007        3       0.00000000       0.00207326       0.12097852       0.02385687
Ni       6.61063359       5.32989008       2.22884709        3       1.00000000       0.20067321       0.00414804       0.31867717
Ni       9.14423178       5.34782399       2.24938769        3       1.00000000      -0.17515278       0.10423213       0.28630140
Pt      11.72636083       5.37172526       2.20497679        3       0.00000000      -0.16194418      -0.04384897       0.14990904
Ni       5.22879054       7.59949017       2.15774449        3       1.00000000      -0.13495152       0.06330075       0.16257043
Ni       7.88148745       7.54275615       2.20464465        3       1.00000000       0.11996747      -0.18207290       0.23662980
Pt      10.47663637       7.58611032       2.12061662        2       0.00000000      -0.07849830       0.02334041       0.11365179
Ni      13.12918680       7.66089364       2.15796115        3       1.00000000      -0.02552308       0.20333323      -0.04365727
Pt      -0.11455080       1.55025022       4.40761519        6       0.00000000      -0.20306410       0.04074566      -0.18580107
Pt       2.64676995       1.46891792       4.42245253        6       0.00000000      -0.05185174      -0.03337348      -0.12812930
Ni       5.30610038       1.51883329       4.40516747        6       1.00000000       0.08201109       0.03820929      -0.40024411
Ni       7.84516339       1.54531663       4.42572259        6       1.00000000      -0.08036549       0.03061211      -0.19027320
Pt       1.21162979       3.83880587       4.42645997        6       0.00000000      -0.11270553       0.11175821      -0.14810607
Pt       4.03869093       3.73914152       4.36253859        6       0.00000000       0.11150722       0.00588488      -0.19782004
Ni       6.61771265       3.76317338       4.41433092        6       1.00000000       0.06318521       0.03620409      -0.24854004
Ni       9.13955797       3.82407997       4.43258221        6       1.00000000      -0.13490112       0.06761119      -0.27480145
Pt       2.60300262       6.09542402       4.37924181        6       0.00000000      -0.02135092       0.07045981      -0.13090849
Pt       5.36240235       6.03487764       4.34738617        5       0.00000000       0.16307136      -0.07100349      -0.12292683
Ni       7.92742148       6.01504960       4.39219731        6       1.00000000       0.13501216      -0.16210255      -0.39824526
Ni      10.42982295       6.05096518       4.46402996        7       1.00000000      -0.13112549      -0.03124929      -0.08345483
Pt       3.92356473       8.37598737       4.32069371        5       0.00000000       0.02494706      -0.00627800      -0.24650482
Pt       6.58770149       8.31406384       4.36922535        6       0.00000000      -0.09122701       0.03639916      -0.11545704
Pt       9.19833992       8.24673926       4.44511618        6       0.00000000       0.00633180      -0.13042605      -0.06607845
Pt      11.79936606       8.43182323       4.38300600        6       0.00000000      -0.07505318       0.11150154      -0.15343305
Pt      -0.02805988       0.02009831       6.72817164       10       0.00000000       0.05619729      -0.01377251      -0.05989228
Ni       2.64268643      -0.03389434       6.68099870       10       1.00000000      -0.08613820       0.09128179      -0.22009982
Pt       5.22359870      -0.04650513       6.72552839       10       0.00000000       0.03184897       0.12069063      -0.02674845
Ni       7.87309802       0.00261047       6.68773839       10       1.00000000      -0.02229248      -0.06299859      -0.40008440
Pt       1.25791449       2.26885648       6.61440874        9       0.00000000      -0.00396423       0.01678719       0.76750378
Pt       3.95319956       2.21337536       6.60596193        9       0.00000000       0.11461778       0.03814742       0.76949313
Pt       6.65388062       2.21347532       6.54959107        8       0.00000000      -0.10353263       0.07858853       0.19972685
Ni       9.18133829       2.27214460       6.67510536       10       1.00000000       0.03223885       0.01583439      -0.31861977
Pt       2.59956946       4.53882083       6.60282330        9       0.00000000       0.12149511      -0.07513960       0.81118189
Pt       5.31042419       4.53488198       6.60315578        9       0.00000000       0.26794981      -0.03088128       0.54235298
Pt       7.99924393       4.54372897       6.54501012        8       0.00000000      -0.16507948      -0.00025630       0.06093324
Ni      10.46761814       4.55731452       6.66389638       10       1.00000000       0.06087832       0.01665071      -0.27141819
Pt       3.92591873       6.86263799       6.70321352       10       0.00000000       0.09941035      -0.04616129       0.02682725
Pt       6.67280295       6.85446252       6.62337545        9       0.00000000      -0.01394890      -0.06528524       0.23904277
Ni       9.19740147       6.81104637       6.65024539       10       1.00000000       0.07087016      -0.03228021      -0.28976165
Pt      11.72372048       6.81099721       6.70978752       10       0.00000000      -0.11667313      -0.07090995      -0.16388596
