64
Lattice="10.277733522638973 -0.007256637155537207 0.01710898646670181 5.132582329196741 8.827637545138018 -0.02862327393957616 0.013969428953200764 -0.035051535036468566 8.756619823779364" Properties=species:S:1:pos:R:3:tags:I:1:initial_magmoms:R:1:forces:R:3 unique_id=8011e7bbce9644fcb467e0ef6c169e95 stress="0.00014329394780343563 1.2878557164732626e-06 -7.05808179730319e-06 1.2878557164732626e-06 0.00014904257435868068 1.5111737776060982e-05 -7.05808179730319e-06 1.5111737776060982e-05 0.00014900857985494093" energy=-395.1797020086351 pbc="T T T"
Ni       0.00814034       0.00864361       0.18513501        4       1.00000000       0.07900061       0.02002810       0.25621002
Ni       2.56674966      -0.00823661       0.22085478        4       1.00000000       0.02399813      -0.03350912       0.35185461
Ni       5.14544014      -0.02064389       0.16902675        4       1.00000000       0.01000770       0.08946537       0.22276260
Ni       7.71715712      -0.04796627       0.09971896        4       1.00000000      -0.00063978      -0.10692465       0.10901882
Ni       1.25111055       2.21112411       0.18834113        4       1.00000000      -0.11701595       0.02893216       0.27811416
Pt       3.80727231       2.21169325       0.18580515        4       0.00000000      -0.05629899       0.01393600       0.21474583
Pt       6.48199467       2.20382138       0.19768238        4       0.00000000       0.12133239      -0.04088559       0.31515446
Ni       9.02854755       2.22693109       0.16137741        4       1.00000000       0.11872219       0.10821472       0.12091096
Ni       2.54597832       4.43327583       0.04309760        4       1.00000000      -0.11576351       0.01075688      -0.06373564
Ni       5.14111408       4.42091310       0.06404421        4       1.00000000       0.08335419      -0.06638082       0.08033402
Ni       7.74818391       4.41419676       0.10526738        4       1.00000000       0.16339680      -0.01257081       0.17495055
Ni      10.26185482       4.39607926       0.08012414        4       1.00000000      -0.07611025      -0.05791337       0.04726824
Ni       3.82410239       6.63368629       0.05338753        4       1.00000000      -0.03525918       0.07115335       0.05979238
Pt       6.42292409       6.60914194       0.08744445        4       0.00000000      -0.01015575      -0.04106922      -0.14533079
Ni       8.99577001       6.59440340       0.15033419        4       1.00000000      -0.03358759      -0.12403123       0.17767506
Ni      11.57959243       6.61310076       0.04977086        4       1.00000000       0.06633250      -0.05791264      -0.06610378
Ni       1.29196565       0.74196465       2.15378255        3       1.00000000      -0.05536548       0.05101836      -0.00257348
Ni       3.85755890       0.72851423       2.20562466        3       1.00000000       0.08349607       0.00842214       0.02293458
Ni       6.42316391       0.72959496       2.25560688        3       1.00000000       0.02123260       0.05382349       0.16707336
Pt       8.98669817       0.75719243       2.18747458        3       0.00000000      -0.08089116       0.05485558       0.03465266
Ni       2.53458511       2.92583136       2.19924736        3       1.00000000      -0.07523973       0.07290068      -0.06407493
Ni       5.14916723       2.91354015       2.24555834        3       1.00000000      -0.05768606      -0.10813632       0.01716165
Ni       7.74923502       2.97287310       2.21645512        3       1.00000000       0.20986278       0.09075409      -0.04452322
Ni      10.26540978       2.92669683       2.21033627        3       1.00000000      -0.05122548       0.01758432       0.13765863
Pt       3.88020244       5.12734572       2.13797687        3       0.00000000      -0.00708451      -0.02786147      -0.11193481
Ni       6.47140887       5.12703206       2.17574852        3       1.00000000       0.08016830       0.02716960      -0.06772178
Ni       8.95522030       5.10248189       2.19561837        3       1.00000000      -0.01351874      -0.02726467       0.07842715
Pt      11.52468206       5.07919312       2.20336867        3       0.00000000      -0.02512555      -0.05007607      -0.03781748
Ni       5.14117902       7.35498181       2.14915147        3       1.00000000      -0.07318492      -0.03635813      -0.06651937
Ni       7.69918662       7.33184771       2.16413040        3       1.00000000       0.04254120      -0.11423045       0.02613668
Pt      10.29437454       7.35681026       2.13043978        3       0.00000000       0.04899277      -0.04650767       0.04820641
Ni      12.84209690       7.35253209       2.15953119        3       1.00000000      -0.00499255      -0.04746879      -0.09829177
Ni      -0.01828127       1.51195918       4.31062387        2       1.00000000      -0.04779326       0.12535978      -0.06711819
Pt       2.56251816       1.53890368       4.22286575        2       0.00000000      -0.01596457       0.09218253       0.11291575
Ni       5.18039468       1.44512555       4.28839969        2       1.00000000       0.03744448      -0.01522554      -0.09944945
Ni       7.70733534       1.44611818       4.31953395        2       1.00000000      -0.03402774       0.04409292      -0.06503771
Ni       1.25971872       3.71353876       4.33872096        2       1.00000000      -0.06266637       0.00818167      -0.02922596
Ni       3.83185903       3.69289293       4.31935862        2       1.00000000      -0.08552244       0.01049674      -0.15694696
Pt       6.48170806       3.64335306       4.25410680        2       0.00000000       0.04821579      -0.07239651       0.05972190
Ni       9.03479333       3.68231271       4.32143978        2       1.00000000       0.13432740       0.06561957      -0.17758748
Ni       2.51377111       5.83887646       4.37612832        2       1.00000000      -0.13848510      -0.05528139      -0.12093180
Pt       5.10452952       5.82866527       4.37576568        2       0.00000000      -0.01065388       0.00600893      -0.10235336
Ni       7.74973321       5.81846646       4.31132357        2       1.00000000       0.10900314      -0.03480187      -0.21944439
Ni      10.30973351       5.81148276       4.35984473        2       1.00000000      -0.00948458      -0.01673559      -0.06781983
Pt       3.74455313       8.07233887       4.30556837        2       0.00000000      -0.02419710      -0.03997437       0.00247353
Pt       6.41408420       8.06652425       4.23409062        2       0.00000000      -0.08376318       0.08467832       0.00537502
Pt       9.04439154       8.03785749       4.27577994        2       0.00000000      -0.03446597      -0.04826225       0.10859761
Ni      11.57361978       8.05508596       4.32462282        2       1.00000000      -0.09367772      -0.07391985      -0.13252638
Pt      -0.05889062      -0.09703891       6.56582868        1       0.00000000      -0.04962381      -0.09797383       0.14745372
Pt       2.57127870      -0.06177474       6.57729818        1       0.00000000      -0.02382640      -0.00879211       0.21318681
Pt       5.23862040      -0.09055069       6.52893819        1       0.00000000       0.05138272      -0.11089503       0.07566572
Ni       7.71040519      -0.08205535       6.51156031        1       1.00000000      -0.00694747      -0.07946345      -0.11059516
Pt       1.27789381       2.28886341       6.51170042        1       0.00000000       0.07385245       0.04729342       0.16967713
Pt       3.87937171       2.28699996       6.42624576        1       0.00000000      -0.01158433       0.14638111      -0.28912461
Pt       6.45207320       2.21006523       6.44493939        1       0.00000000       0.00882900       0.08568331      -0.24567023
Pt       8.98871083       2.24310723       6.47934606        1       0.00000000       0.01864854       0.11910916      -0.02663303
Ni       2.57006583       4.47457841       6.45009825        1       1.00000000       0.01170412       0.11791174      -0.24244241
Ni       5.13891989       4.44922688       6.49502876        1       1.00000000      -0.01785017       0.12909021      -0.08849916
Ni       7.69074232       4.40624648       6.47928709        1       1.00000000      -0.14196626       0.02234763      -0.15851486
Ni      10.31874400       4.41804136       6.46425152        1       1.00000000       0.18990879       0.06719056      -0.22001447
Ni       3.80303987       6.54727487       6.48401299        1       1.00000000      -0.16248528      -0.06316476      -0.07338110
Ni       6.41002452       6.53025371       6.41662905        1       1.00000000       0.04306053      -0.04564946      -0.23896608
Pt       9.01253187       6.46008613       6.50333902        1       0.00000000       0.00396839      -0.05871646       0.09829912
Ni      11.62311558       6.54303319       6.45989968        1       1.00000000       0.06134725      -0.07028896      -0.23349947
