64
Lattice="10.35229090086611 0.004319827550768875 0.02191326263606268 5.179886530831982 8.939481987562928 0.023832553764685394 0.0178921040193167 0.012139536101415039 8.850687385330852" Properties=species:S:1:pos:R:3:tags:I:1:initial_magmoms:R:1:forces:R:3 unique_id=68bab699679b4951a45cdb72b050e1c2 stress="0.00030127840532442884 2.702930184257977e-06 -2.129328997392532e-05 2.702930184257977e-06 0.0002986640285909947 -1.6867998583067612e-06 -2.129328997392532e-05 -1.6867998583067612e-06 0.0002866958652083876" energy=-400.0426850678202 pbc="T T T"
Ni      -0.01293990       0.02721709       0.19655957        4       1.00000000      -0.05842938       0.11888735       0.29424199
Ni       2.58962105       0.00727823       0.20798565        4       1.00000000       0.03221328       0.00787703       0.38385484
Ni       5.17858745      -0.01494410       0.17133134        4       1.00000000      -0.04097588       0.11055408       0.23985007
Ni       7.78988896      -0.03498240       0.12371703        4       1.00000000       0.08651448      -0.11250194       0.20553207
Ni       1.28171562       2.22851534       0.08875151        4       1.00000000      -0.04876754      -0.06687286       0.08831999
Pt       3.81772848       2.23736734       0.20137209        4       0.00000000      -0.08517154       0.04374665       0.16272833
Pt       6.47899337       2.16300640       0.16675786        4       0.00000000       0.05745440      -0.07709710       0.22507753
Ni       9.09323262       2.20310201       0.15853507        4       1.00000000       0.01897547      -0.16612607       0.10949654
Ni       2.57540400       4.48407786       0.07560161        4       1.00000000      -0.03317504       0.04370874       0.02521791
Ni       5.17260987       4.47580653       0.17860105        4       1.00000000       0.17202246      -0.08334929       0.26747406
Pt       7.84234182       4.50287427       0.08886810        4       0.00000000       0.14494141      -0.01210351      -0.13165615
Ni      10.39070187       4.48394402       0.07906188        4       1.00000000       0.12835303       0.03003744       0.01588662
Ni       3.85758764       6.73298374       0.19007520        4       1.00000000      -0.04341614       0.16846953       0.22284102
Pt       6.45620864       6.76704304       0.22460282        4       0.00000000      -0.04750340       0.07366939       0.11924030
Ni       9.09118255       6.72629660       0.10624358        4       1.00000000       0.01938044       0.06983481       0.01896577
Ni      11.66614115       6.71923649       0.09340775        4       1.00000000       0.11280141       0.08698525      -0.03228734
Ni       1.30256239       0.72943608       2.17653744        3       1.00000000       0.01482188      -0.03884055      -0.15422655
Ni       3.88034701       0.75387080       2.23259898        3       1.00000000       0.05744660       0.00920254       0.04052315
Ni       6.47993112       0.72962839       2.26236109        3       1.00000000       0.04110081      -0.01266918       0.11334628
Ni       9.06120038       0.71273146       2.20989571        3       1.00000000      -0.04792466      -0.03939692      -0.08864747
Ni       2.59496673       2.97353832       2.23995933        3       1.00000000      -0.01603557       0.11130178      -0.02185330
Ni       5.16053343       2.96050923       2.27378090        3       1.00000000      -0.02787310      -0.15235706       0.09725840
Pt       7.78579210       2.95220316       2.29488475        3       0.00000000       0.05191615      -0.06995764      -0.16193715
Pt      10.38660343       2.91958642       2.22166876        3       0.00000000       0.10433910      -0.03341489       0.01998861
Pt       3.90754962       5.20362095       2.19121827        3       0.00000000      -0.02836022      -0.05142328      -0.00370220
Ni       6.50294288       5.22975454       2.25317761        3       1.00000000       0.14290174       0.01945639      -0.00844832
Ni       9.04449300       5.24440688       2.28347968        3       1.00000000      -0.01469342       0.00071259       0.13928080
Pt      11.64961901       5.23871717       2.21198747        3       0.00000000      -0.06564844       0.02172966      -0.00066928
Ni       5.16461117       7.49757344       2.22045631        3       1.00000000      -0.12338203       0.06520904      -0.09057175
Ni       7.77354264       7.45580419       2.24556427        3       1.00000000       0.03676821      -0.07150774       0.00360843
Pt      10.33237763       7.47735196       2.17135811        3       0.00000000      -0.01116404      -0.06822288      -0.00756296
Ni      12.96745764       7.49361117       2.22029638        3       1.00000000      -0.03193025       0.04115551      -0.08422833
Ni      -0.01310568       1.53115613       4.38584727        2       1.00000000      -0.03038707       0.09382700      -0.08519962
Pt       2.60100728       1.54120397       4.29228268        2       0.00000000       0.03217025       0.04582225      -0.05017822
Ni       5.19438373       1.50514346       4.36258807        2       1.00000000      -0.00477579      -0.02895190      -0.17477067
Ni       7.79792564       1.50137234       4.39369830        2       1.00000000       0.04757969       0.02733314      -0.08225016
Pt       1.27330014       3.78567519       4.48416458        2       0.00000000      -0.01088776       0.00399539      -0.02949005
Ni       3.88551287       3.74044183       4.38331401        2       1.00000000      -0.03391206       0.00828165      -0.13582171
Pt       6.50248400       3.72459830       4.37341574        2       0.00000000      -0.09530291      -0.02940531       0.09217301
Ni       9.07848357       3.76512046       4.43304447        2       1.00000000       0.04713933       0.10395544      -0.16916397
Ni       2.56934704       5.94856230       4.42999693        2       1.00000000      -0.04785480       0.02630173      -0.10513154
Pt       5.16377879       5.94710962       4.34645008        2       0.00000000      -0.03251686       0.08635469       0.07345780
Ni       7.83932845       5.92160243       4.39766746        2       1.00000000       0.08807117      -0.08075206      -0.20657644
Ni      10.33963289       5.94215367       4.47070418        2       1.00000000      -0.05809492       0.00584136      -0.08011943
Pt       3.87014228       8.25886632       4.33241739        2       0.00000000      -0.00745464       0.05609837      -0.04384489
Pt       6.47747562       8.21401342       4.29833482        2       0.00000000       0.00340314       0.02184252      -0.00867134
Pt       9.07583267       8.14296269       4.39579713        2       0.00000000      -0.04929234      -0.00545132       0.08879588
Pt      11.67803526       8.19149878       4.40699385        2       0.00000000      -0.02815578      -0.02851175      -0.02605171
Pt      -0.01763992       0.04578374       6.62140877        1       0.00000000      -0.05074926       0.00115432       0.18000701
Pt       2.60249456       0.01085099       6.65093693        1       0.00000000      -0.02204048      -0.00721051       0.20335043
Pt       5.23066091      -0.08654443       6.64016296        1       0.00000000       0.02590675      -0.25351469       0.13021398
Ni       7.76990529       0.00533392       6.59154783        1       1.00000000       0.03844318       0.03218708      -0.13585873
Ni       1.29211515       2.29236978       6.58397764        1       1.00000000      -0.00533789       0.06656504      -0.10782905
Pt       3.83483764       2.28790821       6.52135765        1       0.00000000      -0.09102622      -0.01951449      -0.24337547
Pt       6.52480741       2.20324136       6.51493116        1       0.00000000       0.01376553      -0.06266406      -0.27658546
Pt       9.11885724       2.33368639       6.57144780        1       0.00000000       0.12069882       0.15862081       0.03203721
Ni       2.53323616       4.48956995       6.58003807        1       1.00000000      -0.17015887       0.04104542      -0.08575763
Pt       5.16590657       4.47858367       6.62880319        1       0.00000000      -0.05380619       0.02901682       0.10151014
Ni       7.83732321       4.49789104       6.49624247        1       1.00000000       0.12699280       0.05069569      -0.31981923
Ni      10.36883748       4.52701545       6.59020165        1       1.00000000      -0.03008137       0.19596299      -0.09724333
Pt       3.76268641       6.70983191       6.63503718        1       0.00000000      -0.17805846       0.01687659       0.15228588
Pt       6.55779565       6.66607655       6.54942911        1       0.00000000       0.06243210      -0.01489519      -0.18676128
Ni       9.11496194       6.63916565       6.58773919        1       1.00000000       0.08518276      -0.23606438      -0.18948751
Ni      11.62732937       6.65710868       6.59905134        1       1.00000000      -0.18939205      -0.27153951      -0.22078585
