64
Lattice="10.250264832655638 0.011935382354226073 -0.010520588315102664 5.135468760650466 8.85876806576594 -0.010949329933560584 0.0 0.0 21.48840137947554" Properties=species:S:1:pos:R:3:tags:I:1:initial_magmoms:R:1:forces:R:3 unique_id=99a273c5250347e4a10f2c25dd65e3ab energy=-373.5183991857839 stress="0.005610415421075708 0.00019884952002478326 0.0001283707341245434 0.00019884952002478326 0.005842886304627967 2.6170205539791962e-05 0.0001283707341245434 2.6170205539791962e-05 -0.0010732122357344186" pbc="T T T"
Ni       0.00971682      -0.00626353       0.12533704        1       1.00000000       0.09545485       0.01036999      -0.10853878
Ni       2.52856683       0.01512480       0.14430861        1       1.00000000      -0.07990262       0.07547077      -0.03092155
Pt       5.11501139      -0.03586950       0.08222762        1       0.00000000      -0.04236759       0.23651898      -0.97734164
Ni       7.71127553      -0.04942970       0.12212681        1       1.00000000      -0.05701081      -0.08512240      -0.23402552
Ni       1.28864953       2.22388849       0.05144436        1       1.00000000       0.00251504       0.04503340       0.39707993
Pt       3.75865673       2.27266372       0.12183354        1       0.00000000       0.04806768       0.00297557      -0.34723973
Pt       6.40904430       2.23202392       0.05211892        1       0.00000000       0.01703180      -0.00881238      -0.12773681
Pt       9.06488908       2.22553034       0.05294711        1       0.00000000      -0.00284000       0.12318393      -0.52612849
Ni       2.55491335       4.46840454       0.01393805        0       1.00000000       0.07972340       0.03312860       0.30542201
Ni       5.08612469       4.46942136       0.12775262        1       1.00000000      -0.11206983       0.12297930       0.02476719
Pt       7.73579881       4.49352310       0.03596766        0       0.00000000       0.00762822       0.04010168      -0.05389599
Ni      10.30821096       4.46649431       0.00211242        0       1.00000000       0.09865547       0.00205551       0.27512359
Ni       3.81017282       6.63580769       0.04996422        0       1.00000000      -0.00774815      -0.05702290       0.39907983
Pt       6.36938735       6.70120592       0.11334347        1       0.00000000      -0.08665611       0.05178332      -0.38999075
Ni       8.99417394       6.63877304       0.00697930        0       1.00000000      -0.05515854       0.02545235       0.06647201
Ni      11.57089992       6.61644554       0.00000000        0       1.00000000       0.06481642       0.05779184       0.25819211
Ni       1.31152647       0.74944150       2.16233970        3       1.00000000       0.04439159       0.06335655       0.19974390
Ni       3.80266939       0.77501515       2.18446720        3       1.00000000      -0.05320620       0.09102404       0.26595380
Ni       6.40242988       0.78136942       2.18284135        3       1.00000000      -0.06100144       0.15609576       0.26843085
Pt       8.98885564       0.74146720       2.18133608        3       0.00000000       0.05741578       0.10737906       0.01769627
Ni       2.55232413       2.93095928       2.21554599        3       1.00000000       0.02620134      -0.11679985       0.27986244
Ni       5.10452231       2.97535610       2.18406174        3       1.00000000      -0.10625849       0.00546116       0.15513409
Ni       7.69600163       2.98250058       2.18537560        3       1.00000000       0.08751559       0.02157813       0.18532248
Ni      10.27980962       2.96232737       2.18964255        3       1.00000000       0.06295545      -0.07312024       0.23521557
Ni       3.87842438       5.16297060       2.15068846        3       1.00000000       0.06894506      -0.06203908       0.14951341
Ni       6.39265336       5.17668792       2.17276810        3       1.00000000      -0.03029597       0.02857128       0.11917356
Ni       8.94942314       5.14508793       2.18177966        3       1.00000000      -0.09196356      -0.22922240       0.22415130
Pt      11.58221332       5.10642027       2.14636715        2       0.00000000       0.14211615      -0.17269046       0.11301926
Ni       5.13572754       7.35021663       2.16833625        3       1.00000000       0.02894407      -0.13013438       0.18164164
Ni       7.65258013       7.38690462       2.15501698        3       1.00000000      -0.14662440      -0.03643831       0.13235740
Pt      10.21878222       7.31574156       2.13286481        2       0.00000000      -0.08963527      -0.18636658      -0.22781376
Ni      12.85155473       7.35259192       2.08705560        2       1.00000000       0.07351957      -0.15044406       0.03964396
Ni       0.05436405       1.52078077       4.26350168        5       1.00000000       0.16250998       0.04578177      -0.15843043
Ni       2.51486224       1.51883721       4.22757949        4       1.00000000      -0.07610506       0.04488900      -0.25597552
Ni       5.10921728       1.50962742       4.23569214        4       1.00000000      -0.09098184       0.02567658      -0.36415607
Ni       7.68425378       1.50540536       4.25807439        5       1.00000000      -0.00602115      -0.05719542      -0.25613469
Ni       1.28068272       3.67827386       4.31722513        5       1.00000000       0.01599835      -0.05856694      -0.02159430
Ni       3.80104310       3.71403166       4.22312409        4       1.00000000      -0.05793688       0.02682611      -0.30040696
Pt       6.42398700       3.69646554       4.21998227        4       0.00000000      -0.02872922       0.00407641       0.02750920
Ni       9.01020489       3.73787995       4.23236019        4       1.00000000       0.12732127       0.03213868      -0.31477627
Ni       2.57229104       5.83286489       4.31852117        5       1.00000000       0.04602125      -0.19438144      -0.01196784
Ni       5.11819146       5.87883782       4.22469982        4       1.00000000       0.05310203      -0.19843868      -0.34290831
Ni       7.71310722       5.87772485       4.24035448        4       1.00000000       0.01720817      -0.06595562      -0.31357512
Ni      10.24743708       5.84042163       4.32464576        5       1.00000000       0.04051633      -0.07539228      -0.04133075
Pt       3.91269920       8.04548041       4.25335003        5       0.00000000       0.10428711      -0.12673219       0.14182576
Ni       6.40771072       8.12745936       4.21134171        4       1.00000000      -0.05760482       0.04301254      -0.37145616
Pt       8.88357066       8.10710908       4.22199235        4       0.00000000      -0.10135225       0.05761575       0.07286404
Pt      11.56580122       8.08864438       4.21067129        4       0.00000000       0.02405101      -0.11375762      -0.02751107
Pt       0.00223526       0.02219806       6.46816737        8       0.00000000       0.05620225       0.17003216       0.28301623
Pt       2.54483007       0.01484477       6.46923790        8       0.00000000      -0.01681077       0.05528059       0.30034012
Pt       5.12362095      -0.03400264       6.37881404        7       0.00000000      -0.01589866       0.14079573       1.04969253
Pt       7.67951843      -0.02954810       6.48840138        8       0.00000000      -0.03705756       0.19533126       0.38054041
Ni       1.26687039       2.28632328       6.39851028        7       1.00000000      -0.08223123       0.18929002      -0.31887995
Pt       3.78340472       2.26985683       6.32009132        6       0.00000000       0.00474698       0.01597033       0.35511612
Ni       6.41440810       2.23498306       6.34152325        6       1.00000000      -0.02557400      -0.04260059       0.08392704
Pt       8.98084929       2.32982774       6.29886866        6       0.00000000       0.01412157       0.01222851       0.47087235
Ni       2.49708842       4.46244279       6.40103044        7       1.00000000      -0.06672663      -0.00052383      -0.39185429
Pt       5.08581183       4.44616495       6.44102201        7       0.00000000      -0.07320621       0.02442421       0.00529310
Ni       7.72859084       4.44972226       6.33468702        6       1.00000000       0.06820255       0.10591877      -0.05972228
Ni      10.28127636       4.47673166       6.38671616        7       1.00000000       0.02570542      -0.00491132      -0.42327502
Ni       3.79618067       6.59614748       6.42581873        7       1.00000000      -0.08945350      -0.09006584      -0.21149769
Pt       6.44865757       6.60051674       6.31808679        6       0.00000000       0.01373078      -0.00799525       0.32603843
Ni       9.01219173       6.56709124       6.40309427        7       1.00000000       0.09001270      -0.14105222      -0.27945194
Ni      11.53337251       6.56728042       6.41517512        7       1.00000000      -0.02120649      -0.00381737      -0.30149425
