64
Lattice="10.080464620706609 0.002052456248428663 -0.016234813076115562 5.042009789604602 8.71418885711344 -0.03809799428511694 0.0 0.0 21.44007252569036" Properties=species:S:1:pos:R:3:tags:I:1:initial_magmoms:R:1:forces:R:3 unique_id=a1868bf11d444be988dffb21a1c9ddc1 energy=-366.6214698960959 stress="0.004071469423557255 -1.1072827857366706e-05 -0.0001390005535491379 -1.1072827857366706e-05 0.003777755202994731 -0.0003062593385025916 -0.0001390005535491379 -0.0003062593385025916 -0.002505885735754016" pbc="T T T"
Ni       0.03470505      -0.04407744       0.18362674        2       1.00000000       0.08616136      -0.00057647      -0.44507998
Ni       2.50156795      -0.03497720       0.19196857        2       1.00000000       0.02237146      -0.00653272      -0.19148749
Ni       5.05507763      -0.02031918       0.08294312        1       1.00000000      -0.08440974       0.01061073       0.04703067
Ni       7.52453048      -0.04505533       0.16729680        2       1.00000000      -0.03640587      -0.05226664      -0.45163947
Ni       1.26154028       2.18806553       0.11010264        1       1.00000000       0.01003727      -0.05024319       0.20013085
Pt       3.77129967       2.18008295       0.17045238        2       0.00000000      -0.03569678      -0.00047760      -0.74315350
Ni       6.29431185       2.18325819       0.09419591        1       1.00000000      -0.00613454       0.00493807       0.11056174
Pt       8.82224438       2.22386898       0.00000000        0       0.00000000       0.01618654      -0.00819004      -0.26001366
Ni       2.49725790       4.39162496       0.08926139        1       1.00000000       0.06941149      -0.02484299       0.23766342
Ni       5.03428749       4.38289096       0.05096628        1       1.00000000      -0.13883046      -0.04285697       0.07932570
Ni       7.55326677       4.38827221       0.04959728        0       1.00000000       0.10888918       0.04226146       0.01963226
Ni      10.10855197       4.39578130       0.07546151        1       1.00000000      -0.04363013       0.08017542       0.20301668
Ni       3.77783694       6.51839239       0.07923463        1       1.00000000       0.00728090       0.01560100       0.24321013
Ni       6.29188346       6.55131986       0.04596878        0       1.00000000       0.01180577       0.10379730       0.13558349
Ni       8.79816774       6.51735099       0.12609656        1       1.00000000      -0.11478187      -0.04408667      -0.24914178
Ni      11.35974163       6.51772457       0.04031279        0       1.00000000       0.02269885      -0.02793850       0.20495518
Ni       1.29439932       0.72446678       2.18003801        4       1.00000000      -0.00822304       0.10527431       0.12718098
Ni       3.73645010       0.70318377       2.18315514        4       1.00000000      -0.09018572      -0.04357394       0.09400589
Ni       6.28926833       0.74042266       2.12495979        3       1.00000000      -0.02927327       0.04448475      -0.03149334
Pt       8.82678977       0.73640015       2.16975988        4       0.00000000       0.03057812       0.08939482      -0.02598228
Ni       2.49529842       2.91310226       2.18902470        4       1.00000000       0.03922643      -0.03175228       0.05212448
Ni       5.03932099       2.90880505       2.17206606        4       1.00000000      -0.04223291       0.06405525       0.00501789
Ni       7.55609184       2.90971415       2.16001588        4       1.00000000       0.05467240       0.03415559       0.06897265
Ni      10.10303869       2.93390063       2.14668162        3       1.00000000      -0.00935997       0.00971619       0.00832136
Ni       3.73959268       5.07303976       2.14423608        3       1.00000000      -0.03272090      -0.04511962       0.05245118
Pt       6.29766740       5.11041769       2.11158704        3       0.00000000       0.02708172       0.04028493      -0.05292608
Ni       8.83946431       5.04408385       2.14534118        3       1.00000000       0.04160850      -0.08676568       0.09419252
Ni      11.35822594       5.06134266       2.11246957        3       1.00000000       0.01257091      -0.02224023       0.04001885
Ni       5.05181446       7.24615054       2.11482883        3       1.00000000      -0.02513935       0.04732065       0.07532225
Ni       7.53908017       7.28794843       2.14582320        3       1.00000000      -0.03046419       0.02147592       0.17078601
Pt      10.08510374       7.24442215       2.13983311        3       0.00000000       0.02793151      -0.00855451      -0.01229965
Ni      12.60300927       7.19742319       2.09687706        3       1.00000000       0.05543209      -0.09572792       0.03138773
Ni       0.00876375       1.45187405       4.28578545        6       1.00000000       0.06339510      -0.08771102      -0.08876842
Ni       2.47578477       1.41535101       4.22316104        5       1.00000000      -0.03060434      -0.11469554      -0.18204590
Pt       5.03790646       1.37366183       4.20695808        5       0.00000000      -0.00311784      -0.16281421       0.10555679
Ni       7.58084433       1.45739322       4.27643100        6       1.00000000       0.08033219      -0.06611424      -0.12298198
Pt       1.25107302       3.62808699       4.26817350        6       0.00000000       0.02899366      -0.04609841       0.05790807
Ni       3.76522602       3.68151173       4.22892126        5       1.00000000       0.01471586       0.04471938      -0.20665070
Pt       6.32300711       3.64848465       4.30817285        6       0.00000000       0.01789739       0.00315145       0.09281015
Ni       8.82703371       3.63736931       4.26047946        6       1.00000000       0.02605859       0.09808344      -0.18352510
Ni       2.50840355       5.77901413       4.27033681        6       1.00000000      -0.04929772      -0.04689141      -0.14308493
Ni       5.02922423       5.79019538       4.28841011        6       1.00000000       0.05613319       0.00385968      -0.07712903
Ni       7.57122884       5.82728540       4.24807891        5       1.00000000       0.07707367       0.07505670      -0.11747012
Ni      10.07724325       5.79457845       4.24174003        5       1.00000000      -0.04892792      -0.03678770      -0.10308220
Pt       3.77058316       7.90317681       4.21847597        5       0.00000000       0.01195541       0.00288742       0.05024558
Ni       6.32725666       7.95230440       4.19830734        5       1.00000000       0.02543975      -0.01356323      -0.13836427
Ni       8.79566138       7.93840040       4.22058655        5       1.00000000      -0.10645728      -0.02620664      -0.13249819
Ni      11.31633803       7.91456613       4.24719744        5       1.00000000      -0.00617669      -0.12773659      -0.01002479
Pt      -0.01695466      -0.01154307       6.44007253        9       0.00000000      -0.02159236       0.09150966       0.36918514
Pt       2.53392542      -0.02346320       6.39106487        9       0.00000000      -0.05074166       0.05162385       0.19008726
Ni       5.03383722      -0.03380397       6.38553841        9       1.00000000      -0.06506110       0.01171155       0.02884080
Pt       7.47138667      -0.01496295       6.42811691        9       0.00000000       0.05313622       0.07857034       0.29847102
Ni       1.22099237       2.21005457       6.38664203        9       1.00000000       0.05862654      -0.05789590      -0.01466336
Pt       3.77880365       2.26213818       6.32837521        8       0.00000000      -0.11997586       0.16322297       0.76629557
Ni       6.31766849       2.19947290       6.39708843        9       1.00000000      -0.00071466       0.06328895       0.05384862
Ni       8.81012506       2.22494253       6.24530357        7       1.00000000      -0.02991496      -0.02134296       0.32950556
Ni       2.50009210       4.39938723       6.38252163        9       1.00000000       0.04757912       0.01371027      -0.14342168
Ni       5.04090367       4.40039956       6.37827701        9       1.00000000      -0.08009562       0.01158417       0.00036631
Ni       7.55466782       4.31818840       6.38254422        9       1.00000000       0.12580666      -0.01103156       0.02135143
Ni      10.08798274       4.30777063       6.37010101        9       1.00000000      -0.03617165      -0.00698624      -0.14325753
Ni       3.77054166       6.44785218       6.37164230        9       1.00000000      -0.03220409       0.05757383      -0.14840680
Ni       6.27028830       6.45390783       6.34367740        8       1.00000000       0.05989475       0.08287473      -0.16623202
Pt       8.85323460       6.43546510       6.36444356        9       0.00000000      -0.02781343      -0.09283293       0.08922093
Ni      11.35532896       6.47007644       6.33713096        8       1.00000000       0.04537333      -0.05652021      -0.16976086
