64
Lattice="10.242903648805234 0.04426533629989324 -0.026905417210887177 5.159786730145391 8.839038910132622 -0.05111325784227496 0.0 0.0 21.53425452918153" Properties=species:S:1:pos:R:3:tags:I:1:initial_magmoms:R:1:forces:R:3 unique_id=066cd877ccaa4078bc59a2b5d2a204aa energy=-372.60206843750836 stress="0.0018983566576388014 3.445462002083885e-05 -7.417825371495164e-05 3.445462002083885e-05 0.00112530303395518 7.953155285496597e-05 -7.417825371495164e-05 7.953155285496597e-05 -0.005343241117585159" pbc="T T T"
Ni       0.01553204      -0.06918956       0.16704634        2       1.00000000       0.09129481      -0.02561568      -0.33878497
Ni       2.53603357      -0.00678449       0.13402878        1       1.00000000       0.04935995       0.15237163      -0.41155281
Pt       5.16055496      -0.00666659       0.13151887        1       0.00000000      -0.05934232       0.18250417      -1.08149046
Ni       7.69017984      -0.02212934       0.12992395        1       1.00000000      -0.04718772      -0.10150115      -0.35926995
Pt       1.27974350       2.23376961       0.06447221        1       0.00000000      -0.06543587       0.06059945       0.01555049
Pt       3.88380832       2.31026095       0.14957565        1       0.00000000      -0.03047155      -0.03954957      -0.64934751
Ni       6.41158918       2.28140371       0.06663271        1       1.00000000      -0.05044857       0.04122719       0.19570757
Pt       8.89935084       2.30977816       0.08224716        1       0.00000000       0.09004875       0.18557431      -0.81339868
Ni       2.58043090       4.48549138       0.05508230        1       1.00000000       0.04725379      -0.00077020       0.32957442
Ni       5.16381137       4.48379801       0.05235105        1       1.00000000      -0.06202890       0.06360579       0.34269147
Ni       7.65750655       4.48674306       0.04806879        0       1.00000000       0.00140955       0.09420229       0.32342270
Ni      10.26501832       4.50895182       0.03955775        0       1.00000000      -0.03359323      -0.00743974       0.36185882
Ni       3.87201911       6.60200573       0.04589832        0       1.00000000       0.02414260      -0.00331510       0.31435590
Ni       6.38283647       6.60267147       0.00000000        0       1.00000000      -0.07387720      -0.01557407       0.20638462
Ni       8.98222486       6.58435935       0.09610369        1       1.00000000       0.03350528      -0.06946008      -0.50914688
Ni      11.59703737       6.60443835       0.00169699        0       1.00000000       0.04105241       0.05960459       0.21994621
Ni       1.30125091       0.75914988       2.17212980        5       1.00000000       0.01535781       0.10485770       0.18020681
Ni       3.79967302       0.78126252       2.16151820        5       1.00000000      -0.14932940       0.01583962       0.20269738
Ni       6.41906224       0.79217477       2.15895016        5       1.00000000       0.00659915       0.08716531       0.12594338
Pt       8.93891620       0.74776817       2.12998872        4       0.00000000       0.07639045      -0.06246403       0.10769126
Ni       2.56114626       2.98083356       2.22918740        5       1.00000000      -0.00846346       0.02337325       0.15366667
Ni       5.14887809       3.01042340       2.14589335        4       1.00000000       0.03632982       0.07506882       0.05577395
Ni       7.65845235       3.00901300       2.16415880        5       1.00000000      -0.03204750       0.03153411       0.12609849
Ni      10.26830485       3.04429888       2.16190729        5       1.00000000       0.05394467       0.05811224       0.12280988
Ni       3.86749587       5.13599072       2.11220720        4       1.00000000      -0.01401552      -0.10296375      -0.00047224
Ni       6.37538967       5.13310166       2.08454089        4       1.00000000      -0.06155342      -0.02947713       0.04078855
Ni       8.98508553       5.10248217       2.10933341        4       1.00000000      -0.03433991      -0.12846996       0.06307232
Ni      11.56773770       5.11790723       2.09496605        4       1.00000000       0.05741167      -0.15728511       0.01459247
Ni       5.12045901       7.29001736       2.09605667        4       1.00000000      -0.12241545      -0.11684096       0.06392508
Pt       7.61979288       7.34794325       2.04752625        3       0.00000000      -0.03734890      -0.05469089      -0.00749546
Pt      10.35393444       7.28407849       2.14418474        4       0.00000000       0.04074825      -0.23230594       0.17007895
Ni      12.85579730       7.32818737       2.06098480        4       1.00000000       0.08581622      -0.14900106       0.02695344
Pt       0.06877537       1.51221177       4.26296332        7       0.00000000       0.07986410      -0.10578917      -0.09738428
Ni       2.55488763       1.52199984       4.25084394        7       1.00000000       0.03751925       0.03935350      -0.28095453
Pt       5.12967568       1.49108134       4.18943212        6       0.00000000       0.09074711      -0.03033191      -0.18860453
Ni       7.67575445       1.48863495       4.27084190        7       1.00000000      -0.00514747      -0.06046753      -0.22051663
Ni       1.29090061       3.67158385       4.29316773        7       1.00000000       0.04541649      -0.01066342      -0.15302234
Ni       3.82063676       3.69620936       4.23648377        6       1.00000000      -0.01282581       0.02340529      -0.25717674
Pt       6.39795162       3.68818909       4.28605405        7       0.00000000       0.00900901      -0.06087526       0.01338985
Ni       9.01089487       3.73320308       4.22398851        6       1.00000000       0.07998831       0.02796695      -0.25644645
Pt       2.54575775       5.80012251       4.27494564        7       0.00000000      -0.03081280      -0.02491374      -0.07828318
Ni       5.12167552       5.85946435       4.28241291        7       1.00000000      -0.02013307      -0.07058157      -0.14850886
Pt       7.67820300       5.86749872       4.25586872        7       0.00000000      -0.02671407       0.02562622      -0.03077854
Ni      10.27517085       5.83704999       4.27437330        7       1.00000000      -0.01394350      -0.03784743      -0.10107007
Pt       3.88038413       8.02271669       4.23209665        6       0.00000000       0.06211078       0.04189574      -0.05027779
Ni       6.40750065       8.08144239       4.23845204        6       1.00000000      -0.00103259      -0.01276440      -0.19133751
Pt       8.96250521       8.10766983       4.21166263        6       0.00000000      -0.06807629      -0.01508612      -0.19032784
Ni      11.57068882       8.08858502       4.22842468        6       1.00000000       0.02526380      -0.05849121      -0.17959470
Pt      -0.00607990      -0.08599461       6.53425453       10       0.00000000      -0.13748724       0.12024215       0.31839515
Pt       2.51983435      -0.00161239       6.48598881       10       0.00000000       0.14319065       0.15455293       0.36147499
Pt       5.13782111      -0.00179096       6.39915952        9       0.00000000      -0.07835909      -0.05302291       1.18747599
Pt       7.66414782      -0.03348488       6.48227458       10       0.00000000       0.08622137       0.15517589       0.28551121
Ni       1.27701894       2.25844295       6.36529978        9       1.00000000       0.08723665       0.07938213       0.22427391
Pt       3.81725234       2.33890175       6.36962407        9       0.00000000      -0.13450980      -0.04003439       0.59961986
Ni       6.39214192       2.26405701       6.44298329        9       1.00000000       0.02331596       0.00440251      -0.01415575
Pt       8.93874765       2.33586509       6.33692129        8       0.00000000      -0.13457090      -0.10865955       0.85311026
Ni       2.53476401       4.44318482       6.43591702        9       1.00000000       0.02699291      -0.07672526      -0.23192360
Ni       5.13305256       4.46658368       6.43622742        9       1.00000000      -0.08843277       0.04119220      -0.25498714
Ni       7.62392641       4.42609699       6.44714304        9       1.00000000      -0.02577144      -0.02045992      -0.07316851
Ni      10.32140234       4.42441381       6.38795984        9       1.00000000       0.06326089      -0.01932082      -0.26133974
Ni       3.86110242       6.52121289       6.44475021        9       1.00000000       0.01483035      -0.02492388      -0.21534304
Ni       6.38160753       6.55340695       6.41845570        9       1.00000000      -0.03923133       0.04416050      -0.13993701
Pt       9.00285572       6.49869896       6.49278142       10       0.00000000       0.12032285       0.05870771       0.30316055
Ni      11.56646801       6.57411766       6.40513787        9       1.00000000      -0.04700854       0.07597871      -0.12410484
