64
Lattice="10.164056276552524 0.015699007280644755 -0.007195051036802987 5.095623877395557 8.758483783820603 -0.04678318658877388 -0.005874734571150171 -0.040715831723845866 8.677769422679857" Properties=species:S:1:pos:R:3:tags:I:1:initial_magmoms:R:1:forces:R:3 unique_id=9bae06f5660f4970bcba004af37e76f2 stress="-0.006264701569470482 9.116400753052185e-06 1.317994283814143e-05 9.116400753052185e-06 -0.00621389712512993 -4.247706926090723e-06 1.317994283814143e-05 -4.247706926090723e-06 -0.005330612833571079" energy=-390.9738130465513 pbc="T T T"
Ni       0.03118119      -0.05169207       0.19445819        4       1.00000000       0.04418088      -0.07961862       0.13604821
Ni       2.49562212       0.00397541       0.15671939        4       1.00000000      -0.03028788       0.06345694      -0.05242112
Pt       5.10728540      -0.06170119       0.20642180        4       0.00000000      -0.04204332      -0.06724289      -0.08993873
Ni       7.63564243      -0.04424506       0.16226619        4       1.00000000       0.01150094      -0.10362723       0.00903743
Ni       1.26700561       2.20945371       0.11992581        4       1.00000000      -0.02577861       0.08453265       0.10457272
Pt       3.78033496       2.25759478       0.18812868        4       0.00000000      -0.03174748       0.02842823      -0.10660332
Ni       6.35934740       2.23914145       0.11545126        4       1.00000000      -0.01862579       0.04562639       0.11455449
Pt       8.89854255       2.25194664       0.14585881        4       0.00000000      -0.01371784       0.03866526      -0.14654116
Ni       2.52127749       4.42113883       0.09347199        4       1.00000000      -0.01269693       0.02615068       0.06806927
Ni       5.10796879       4.42642421       0.08997875        4       1.00000000      -0.02390384       0.03727495       0.01413409
Ni       7.59775029       4.42093976       0.09597670        4       1.00000000      -0.03084734       0.03984151       0.10605473
Ni      10.20537990       4.42389230       0.09156771        4       1.00000000       0.04574676       0.00503554       0.02405659
Ni       3.82128841       6.54232905       0.08540952        4       1.00000000      -0.00299779      -0.03823863       0.05216568
Ni       6.32836491       6.54368524       0.05279069        4       1.00000000      -0.07455742      -0.02949775      -0.04693235
Ni       8.91525478       6.50402566       0.16070765        4       1.00000000       0.09039880      -0.11887898       0.15489222
Ni      11.47395847       6.52274706       0.08900193        4       1.00000000       0.02569079      -0.05336156       0.06745949
Ni       1.29575797       0.76380178       2.15459719        3       1.00000000      -0.00968925       0.09357265       0.02342588
Ni       3.77114993       0.73614667       2.19671619        3       1.00000000      -0.07673722       0.01168657      -0.01217929
Ni       6.36633186       0.72986234       2.18332112        3       1.00000000       0.01988686       0.01068250       0.00374976
Pt       8.86838203       0.66839307       2.19625198        3       0.00000000       0.03126764      -0.05100324       0.10090616
Ni       2.50730088       2.95097150       2.22965685        3       1.00000000      -0.02324948       0.08492593       0.06533137
Ni       5.09556866       2.96593101       2.15447722        3       1.00000000       0.00672088       0.07820328       0.00466389
Ni       7.60337059       2.95864293       2.18304182        3       1.00000000       0.01400785       0.01947011       0.07365336
Ni      10.21189974       2.98630109       2.17636551        3       1.00000000       0.03818018       0.03861504       0.03671188
Ni       3.82018959       5.09067564       2.12244707        3       1.00000000      -0.01351599      -0.05066676      -0.03923847
Ni       6.32528902       5.09080092       2.10470676        3       1.00000000      -0.01788225       0.02587013       0.03053100
Ni       8.93875065       5.06705023       2.13263779        3       1.00000000       0.01137112      -0.05290139       0.04968247
Ni      11.43372263       5.10317693       2.12841821        3       1.00000000      -0.00612285      -0.03339569       0.02920714
Ni       5.06884772       7.22541007       2.14632921        3       1.00000000      -0.05916167      -0.11940588       0.06574454
Pt       7.61600485       7.30593038       2.10457133        3       0.00000000      -0.06616904      -0.00981853       0.00858183
Ni      10.21390309       7.23968843       2.20152995        3       1.00000000       0.00176554      -0.09436504       0.08796647
Ni      12.69360286       7.24486366       2.11669808        3       1.00000000       0.00192135      -0.08254116      -0.03276634
Pt       0.06658845       1.46951905       4.25896135        2       0.00000000       0.03896979      -0.01667258       0.00938785
Ni       2.54055035       1.46205854       4.23676787        2       1.00000000       0.02250276       0.01196933      -0.10285529
Pt       5.06529015       1.41461756       4.18031110        2       0.00000000       0.01255542       0.01491799      -0.11764377
Ni       7.61604636       1.42654015       4.27442363        2       1.00000000      -0.00915977      -0.03395013      -0.05013241
Ni       1.28319769       3.64783777       4.28588914        2       1.00000000       0.04386460       0.03340441      -0.06275702
Ni       3.78413714       3.66536060       4.22411796        2       1.00000000       0.02229366       0.03475751      -0.17507398
Pt       6.34154069       3.64157253       4.28072293        2       0.00000000      -0.00466868       0.00662065      -0.02615782
Ni       8.94598488       3.68657491       4.22227469        2       1.00000000       0.06237934       0.04013281      -0.15154806
Pt       2.54693799       5.80898679       4.25273068        2       0.00000000       0.01703836       0.01858625      -0.05914523
Ni       5.06653344       5.84943981       4.26879906        2       1.00000000       0.01741903       0.00562025      -0.12433399
Pt       7.63929245       5.83995960       4.25354462        2       0.00000000       0.03693912       0.01971989       0.02101091
Ni      10.19403175       5.81182762       4.23637158        2       1.00000000       0.01238331      -0.00532746      -0.05710981
Ni       3.83127212       7.96999963       4.23719790        2       1.00000000       0.03587627      -0.02128952      -0.00730210
Ni       6.33804653       7.99789034       4.22210715        2       1.00000000      -0.04844419       0.01702565      -0.08597400
Ni       8.91106594       8.00173709       4.21095669        2       1.00000000       0.00662122      -0.04028195      -0.07037604
Ni      11.45199469       7.98243885       4.17864967        2       1.00000000       0.02960510       0.00285614      -0.11734774
Pt      -0.00291649      -0.10429510       6.46861976        1       0.00000000      -0.05985446      -0.01620310       0.16155968
Pt       2.51680309      -0.02381197       6.40536193        1       0.00000000       0.07749146       0.01062482      -0.06577343
Pt       5.10034005      -0.03641773       6.35341439        1       0.00000000      -0.06323411      -0.04195709       0.06704214
Pt       7.61936360      -0.07506796       6.41144189        1       0.00000000       0.05937542      -0.02278100       0.02075512
Ni       1.26916004       2.22979010       6.40972460        1       1.00000000       0.02996887       0.04550476       0.01039501
Pt       3.78915775       2.30879916       6.34089679        1       0.00000000      -0.02777883       0.07953970       0.03233703
Ni       6.34407545       2.21734641       6.41796834        1       1.00000000      -0.03791695       0.01331135       0.01969142
Pt       8.87319962       2.29165885       6.32767039        1       0.00000000      -0.06197116       0.07545191       0.07340979
Ni       2.51375277       4.40348273       6.40235782        1       1.00000000       0.00262254       0.06773359      -0.01193180
Ni       5.08861071       4.42267249       6.40788812        1       1.00000000      -0.04699429       0.08789049      -0.03511885
Ni       7.56214276       4.37192609       6.42482012        1       1.00000000      -0.13691518       0.00589328       0.05643351
Ni      10.24658780       4.36204242       6.37543540        1       1.00000000       0.13922945      -0.01854484      -0.10823265
Ni       3.82630474       6.45900745       6.39612932        1       1.00000000       0.00318361      -0.05125280      -0.02493580
Ni       6.32252861       6.48076908       6.38945727        1       1.00000000      -0.00497486      -0.00492755      -0.09556145
Pt       8.93314122       6.42901111       6.45851348        1       0.00000000       0.05416323      -0.06061065       0.20418321
Ni      11.47278646       6.48656574       6.39042870        1       1.00000000       0.01452231      -0.00523711      -0.03147432
