64
Lattice="10.386869028678369 -0.015664042840860575 0.06019225352671069 5.179869055313029 8.92434048223827 0.0495475041074586 0.0 0.0 21.597477499821917" Properties=species:S:1:pos:R:3:tags:I:1:initial_magmoms:R:1:forces:R:3 unique_id=1f7436b9895c400788d1029fe2e0d3ed energy=-379.3269271065376 stress="0.006332705774857609 -5.0276148054948636e-05 0.00042005958469169553 -5.0276148054948636e-05 0.005879632826498632 0.00031599576823781284 0.00042005958469169553 0.00031599576823781284 -0.0012029871733794315" pbc="T T T"
Ni      -0.00808473      -0.01294082       0.07697046        1       1.00000000       0.00643244       0.01826561       0.02454925
Ni       2.61765366      -0.01106695       0.11067756        1       1.00000000       0.08130016       0.03282135       0.18501975
Ni       5.19852891      -0.03338614       0.08874658        1       1.00000000      -0.01071644       0.02192398      -0.26064730
Ni       7.78900778      -0.06737891       0.13055463        1       1.00000000      -0.06653188      -0.17835123      -0.00550564
Pt       1.30437586       2.24349286       0.03816614        0       0.00000000       0.00601709      -0.08959740       0.18023244
Pt       3.87593874       2.18319878       0.12846380        1       0.00000000       0.02250105      -0.05009516      -0.29290660
Pt       6.49081337       2.13973308       0.07244558        1       0.00000000       0.05467932      -0.04944387      -0.10291013
Pt       9.11349742       2.21321348       0.09980203        1       0.00000000       0.02238488       0.06096949      -0.55533742
Ni       2.56650458       4.50868016       0.00000000        0       1.00000000       0.04083730       0.04923352       0.20686639
Pt       5.15015039       4.49277835       0.09898242        1       0.00000000       0.19163978      -0.00954538      -0.79361094
Pt       7.82525095       4.50009288       0.09850276        1       0.00000000      -0.15602935       0.07581022      -0.70617173
Ni      10.41867822       4.49667989       0.04792557        0       1.00000000       0.01880243       0.06384238       0.19793885
Ni       3.84164407       6.73131622       0.03685704        0       1.00000000      -0.06418259       0.12517690       0.42035483
Pt       6.48923427       6.79483999       0.16380137        2       0.00000000       0.02066987       0.01332022      -0.40531162
Ni       9.11642383       6.72019435       0.05464415        1       1.00000000      -0.00799781       0.08900686       0.23446286
Ni      11.69402793       6.68852491       0.05788831        1       1.00000000       0.12127343       0.10282634       0.35259708
Ni       1.33892451       0.74223699       2.18540292        4       1.00000000       0.11947025       0.02292527       0.35530466
Ni       3.87895117       0.76359085       2.19431749        4       1.00000000      -0.14747005       0.13822675       0.29880985
Ni       6.49688314       0.76388600       2.20390385        4       1.00000000      -0.02494802       0.17314030       0.29253570
Pt       9.10931918       0.72855559       2.22636612        4       0.00000000       0.07002892       0.17404932       0.00456209
Ni       2.59924291       2.93766438       2.23109529        4       1.00000000      -0.02028195      -0.17063101       0.49832105
Ni       5.20069715       2.93417582       2.23187423        4       1.00000000      -0.09924736      -0.14027761       0.33205044
Ni       7.78048544       2.94621930       2.23486871        4       1.00000000       0.01948845      -0.11015149       0.21248664
Ni      10.41391831       2.94565191       2.26675302        5       1.00000000       0.06449768      -0.12606868       0.42104431
Pt       3.88455710       5.21819066       2.22488540        4       0.00000000      -0.07423253      -0.07281148      -0.07559653
Ni       6.50112642       5.21229182       2.21661170        4       1.00000000       0.03181681       0.01318538       0.20190313
Pt       9.06071789       5.18310620       2.27767564        5       0.00000000      -0.06702538      -0.08308836       0.05150978
Pt      11.70240681       5.14838756       2.19490851        4       0.00000000      -0.11204132      -0.12728584       0.06348095
Ni       5.21288607       7.46676312       2.19905737        4       1.00000000       0.04955128       0.10703606       0.20803869
Ni       7.76297606       7.47670921       2.22929299        4       1.00000000      -0.10451855       0.15862912       0.29379550
Pt      10.38448294       7.49062470       2.13886809        3       0.00000000       0.01201082      -0.05031773      -0.06129385
Ni      12.99500835       7.43409858       2.20294516        4       1.00000000       0.02244788      -0.00560878       0.01545783
Ni       0.07673646       1.53761571       4.29697380        6       1.00000000       0.26313431       0.05440239      -0.36972653
Ni       2.57971879       1.53234512       4.29712896        6       1.00000000      -0.14765804       0.06302777      -0.40803303
Ni       5.20256929       1.50984571       4.31908099        6       1.00000000      -0.12489641      -0.02752710      -0.40527009
Ni       7.81639635       1.50639973       4.35451991        7       1.00000000       0.01941730      -0.04993126      -0.28786592
Ni       1.33690376       3.68541112       4.35829224        7       1.00000000       0.09140827      -0.15506927      -0.15599388
Ni       3.85669270       3.70323009       4.31613267        6       1.00000000      -0.21455028      -0.11905700      -0.36142118
Pt       6.52828620       3.64732513       4.27459564        6       0.00000000      -0.04698094      -0.07596894      -0.21292906
Ni       9.13776630       3.67906695       4.33989600        6       1.00000000       0.15355266      -0.26570442      -0.43145376
Ni       2.60773519       5.91736050       4.40018755        7       1.00000000       0.02259053      -0.16482981       0.06476946
Pt       5.22198116       5.96395046       4.30046818        6       0.00000000       0.16701862      -0.03696228      -0.01070316
Ni       7.80231414       5.95927228       4.35221249        7       1.00000000      -0.07749781       0.04698927      -0.30224218
Pt      10.41551441       5.86759819       4.49418607        8       0.00000000       0.04342720      -0.05310343       0.15977032
Pt       3.93867703       8.20329859       4.33548850        6       0.00000000       0.00363814       0.04686032      -0.00864150
Ni       6.51045131       8.23161096       4.32140641        6       1.00000000      -0.03077011       0.23991455      -0.45516943
Pt       9.02550347       8.21707637       4.33262057        6       0.00000000      -0.07061799       0.10080805      -0.11133476
Pt      11.70934191       8.20433626       4.35098456        7       0.00000000      -0.01036962       0.02956771      -0.18080065
Pt       0.03887268       0.02211444       6.50977015       10       0.00000000       0.07198405       0.10667001       0.23852331
Pt       2.61961950       0.02265968       6.53271492       10       0.00000000      -0.05127849       0.12745914       0.18680428
Pt       5.23054823      -0.03946678       6.56663738       11       0.00000000      -0.04216182       0.14963949       0.24138736
Pt       7.80964434      -0.04601597       6.59747750       11       0.00000000      -0.03812504       0.10279698       0.27300970
Ni       1.32596168       2.29569311       6.41270756        9       1.00000000      -0.00048994       0.18694933      -0.23389668
Pt       3.87392875       2.26922514       6.40719543        9       0.00000000      -0.07065179       0.01525689       0.25551960
Ni       6.52341519       2.22550989       6.46540046       10       1.00000000      -0.00995052      -0.07597374      -0.01378717
Pt       9.16365429       2.26374730       6.42533833        9       0.00000000       0.05688694      -0.01981836       0.43234117
Ni       2.57071259       4.49580238       6.49600235       10       1.00000000      -0.10811598      -0.01860237      -0.47451014
Pt       5.15397871       4.46936928       6.47269624       10       0.00000000      -0.08934153      -0.08481091       0.65073144
Pt       7.88318061       4.48380033       6.45171751       10       0.00000000       0.04738165      -0.00439638       0.47883792
Ni      10.46774726       4.46648768       6.56891942       11       1.00000000       0.12603665      -0.15832440      -0.21887675
Ni       3.86530193       6.67404026       6.53962075       10       1.00000000      -0.16045176      -0.09971557      -0.26216882
Pt       6.53027352       6.69633754       6.48214507       10       0.00000000       0.07357157       0.02936792       0.50906395
Ni       9.15114676       6.67231785       6.57569260       11       1.00000000       0.04033460      -0.00787515      -0.10255234
Ni      11.71990950       6.62824077       6.59378070       11       1.00000000       0.09289900      -0.05915447      -0.27541180
