64
Lattice="10.267155525118467 0.020588679840340303 -0.0019370989764395472 5.151408082331354 8.876869375867201 -0.006493581854757725 -0.0015816346911814874 -0.005209050470205548 8.785100081419765" Properties=species:S:1:pos:R:3:tags:I:1:initial_magmoms:R:1:forces:R:3 unique_id=388aaa7292c0472b871668312331183b stress="0.00024751857919355635 1.5384569109248443e-06 -1.3657192790041367e-05 1.5384569109248443e-06 0.00025030800525303876 1.7050757015476165e-05 -1.3657192790041367e-05 1.7050757015476165e-05 0.0002398316330033401" energy=-396.1426336141645 pbc="T T T"
Ni       0.01192398      -0.00443519       0.17953783        4       1.00000000       0.01973776       0.04152961       0.36608213
Ni       2.53437708       0.01951581       0.20075663        4       1.00000000      -0.06963648       0.08972269       0.43000871
Pt       5.12506788      -0.02512759       0.13142089        4       0.00000000      -0.05503000      -0.04473028       0.33212237
Ni       7.72621857      -0.04186597       0.18315924        4       1.00000000       0.03266830      -0.07916651       0.37462807
Ni       1.29462287       2.22716794       0.10749538        4       1.00000000       0.03054303       0.04606177       0.26060548
Pt       3.76839263       2.28016424       0.18125841        4       0.00000000      -0.06945727       0.13195530       0.13053277
Pt       6.41977567       2.23397470       0.11248617        4       0.00000000       0.03706586       0.05947503      -0.00708800
Pt       9.08286573       2.23566730       0.11844505        4       0.00000000       0.10126392       0.00785077       0.16034651
Ni       2.56875176       4.47661367       0.06736996        4       1.00000000       0.05867394       0.11313508       0.03321959
Ni       5.09577958       4.48067712       0.18620579        4       1.00000000      -0.09544128       0.09531616       0.34339772
Pt       7.72287666       4.49469214       0.03413989        4       0.00000000       0.02808551       0.09726974      -0.16550798
Ni      10.33619496       4.47884684       0.05625722        4       1.00000000       0.15918387       0.06856341       0.06528057
Ni       3.82406145       6.65079169       0.10850847        4       1.00000000      -0.08423572      -0.03833106       0.21988150
Pt       6.38536532       6.72076449       0.17683401        4       0.00000000      -0.08865512       0.03972878       0.06461560
Ni       9.01688721       6.66260105       0.06523137        4       1.00000000       0.00554590      -0.01359895       0.09019772
Ni      11.59945335       6.63989533       0.06326120        4       1.00000000       0.09623942      -0.03926835       0.05887247
Ni       1.31519533       0.75134185       2.22683051        3       1.00000000       0.03446351       0.04921643       0.15462903
Ni       3.81072233       0.78430575       2.24971402        3       1.00000000      -0.01353242       0.09837516       0.06836309
Ni       6.41772103       0.79008429       2.24980303        3       1.00000000      -0.07820956       0.06066822       0.10679525
Pt       9.00680367       0.74570685       2.24991000        3       0.00000000       0.06255013       0.16600072      -0.00815688
Ni       2.56589114       2.93279355       2.28076270        3       1.00000000       0.03755331      -0.11080629       0.20855417
Ni       5.11429588       2.98222841       2.25158919        3       1.00000000      -0.17300934      -0.00797154       0.03311769
Ni       7.68506606       2.95612656       2.25177421        3       1.00000000       0.05570585      -0.06709429      -0.04314639
Ni      10.32467124       2.95026693       2.25684154        3       1.00000000       0.14110865      -0.08854939       0.16271988
Ni       3.89882524       5.17522374       2.21766302        3       1.00000000       0.06392766      -0.02322365       0.12997976
Ni       6.37299221       5.18726391       2.23619579        3       1.00000000      -0.03500131       0.07297156      -0.03868360
Pt       8.95507119       5.14765182       2.28141058        3       0.00000000      -0.10375452      -0.18464484      -0.13685315
Pt      11.65006368       5.13348380       2.21695317        3       0.00000000       0.12162713      -0.13320786       0.11128981
Ni       5.15064756       7.36805329       2.23595277        3       1.00000000       0.04358489      -0.12159560       0.06040696
Ni       7.66463601       7.43542099       2.22297164        3       1.00000000      -0.16506099      -0.03349635       0.00709198
Pt      10.28134627       7.38395260       2.20522601        3       0.00000000       0.02042773       0.00153971      -0.25027958
Ni      12.89037849       7.38096068       2.16224004        3       1.00000000       0.11267709      -0.17217861       0.00100776
Ni       0.05892216       1.51945534       4.33343038        2       1.00000000       0.14074297       0.06527289      -0.06678886
Ni       2.52454987       1.52428817       4.30134208        2       1.00000000      -0.08141684       0.07346109      -0.14375891
Ni       5.12250486       1.51564051       4.30992531        2       1.00000000      -0.12559915       0.01094607      -0.19119079
Ni       7.70152798       1.51284796       4.33679174        2       1.00000000       0.03135557      -0.03208439      -0.06693342
Ni       1.29385816       3.68313659       4.38919168        2       1.00000000       0.02014259      -0.02750766      -0.01394842
Ni       3.81407386       3.72258506       4.29795611        2       1.00000000      -0.07900861       0.02320375      -0.20776036
Pt       6.43260104       3.70251805       4.29745155        2       0.00000000      -0.06754282      -0.00250483       0.03207357
Ni       9.03163893       3.73176677       4.34067449        2       1.00000000       0.14042366      -0.07986000      -0.11601956
Ni       2.58832448       5.84625204       4.39346321        2       1.00000000       0.03818864      -0.16688848      -0.01445172
Ni       5.13352663       5.89331462       4.30204464        2       1.00000000       0.03890578      -0.18897188      -0.17204416
Ni       7.71765989       5.90434646       4.34631479        2       1.00000000      -0.06802182       0.00330060      -0.12861009
Ni      10.28582397       5.86676924       4.42055676        2       1.00000000       0.09821269      -0.07474176       0.03009925
Pt       3.93041188       8.06295093       4.32609487        2       0.00000000       0.04700001      -0.13967947       0.24245253
Ni       6.42834226       8.14729665       4.28944187        2       1.00000000      -0.05078782       0.03786541      -0.16266318
Pt       8.91030625       8.13382132       4.29858435        2       0.00000000      -0.03678573       0.07466694       0.09773761
Pt      11.60002466       8.11612289       4.29933194        2       0.00000000       0.03572706      -0.04950529       0.06589340
Pt       0.00475634       0.02045843       6.54024866        1       0.00000000       0.01933171       0.08305287       0.13684670
Pt       2.55171975       0.01564123       6.54716630        1       0.00000000      -0.01371470       0.03539489       0.19530633
Pt       5.13371303      -0.03054728       6.45570935        1       0.00000000       0.03177640      -0.05389212      -0.40076832
Pt       7.69480802      -0.02399401       6.56938622        1       0.00000000      -0.06348477      -0.03595043       0.18807030
Ni       1.27450677       2.28856062       6.47659807        1       1.00000000      -0.06311371       0.22033509      -0.22448068
Pt       3.79544861       2.27541271       6.39839913        1       0.00000000      -0.10846421       0.09708349      -0.28639116
Ni       6.42953079       2.24232406       6.42445854        1       1.00000000      -0.03655481       0.01829181      -0.27744775
Pt       9.00088856       2.33638233       6.38616102        1       0.00000000      -0.01218763       0.11731030      -0.32628130
Ni       2.50977661       4.47013016       6.47923774        1       1.00000000      -0.16134886       0.04501008      -0.23594964
Pt       5.10118679       4.45676183       6.52060866        1       0.00000000      -0.06057357       0.03330377       0.11843870
Ni       7.74663180       4.46123227       6.40010299        1       1.00000000       0.08348652       0.09315635      -0.43675994
Ni      10.30510223       4.49059006       6.47195898        1       1.00000000       0.07778932       0.06551256      -0.21488309
Ni       3.81245792       6.61032071       6.50385219        1       1.00000000      -0.11793848      -0.09501683      -0.10078781
Pt       6.46609663       6.61658407       6.40242568        1       0.00000000       0.01990169       0.02783399      -0.25994173
Ni       9.03497472       6.58662126       6.48779482        1       1.00000000       0.10320500      -0.15806792      -0.21231151
Ni      11.56056219       6.58705395       6.49918143        1       1.00000000      -0.01125552      -0.10184744      -0.17077699
