64
Lattice="10.293171969376 0.014094596166142137 -7.932789667497001e-05 5.158792263023959 8.946405450793003 -0.007501195666166559 0.0 0.0 21.643128083658258" Properties=species:S:1:pos:R:3:tags:I:1:initial_magmoms:R:1:forces:R:3 unique_id=8e64ad1803dc480f91237f660ec2f56a stress="0.004366072402196905 -2.4464746143890276e-05 0.00022514936107316478 -2.4464746143890276e-05 0.004411194334562794 -0.00024566599131357273 0.00022514936107316478 -0.00024566599131357273 -0.0025434162765595597" energy=-375.6540611083989 pbc="T T T"
Ni       0.04678973       0.03701552       0.16182645        2       1.00000000       0.20174399       0.11009940      -0.42642254
Ni       2.59393880       0.03486648       0.21119264        2       1.00000000       0.02677259      -0.01080000      -0.11719542
Ni       5.09785259      -0.00036561       0.08843455        1       1.00000000      -0.04636343       0.06407241       0.27764698
Pt       7.72780930      -0.03256541       0.00000000        0       0.00000000      -0.12874153       0.05912352      -0.55092281
Ni       1.31235481       2.23611918       0.09510433        1       1.00000000       0.12798205      -0.02500479       0.37810227
Ni       3.82485970       2.23963193       0.20862925        2       1.00000000       0.00798594       0.00832729      -0.04324477
Pt       6.40897729       2.32337578       0.16811841        2       0.00000000      -0.05052120       0.07360288      -0.82615371
Ni       9.04262498       2.28337222       0.06112463        1       1.00000000      -0.06683837       0.01232171       0.13818619
Ni       2.59248642       4.44779518       0.08509537        1       1.00000000       0.02024226      -0.10606490       0.31426119
Ni       5.10337708       4.47732265       0.18033957        2       1.00000000      -0.15343562       0.01698540      -0.24809317
Ni       7.78639705       4.47363297       0.08073218        1       1.00000000       0.20820108       0.00630581       0.16998000
Ni      10.29340798       4.47800622       0.05792269        1       1.00000000      -0.01147089       0.09633253       0.20944009
Ni       3.86223032       6.65397786       0.06624456        1       1.00000000      -0.04348565      -0.14551427       0.13210587
Pt       6.49080296       6.71207220       0.00564371        0       0.00000000       0.19326138       0.07748678      -0.38324739
Ni       9.02922049       6.70328052       0.14773042        1       1.00000000      -0.04140216      -0.12119086      -0.06915127
Ni      11.57021498       6.68608755       0.12169467        1       1.00000000      -0.06821324      -0.04437570      -0.24485987
Ni       1.34921325       0.76102890       2.18880688        3       1.00000000       0.06309379       0.03581111      -0.01495917
Ni       3.81052397       0.76591328       2.20510747        3       1.00000000      -0.07705986       0.00554633       0.08182471
Pt       6.33162409       0.78760681       2.29831375        4       0.00000000      -0.14089178       0.04582866       0.18986959
Pt       9.04084576       0.79351723       2.20514030        3       0.00000000      -0.07871801      -0.00483145       0.06523483
Ni       2.60964419       2.95839065       2.17877108        3       1.00000000      -0.01150689      -0.01495177      -0.03546193
Ni       5.08271774       3.00068368       2.22769648        3       1.00000000      -0.10504045       0.01336767       0.14592195
Ni       7.74733914       3.02057055       2.22639279        3       1.00000000       0.07512796       0.00198318       0.13855534
Pt      10.30197380       3.00594607       2.18651159        3       0.00000000       0.03241214      -0.05881059       0.06328387
Ni       3.87448057       5.17243954       2.19734393        3       1.00000000       0.02559032      -0.05483952      -0.02639113
Pt       6.48799561       5.18058492       2.21187007        3       0.00000000       0.09696129      -0.08001450       0.07262591
Ni       9.00038798       5.21794533       2.23262152        3       1.00000000       0.03231140      -0.04070719       0.09244925
Pt      11.60264938       5.18641196       2.19026019        3       0.00000000      -0.01790054      -0.05725865       0.09397694
Pt       5.19550048       7.43247602       2.19795305        3       0.00000000       0.01669622      -0.07229095      -0.00756422
Ni       7.74012052       7.47860659       2.22125849        3       1.00000000      -0.05720631       0.00202097       0.13928900
Pt      10.19059042       7.45629833       2.24558164        3       0.00000000      -0.08692103      -0.01349472       0.15793075
Pt      12.86567068       7.41770301       2.23532913        3       0.00000000      -0.04025768       0.02558810       0.13208664
Ni       0.00740166       1.50581408       4.43347115        6       1.00000000       0.09101517      -0.06312931      -0.12408587
Pt       2.59067019       1.46761948       4.31271684        5       0.00000000       0.02552180      -0.01325848      -0.05624030
Ni       5.13475970       1.45136084       4.41792555        6       1.00000000      -0.07345007      -0.01476082      -0.00723369
Pt       7.77904837       1.50966901       4.41497691        6       0.00000000       0.11680558       0.05042971       0.08557814
Pt       1.22071414       3.76146291       4.49374346        7       0.00000000      -0.03085924       0.04968956       0.09982812
Pt       3.86408893       3.78107860       4.32835545        5       0.00000000       0.00991054       0.03410998      -0.07050726
Pt       6.49499496       3.77930261       4.38574573        6       0.00000000      -0.01097904       0.09072291      -0.07619449
Ni       9.01769105       3.77538021       4.43424920        6       1.00000000       0.01046431       0.14710544      -0.04431444
Ni       2.56410025       5.95575236       4.42107457        6       1.00000000      -0.15198264      -0.05155768      -0.13245113
Ni       5.15286744       5.96563786       4.41206782        6       1.00000000       0.05473322      -0.06400510      -0.20170226
Ni       7.78180366       5.95421314       4.39322195        6       1.00000000       0.21101954      -0.01403075      -0.20950643
Ni      10.27315056       5.98487935       4.39619265        6       1.00000000      -0.07605288       0.05106145      -0.19974742
Pt       3.83489493       8.11404931       4.45665435        7       0.00000000       0.01031766      -0.07604108       0.00013969
Pt       6.49974398       8.13320485       4.37340525        6       0.00000000       0.16745126      -0.02308636      -0.08857537
Ni       9.06081837       8.18107518       4.40133695        6       1.00000000       0.03003703       0.00105543      -0.03880090
Ni      11.53157747       8.19368292       4.42936220        6       1.00000000      -0.16305530      -0.00213960      -0.10805691
Pt      -0.05241198       0.04145469       6.62833788        9       0.00000000      -0.05448730       0.12038150       0.16655212
Pt       2.58476509      -0.01650816       6.64312808        9       0.00000000       0.00189120      -0.05716179       0.14258107
Ni       5.16796263      -0.01669498       6.54590659        8       1.00000000      -0.02535942      -0.01372104      -0.15789441
Ni       7.69458232      -0.00779878       6.47870849        8       1.00000000      -0.09114906       0.00209746       0.54056977
Ni       1.24394417       2.26959738       6.58310614        9       1.00000000      -0.01732611      -0.07285654      -0.12679277
Pt       3.82563068       2.26774049       6.62903223        9       0.00000000       0.17425601       0.11339738       0.10269512
Pt       6.47478612       2.21491866       6.54958569        8       0.00000000      -0.16955597       0.07548094       0.86651121
Ni       9.04366525       2.29439979       6.56584670        9       1.00000000       0.02698382       0.12622528      -0.17945771
Ni       2.54852516       4.48437383       6.58312415        9       1.00000000       0.03835409       0.02465775      -0.12579060
Pt       5.14574896       4.58109477       6.62649834        9       0.00000000       0.04162381      -0.09188064       0.17277881
Ni       7.76789455       4.46747842       6.56234229        9       1.00000000       0.01722377      -0.12195710      -0.17844164
Ni      10.27793630       4.44220555       6.57758485        9       1.00000000      -0.06339708       0.04678055      -0.09258021
Ni       3.85889931       6.70294481       6.56565345        9       1.00000000       0.00086467      -0.01077861      -0.02587337
Ni       6.43454600       6.69770815       6.46244293        8       1.00000000       0.06573002      -0.01166522       0.33412908
Pt       9.00761185       6.63451833       6.54592746        8       0.00000000      -0.00147009      -0.00947868      -0.11676161
Pt      11.63372198       6.70742395       6.54839066        8       0.00000000      -0.06748710      -0.02634042      -0.14945829
