64
Lattice="10.120170259087626 -0.015934519414718656 -0.0027298759211110174 5.0462854309336285 8.747822994054987 -0.016174379661922766 -0.002228934355944117 -0.013962475536831614 8.686478933352024" Properties=species:S:1:pos:R:3:tags:I:1:initial_magmoms:R:1:forces:R:3 unique_id=78e965990bc049bfb36b3d48d9abe4be stress="-0.0010718501874221326 3.989999828704355e-06 -1.0409855569959746e-05 3.989999828704355e-06 -0.0010710977327601998 -1.013814556510189e-05 -1.0409855569959746e-05 -1.013814556510189e-05 -0.0008939259110000639" energy=-389.909662421836 pbc="T T T"
Ni       0.03896341      -0.04407083       0.16995965        4       1.00000000       0.14788996      -0.04907876       0.18895570
Ni       2.51336581      -0.03729667       0.18928980        4       1.00000000      -0.00434106      -0.06792342       0.20153022
Ni       5.07734635      -0.02599504       0.08906192        4       1.00000000      -0.00836460      -0.04605668       0.04988188
Ni       7.55506171      -0.05697250       0.18241973        4       1.00000000      -0.03859458      -0.09038237       0.27563349
Ni       1.26584333       2.19855472       0.11435239        4       1.00000000       0.00173192       0.04142537       0.23497262
Pt       3.78506313       2.18588869       0.18195429        4       0.00000000      -0.02187579      -0.02745316       0.30795141
Ni       6.31531065       2.18437121       0.10468832        4       1.00000000      -0.00834780       0.06348904       0.20378699
Pt       8.85603443       2.23371483       0.12599637        4       0.00000000       0.01947718       0.02190148       0.28610168
Ni       2.50199391       4.40717483       0.09683210        4       1.00000000      -0.01644857       0.04808392       0.15512174
Ni       5.04863914       4.39510097       0.06517296        4       1.00000000      -0.07715289       0.05527886       0.07713458
Ni       7.57376164       4.39552649       0.07074238        4       1.00000000      -0.00610317       0.11347636       0.08058568
Ni      10.14434214       4.40046828       0.09775614        4       1.00000000       0.08571042       0.15500809       0.17686254
Ni       3.78162278       6.54442267       0.09194426        4       1.00000000       0.00886553      -0.03876288       0.13571093
Ni       6.30762973       6.57182265       0.06602043        4       1.00000000      -0.01017898       0.07943873      -0.05385401
Ni       8.82592133       6.53593915       0.14379378        4       1.00000000      -0.11233477      -0.04150522       0.20114743
Ni      11.39398670       6.53135251       0.06795642        4       1.00000000       0.05022311      -0.04077977       0.00895304
Ni       1.30958190       0.72568662       2.19041426        3       1.00000000       0.07063439       0.04843157       0.08014064
Ni       3.74992306       0.70121298       2.19050809        3       1.00000000      -0.12738386      -0.06759263      -0.04124022
Ni       6.30082728       0.72954250       2.12888763        3       1.00000000      -0.02995045       0.02229235      -0.08668211
Pt       8.90044799       0.67354514       2.16663096        3       0.00000000       0.10668024       0.12450560      -0.16216201
Ni       2.50549348       2.92558547       2.20394627        3       1.00000000       0.06366072       0.01040808       0.02447481
Ni       5.05080763       2.91848913       2.19080161        3       1.00000000      -0.08427755       0.09970187      -0.00714903
Ni       7.57194706       2.93201985       2.17840228        3       1.00000000       0.03962131       0.03935675      -0.00640657
Ni      10.15340646       2.93825712       2.19167457        3       1.00000000      -0.00583864       0.00548317      -0.00565894
Ni       3.74791433       5.09542659       2.16734305        3       1.00000000      -0.04095300      -0.03432448       0.03332750
Pt       6.31461669       5.13316882       2.13017813        3       0.00000000       0.01138870       0.05063112       0.00442071
Ni       8.86686709       5.06183978       2.17280746        3       1.00000000       0.04152769      -0.05566116       0.03295190
Ni      11.39649112       5.07217490       2.14630805        3       1.00000000       0.03767143       0.00165553      -0.02108432
Ni       5.07022438       7.26642047       2.13937406        3       1.00000000       0.03696844      -0.06336305      -0.00640009
Ni       7.56097438       7.31370352       2.17706073        3       1.00000000      -0.00888349       0.01497213       0.08204436
Pt      10.11085804       7.26250880       2.17315423        3       0.00000000       0.01435256      -0.04063153      -0.02479594
Ni      12.64010314       7.20924800       2.13804377        3       1.00000000       0.01986435      -0.19021460       0.01491262
Ni       0.05893192       1.44461073       4.29020295        2       1.00000000       0.04474323      -0.10512931      -0.05535307
Ni       2.48103305       1.42653695       4.25759019        2       1.00000000      -0.02015330      -0.06159639      -0.10618126
Pt       4.99028937       1.38492281       4.23370102        2       0.00000000      -0.20760702      -0.01426383       0.04229566
Pt       7.58574767       1.44632911       4.25920084        2       0.00000000       0.04033278      -0.06714431       0.07941696
Pt       1.26367136       3.65537299       4.29701962        2       0.00000000      -0.02381801      -0.04221993       0.00539319
Ni       3.76783478       3.70010165       4.27179516        2       1.00000000      -0.01209455       0.10139035      -0.18812533
Pt       6.30330377       3.70910757       4.35350727        2       0.00000000       0.00418077      -0.01514643       0.02715473
Ni       8.86862415       3.70945224       4.26181300        2       1.00000000      -0.03546107       0.14708858      -0.18112275
Ni       2.51031819       5.80387432       4.31132471        2       1.00000000      -0.05068782      -0.05815702      -0.15794198
Ni       5.04482117       5.81827265       4.33165410        2       1.00000000       0.01969463      -0.01631051      -0.09817356
Ni       7.59582477       5.85983650       4.29394726        2       1.00000000       0.04914241       0.07570030      -0.15008777
Ni      10.11309455       5.81781849       4.29203026        2       1.00000000      -0.00366499      -0.02969694      -0.12217957
Pt       3.79973202       7.89819929       4.26363238        2       0.00000000      -0.03334520      -0.05954884       0.10689830
Ni       6.35575181       7.98381231       4.24653016        2       1.00000000       0.02045867      -0.05080010      -0.12796392
Ni       8.81779981       7.96249806       4.27115773        2       1.00000000      -0.08199181      -0.11395372      -0.08087812
Ni      11.33743295       7.92483064       4.30092184        2       1.00000000      -0.00772233      -0.12775687      -0.00758808
Pt       0.00601080      -0.05561415       6.47519809        1       0.00000000       0.04478423      -0.10584446       0.07182096
Pt       2.55908733      -0.01987723       6.42886379        1       0.00000000      -0.04323893       0.02135780       0.06385179
Ni       5.05749335      -0.03026027       6.43347227        1       1.00000000      -0.03486565      -0.00165816      -0.19052319
Pt       7.50188665      -0.08327220       6.50468724        1       0.00000000      -0.12264075      -0.05948694       0.18059397
Ni       1.27042029       2.22167052       6.43079591        1       1.00000000       0.05022465       0.01771935      -0.08071199
Pt       3.79143005       2.27679631       6.38601411        1       0.00000000       0.03068938       0.20473169      -0.34006952
Ni       6.30920098       2.20194590       6.45694221        1       1.00000000      -0.01553000       0.04617322      -0.03419034
Pt       8.87846301       2.27350621       6.36054784        1       0.00000000       0.03088389       0.13442801      -0.48045384
Ni       2.51260153       4.42241990       6.43142574        1       1.00000000       0.00030788       0.12755218      -0.06571785
Ni       5.05110365       4.42334580       6.43831687        1       1.00000000      -0.04298005       0.16767723      -0.04748452
Ni       7.54819129       4.38388547       6.44043390        1       1.00000000      -0.07319841       0.05228320      -0.05907041
Ni      10.16460023       4.37655901       6.42944920        1       1.00000000       0.18855054       0.01054352      -0.05939929
Ni       3.78287351       6.46585692       6.42997980        1       1.00000000      -0.02139747      -0.12623559      -0.05142518
Ni       6.29374661       6.48441090       6.40523351        1       1.00000000       0.02811063      -0.01289528      -0.23063345
Pt       8.88183902       6.47273617       6.41928084        1       0.00000000       0.05703731      -0.06872382       0.09563187
Ni      11.38805402       6.48299869       6.40694885        1       1.00000000       0.06601760      -0.11188725      -0.19895164
