64
Lattice="10.319625430201858 -0.013747789017197466 0.06264034794010627 5.147906780566166 8.872277269860618 0.026425219172788072 0.0 0.0 21.59997508057935" Properties=species:S:1:pos:R:3:tags:I:1:initial_magmoms:R:1:forces:R:3 unique_id=bf497ecaa6444fb0b38d52438a1f4327 stress="0.00575261865951841 4.592252917305987e-05 0.00044895083123058305 4.592252917305987e-05 0.005740481520895864 9.131652053780935e-05 0.00044895083123058305 9.131652053780935e-05 -0.0014484376019503666" energy=-376.1697754448931 pbc="T T T"
Ni       0.01658777       0.00319577       0.11573914        1       1.00000000       0.11032563       0.06290287      -0.04478220
Ni       2.55680182       0.01452714       0.15082726        2       1.00000000      -0.05631562       0.09372116       0.05043080
Pt       5.15623434      -0.05378535       0.10259119        1       0.00000000      -0.02345719       0.16022324      -0.87866284
Ni       7.76895605      -0.06189428       0.16921638        2       1.00000000      -0.04979665      -0.06289922      -0.16086927
Ni       1.29209735       2.22460557       0.05320924        1       1.00000000      -0.01175773       0.01349098       0.41948570
Pt       3.76303927       2.21752790       0.14271891        1       0.00000000       0.06706539       0.02386068      -0.28936200
Pt       6.47472278       2.18302177       0.08561073        1       0.00000000       0.04628296      -0.05164565      -0.14255334
Pt       9.13426876       2.20825840       0.11409145        1       0.00000000       0.05159046       0.11264702      -0.46609074
Ni       2.52979864       4.46287138       0.00792824        0       1.00000000      -0.02326720      -0.02352609       0.21885323
Pt       5.10513018       4.47914610       0.00000000        0       0.00000000       0.09968538       0.05101654      -0.33318976
Pt       7.79502841       4.47770824       0.01702874        0       0.00000000      -0.08507689       0.01679376      -0.24577086
Ni      10.37673911       4.45187919       0.05850183        1       1.00000000       0.09411316      -0.02045977       0.24825947
Ni       3.81288317       6.69530691       0.04695682        0       1.00000000       0.00284628       0.10261466       0.30423263
Pt       6.44555299       6.75387447       0.16942972        2       0.00000000      -0.02990729      -0.01515445      -0.48694789
Ni       9.05421817       6.64803118       0.06433260        1       1.00000000       0.02069267       0.02827019       0.17518475
Ni      11.63419989       6.61674749       0.07277524        1       1.00000000       0.07305432       0.05445805       0.30446780
Ni       1.33247017       0.74857878       2.18827326        3       1.00000000       0.06510453       0.07482521       0.24780873
Ni       3.83918240       0.76398959       2.23174496        3       1.00000000      -0.08255554       0.12145446       0.32509393
Ni       6.46305194       0.76462781       2.24240168        3       1.00000000      -0.04363703       0.13785051       0.31010248
Pt       9.05987636       0.72937065       2.24934912        3       0.00000000       0.04545065       0.18045728       0.01465356
Ni       2.55750018       2.90619571       2.24301334        3       1.00000000      -0.05593075      -0.16645679       0.33259867
Ni       5.16758054       2.91786266       2.24477856        3       1.00000000      -0.04700181      -0.11525397       0.20879957
Ni       7.73142101       2.92953022       2.25139238        4       1.00000000      -0.02269666      -0.07472038       0.14136347
Ni      10.37053300       2.91529416       2.27091559        4       1.00000000       0.10271909      -0.14616081       0.28743730
Pt       3.87754666       5.16905931       2.20878275        3       0.00000000       0.03886658      -0.12549111      -0.11788713
Ni       6.45929809       5.16561751       2.22086320        3       1.00000000      -0.00235172      -0.10807158       0.09372894
Pt       8.98974851       5.12532264       2.29594015        4       0.00000000      -0.13317618      -0.20474468      -0.00428235
Pt      11.62459745       5.09714318       2.24020738        3       0.00000000      -0.04098448      -0.19064400       0.13361911
Ni       5.18470996       7.41648791       2.20540106        3       1.00000000       0.07655470       0.04020423       0.20924367
Ni       7.70758678       7.42829014       2.23177442        3       1.00000000      -0.09263962       0.09114833       0.23771669
Pt      10.31775513       7.37217021       2.22873823        3       0.00000000      -0.02378282      -0.03745425      -0.21574199
Ni      12.91862903       7.38151373       2.19935829        3       1.00000000       0.01994135      -0.02070402       0.01886019
Ni       0.08187085       1.52972997       4.30087114        5       1.00000000       0.20197586       0.08484758      -0.18963465
Ni       2.56431834       1.51729911       4.29664854        5       1.00000000      -0.09621038       0.05501676      -0.24441406
Ni       5.16945647       1.49443475       4.31214027        5       1.00000000      -0.11839443      -0.05489956      -0.40519952
Ni       7.76452215       1.48935740       4.35665917        6       1.00000000       0.02441623      -0.09279155      -0.26864048
Ni       1.30867079       3.68065205       4.36691063        6       1.00000000      -0.00318609      -0.07374757      -0.01345010
Ni       3.84028739       3.68299901       4.32213697        5       1.00000000      -0.17819508      -0.10479042      -0.26581409
Pt       6.50258835       3.63761771       4.34453528        5       0.00000000       0.01753697      -0.03324847      -0.20680556
Ni       9.09133743       3.70434344       4.36791786        6       1.00000000       0.18785338      -0.08204645      -0.15316833
Ni       2.56498715       5.85573148       4.39754492        6       1.00000000      -0.07914109      -0.19297969       0.04047073
Pt       5.17601572       5.88065828       4.33892233        5       0.00000000       0.09413806      -0.05863388       0.01525433
Ni       7.78722023       5.88104647       4.37608444        6       1.00000000      -0.02771020      -0.04991794      -0.10424548
Ni      10.33794386       5.84415294       4.45429147        7       1.00000000       0.01978015      -0.06943134       0.08990858
Pt       3.92178827       8.13517813       4.32143367        5       0.00000000       0.05236093       0.04954001       0.04216891
Ni       6.46829282       8.16152325       4.31070885        5       1.00000000      -0.07862904       0.13511044      -0.29487508
Pt       8.95791014       8.11959763       4.32828595        5       0.00000000      -0.10587625       0.07487744       0.05426619
Pt      11.64424344       8.09438311       4.33993549        5       0.00000000      -0.00487881      -0.06409962       0.00910093
Pt       0.04138699       0.00877304       6.51871740        9       0.00000000       0.08579080       0.04856811       0.26512862
Pt       2.60080468       0.01479959       6.53649061        9       0.00000000      -0.04489955       0.08777502       0.23039026
Pt       5.18828520      -0.03876194       6.46782548        9       0.00000000      -0.00603642       0.19836950       0.94599843
Pt       7.76167087      -0.05312124       6.59997508       10       0.00000000      -0.08836800       0.15856104       0.33639669
Ni       1.31882174       2.28289384       6.46567413        9       1.00000000      -0.02424339       0.21631169      -0.38271796
Pt       3.88186013       2.31459215       6.40732774        8       0.00000000      -0.01095885       0.01467487       0.24385185
Ni       6.48220597       2.23786420       6.45239185        9       1.00000000      -0.01822990      -0.05408849       0.10604893
Pt       9.07398039       2.30409559       6.42230397        8       0.00000000       0.00545891       0.00048578       0.40971790
Ni       2.56806191       4.46557468       6.47433903        9       1.00000000      -0.06007551      -0.00563390      -0.46387389
Ni       5.17332088       4.42256981       6.43361570        8       1.00000000      -0.04451054      -0.01010237       0.18163656
Ni       7.78913222       4.43009787       6.43141833        8       1.00000000       0.10366624       0.03190827       0.04945525
Ni      10.37891006       4.45953061       6.51805044        9       1.00000000       0.04658364      -0.00790783      -0.48046161
Ni       3.85498344       6.58422649       6.51611942        9       1.00000000      -0.06351557      -0.14526894      -0.24876066
Pt       6.50576942       6.56307401       6.48081227        9       0.00000000       0.10096126       0.07715978       0.50002021
Ni       9.08779285       6.56684320       6.52666841        9       1.00000000       0.05108074      -0.12571061      -0.32092079
Ni      11.63370926       6.55922371       6.55091255       10       1.00000000      -0.02850204      -0.01046008      -0.37263244
