64
Lattice="10.47873921553206 0.02045232828670813 0.033503303570646875 5.257081843628858 9.121673803100423 -0.01949291264271678 0.027355332815216755 -0.034171703050960074 9.055666544584353" Properties=species:S:1:pos:R:3:tags:I:1:initial_magmoms:R:1:forces:R:3 unique_id=eeeb4aa4c1b24ce6bd486ae3c9dcbad7 stress="-0.00021586908853409026 -4.567400957378036e-06 4.06663866638208e-06 -4.567400957378036e-06 -0.00022016902042126113 3.994813848739014e-06 4.06663866638208e-06 3.994813848739014e-06 -0.00015232483707799255" energy=-409.1676524117667 pbc="T T T"
Ni      -0.03782902      -0.01720754       0.14401336        4       1.00000000      -0.29989793      -0.12746437       0.37402222
Ni       2.63587298      -0.02839813       0.14639139        4       1.00000000       0.13794359      -0.16492313       0.39699214
Ni       5.25765989      -0.02762961       0.14571776        4       1.00000000       0.14963960      -0.12867951       0.27266600
Ni       7.88368504      -0.01049646       0.12060724        4       1.00000000       0.13641588      -0.16938855       0.35209887
Pt       1.25201546       2.24355538       0.10159197        4       0.00000000      -0.05506093      -0.06382362       0.09210284
Pt       3.96932111       2.25273906       0.12025883        4       0.00000000       0.05030065      -0.01518565       0.12541431
Pt       6.59667243       2.22265830       0.15792639        4       0.00000000       0.21495685      -0.19232485       0.00871371
Ni       9.17096759       2.26926917       0.08530186        4       1.00000000      -0.08082803      -0.15411356       0.24380102
Pt       2.62819585       4.63275420       0.09496226        4       0.00000000       0.01268992       0.11361925       0.03744074
Ni       5.26140310       4.57336076       0.13252767        4       1.00000000       0.22503853      -0.05572746       0.31836602
Pt       7.92596328       4.58542845       0.15908856        4       0.00000000       0.10828552      -0.04087725       0.06604655
Ni      10.47658702       4.59772599       0.07155167        4       1.00000000      -0.01755514       0.12319219       0.17366069
Ni       3.94092121       6.87974342       0.13819564        4       1.00000000      -0.01286265       0.29176750       0.37474588
Pt       6.55246497       6.88506708       0.19443845        4       0.00000000      -0.00655733       0.03079962       0.15319317
Ni       9.20264301       6.85635665       0.07736116        4       1.00000000       0.03665598      -0.00648943       0.18839857
Ni      11.79815844       6.88255901       0.13965002        4       1.00000000       0.08704902       0.16417233       0.24815604
Pt       1.26684024       0.64966561       2.22460250        3       0.00000000      -0.07557196      -0.06388755      -0.06596055
Pt       4.00559896       0.73439395       2.27907703        3       0.00000000       0.08564192       0.10841498       0.11453021
Ni       6.58835433       0.75293939       2.29627381        3       1.00000000       0.17731516      -0.07683321       0.04771732
Ni       9.13811342       0.73782222       2.26569118        3       1.00000000      -0.25148341      -0.06304927      -0.16204636
Pt       2.65104211       3.04290706       2.29183591        3       0.00000000      -0.10495300       0.04769544      -0.07922381
Ni       5.28549872       3.03897018       2.29622194        3       1.00000000       0.10868294      -0.03521976       0.03383257
Pt       7.81701118       3.03303628       2.39247766        3       0.00000000      -0.20468310      -0.01787069       0.20827665
Pt      10.40085118       3.06450062       2.28061982        3       0.00000000      -0.22081175       0.01826735      -0.15630893
Pt       4.03792017       5.38303806       2.21468246        3       0.00000000       0.06408532       0.09931476      -0.12964214
Ni       6.59684124       5.32838920       2.28297504        3       1.00000000       0.28347818       0.00019303       0.08332424
Ni       9.15605603       5.35026448       2.30918686        3       1.00000000      -0.19651202       0.12864270       0.23250252
Pt      11.74963771       5.38080959       2.27119508        3       0.00000000      -0.06639981      -0.00908417      -0.04142152
Ni       5.24170902       7.60134264       2.23054087        3       1.00000000      -0.16442197       0.07668577      -0.01881987
Ni       7.88428527       7.55466268       2.26290358        3       1.00000000       0.09867910      -0.25804669       0.08624892
Pt      10.48991222       7.59527896       2.19601632        3       0.00000000      -0.04651556      -0.03799669      -0.09366395
Ni      13.13910388       7.65857724       2.23980110        3       1.00000000       0.02126762       0.21051212      -0.18462790
Pt      -0.10107998       1.54480171       4.48385243        2       0.00000000      -0.22788326       0.07107748      -0.15506547
Pt       2.65616013       1.48769621       4.48385432        2       0.00000000      -0.08833483      -0.04075117      -0.03341313
Ni       5.30395578       1.52033950       4.49001918        2       1.00000000       0.17383234       0.03183446      -0.26642743
Ni       7.85439884       1.54594619       4.50862648        2       1.00000000      -0.11834967       0.06835880      -0.23648893
Pt       1.22416151       3.84135502       4.49883153        2       0.00000000      -0.17534851       0.12190731      -0.07067723
Pt       4.04724945       3.75586059       4.44328148        2       0.00000000       0.17016665      -0.04828466      -0.12459881
Ni       6.61260908       3.77219242       4.49614295        2       1.00000000       0.17149909      -0.02226400      -0.06560549
Ni       9.15379296       3.82533274       4.51580607        2       1.00000000      -0.18926785       0.15109190      -0.24392786
Pt       2.61389577       6.09162446       4.44700607        2       0.00000000       0.00612778       0.11127926      -0.13409999
Pt       5.35267204       6.02750498       4.42230412        2       0.00000000       0.25185697      -0.04027566      -0.07394241
Ni       7.92870401       6.03059395       4.47876466        2       1.00000000       0.18464846      -0.21200486      -0.31833110
Ni      10.44770122       6.05956801       4.53734367        2       1.00000000      -0.22894170      -0.05239597      -0.03589523
Pt       3.92963452       8.38051035       4.40160134        2       0.00000000       0.03974062      -0.04105765      -0.30017310
Pt       6.59081609       8.31150093       4.42408845        2       0.00000000      -0.02745042      -0.06120549      -0.05671116
Pt       9.21774150       8.26326738       4.48551849        2       0.00000000      -0.03404223      -0.21507905      -0.03249545
Pt      11.81755108       8.43457103       4.45832445        2       0.00000000      -0.02875500       0.16047428      -0.20303341
Pt      -0.05722656       0.02053389       6.79235339        1       0.00000000      -0.16568789       0.06320228       0.15249256
Pt       2.65191285      -0.05298820       6.79646667        1       0.00000000      -0.06222227       0.02922779       0.13986225
Pt       5.28614958      -0.03210591       6.78975226        1       0.00000000       0.05793931       0.02929234       0.11197271
Ni       7.87838546       0.00603428       6.76520517        1       1.00000000      -0.04193248      -0.01423267      -0.18195102
Pt       1.24737710       2.29439114       6.68632558        1       0.00000000      -0.16032929       0.08818162      -0.20678771
Pt       3.97493863       2.25004339       6.68076529        1       0.00000000       0.04463969       0.02015872      -0.23640816
Pt       6.65991585       2.23015305       6.62682269        1       0.00000000       0.18204587      -0.01567519      -0.10256745
Ni       9.18356017       2.27924247       6.75500418        1       1.00000000      -0.03860190       0.06289846      -0.16319126
Pt       2.60569630       4.54732054       6.67871704        1       0.00000000       0.04301659       0.00699813      -0.28883701
Pt       5.30246455       4.53787763       6.74834201        1       0.00000000       0.14750077       0.00851105       0.06321702
Pt       7.99739413       4.54308326       6.62121914        1       0.00000000       0.16829892       0.02077013      -0.05421562
Ni      10.47672866       4.56584167       6.74354433        1       1.00000000      -0.05306196       0.08788899      -0.19486616
Pt       3.92917812       6.85934048       6.77300670        1       0.00000000      -0.09341699       0.06190417       0.12676242
Pt       6.63545908       6.81112636       6.68822011        1       0.00000000       0.05414963      -0.00443194       0.03743949
Ni       9.21619330       6.80228223       6.73060696        1       1.00000000       0.00990107      -0.07229639      -0.20733230
Pt      11.74299152       6.81867583       6.77887216        1       0.00000000      -0.16574868      -0.08739410       0.05476028
