64
Lattice="10.464894822536689 0.05047377696370019 0.04103436252860817 5.276158984343858 9.139871090115129 0.024113220501683793 0.03350441670515745 0.003390378306885432 9.040699402873392" Properties=species:S:1:pos:R:3:tags:I:1:initial_magmoms:R:1:forces:R:3 unique_id=af32273692f44dca882a904954977a4d stress="0.004860171300880893 0.00010013208916807311 -1.9560656007996933e-05 0.00010013208916807311 0.004944919623765254 5.589769052149788e-06 -1.9560656007996933e-05 5.589769052149788e-06 0.00407977415757859" energy=-408.31961557409875 pbc="T T T"
Pt      -0.07610184       0.05500736       0.01961836        4       0.00000000      -0.12114853       0.07187612      -0.15192452
Ni       2.65560894      -0.01029223       0.17487446        4       1.00000000       0.10481029      -0.04536297       0.26538655
Ni       5.28250201      -0.00562935       0.18080659        4       1.00000000       0.14044355      -0.04663399       0.19644798
Ni       7.80035483       0.07987781       0.14137465        4       1.00000000      -0.10889421       0.09790841       0.17155891
Pt       1.26517742       2.30791851      -0.00711687        4       0.00000000      -0.04821163       0.05204462      -0.19825876
Pt       4.00819857       2.23533924       0.13654344        4       0.00000000       0.07162125      -0.03725173      -0.02835734
Ni       6.60645443       2.26188626       0.18167131        4       1.00000000       0.05383724      -0.11435480       0.12635942
Ni       9.11934898       2.34149866       0.11707062        4       1.00000000      -0.13438018       0.05977340       0.11972545
Pt       2.54834939       4.61533158       0.14622491        4       0.00000000      -0.06157191       0.01791110      -0.09207942
Pt       5.35737799       4.52545772       0.18598788        4       0.00000000       0.14986473      -0.08794468       0.01683946
Ni       7.93636336       4.57375986       0.18784629        4       1.00000000       0.13033228      -0.01165777       0.15328560
Ni      10.42867903       4.64974834       0.12323118        4       1.00000000      -0.12072608       0.11750055       0.08376243
Pt       3.86482674       6.91494992       0.15319356        4       0.00000000      -0.07181114       0.04469742      -0.11244051
Pt       6.66905690       6.84305286       0.15370975        4       0.00000000       0.05629763      -0.02379738      -0.07744312
Ni       9.24263901       6.85335584       0.11345585        4       1.00000000       0.10813469      -0.06061754       0.07525836
Ni      11.76843412       6.91568704       0.19277633        4       1.00000000      -0.02012131       0.02712684       0.05765250
Pt       1.29358728       0.77909979       2.26524464        3       0.00000000      -0.03592437       0.04065742      -0.04352728
Pt       4.06463866       0.76863090       2.31281525        3       0.00000000       0.08413719      -0.05633685       0.17519427
Ni       6.60404350       0.80290278       2.27749269        3       1.00000000       0.09376317       0.00253082       0.01053733
Ni       9.09544233       0.81905111       2.29069246        3       1.00000000      -0.08158744       0.05925408      -0.02994107
Pt       2.65600872       3.08193468       2.33197296        3       0.00000000      -0.02994171      -0.04647382      -0.00649068
Ni       5.29769749       3.04664303       2.36051949        3       1.00000000       0.00458582      -0.02930318       0.16658364
Pt       7.80274714       3.06594482       2.31663797        3       0.00000000      -0.01750102      -0.01325538       0.03302675
Pt      10.40731264       3.16459492       2.28139531        3       0.00000000      -0.01448133      -0.00963255      -0.11199138
Pt       3.97059705       5.31477426       2.32483331        3       0.00000000       0.05118343       0.01160716       0.02375816
Ni       6.62754441       5.30484902       2.32668201        3       1.00000000       0.10763077      -0.06143468       0.07034201
Ni       9.18624626       5.35027909       2.31424759        3       1.00000000      -0.00723333      -0.03994322       0.06664885
Ni      11.76656268       5.38984173       2.31700424        3       1.00000000      -0.03574896      -0.06056715       0.03506698
Pt       5.23255987       7.63498393       2.30211067        3       0.00000000       0.01695540       0.04105032      -0.04164442
Pt       7.95420344       7.53069688       2.32023624        3       0.00000000       0.03029374      -0.01003603       0.12720414
Pt      10.58816605       7.57139993       2.25585464        3       0.00000000      -0.00530944      -0.07328687       0.14756804
Ni      13.10181306       7.71057590       2.31356359        3       1.00000000       0.01137948       0.10859966       0.01737688
Pt      -0.08953182       1.59590013       4.56141531        2       0.00000000      -0.12450579       0.09917800      -0.19168598
Pt       2.66839930       1.56557442       4.50494391        2       0.00000000      -0.06030202      -0.01038926      -0.04999038
Ni       5.30888266       1.60531169       4.48760252        2       1.00000000       0.09580532       0.13336061      -0.06646327
Ni       7.83793707       1.61008932       4.50344454        2       1.00000000      -0.08380303       0.09799584      -0.13436334
Pt       1.23399696       3.86220189       4.50690260        2       0.00000000      -0.10452868       0.04326895      -0.13704055
Ni       4.00888597       3.79102545       4.49097321        2       1.00000000       0.05523314      -0.01057312      -0.08978103
Ni       6.61070251       3.78377753       4.48503630        2       1.00000000       0.04939736      -0.06262882      -0.03866412
Ni       9.13720231       3.88403903       4.52263325        2       1.00000000      -0.13179094       0.04444362      -0.15286218
Pt       2.60288357       6.09778333       4.43999431        2       0.00000000      -0.06791224       0.10029365      -0.10062879
Pt       5.36142785       6.00604462       4.46228820        2       0.00000000       0.04507713      -0.03687131      -0.10776908
Ni       7.95215257       6.03739125       4.50966968        2       1.00000000       0.07209671      -0.16520896      -0.10453411
Ni      10.44810676       6.09690066       4.54470939        2       1.00000000      -0.13441611      -0.02999502      -0.04818267
Pt       3.93402367       8.45104943       4.49072940        2       0.00000000      -0.04606191       0.04328799      -0.13999587
Pt       6.59287891       8.38310538       4.52834956        2       0.00000000      -0.03957364       0.05270009      -0.05601178
Pt       9.23984125       8.31689930       4.57008845        2       0.00000000      -0.05700556      -0.02711925       0.15573973
Pt      11.82303507       8.50492235       4.49361621        2       0.00000000      -0.05213174       0.13554453       0.03513009
Ni      -0.01088238       0.05508931       6.63607830        1       1.00000000      -0.07410905       0.05006563      -0.19371644
Pt       2.58767302       0.03240518       6.79839315        1       0.00000000      -0.10423341       0.06805736       0.22129157
Pt       5.27591604       0.01694933       6.79933645        1       0.00000000       0.01090933       0.01127500       0.16302934
Ni       7.90422710       0.06935089       6.74931350        1       1.00000000       0.06246175       0.00277161      -0.05634605
Ni       1.27504869       2.29118213       6.62601235        1       1.00000000      -0.09737019       0.02830527      -0.22742018
Pt       3.96205987       2.29812856       6.64610529        1       0.00000000       0.09800213      -0.00767217       0.03484801
Pt       6.68647245       2.26911720       6.71032899        1       0.00000000       0.10693571      -0.03924028       0.06562581
Ni       9.22135494       2.31104718       6.76545626        1       1.00000000       0.08612236      -0.02406665       0.02124580
Pt       2.59658198       4.53959525       6.66151378        1       0.00000000       0.04249295      -0.02867026      -0.03741581
Pt       5.30996243       4.55709610       6.65985255        1       0.00000000       0.07792797      -0.06369224       0.04011090
Pt       8.02156925       4.58092638       6.71478564        1       0.00000000       0.07194380      -0.05444616       0.08075170
Ni      10.49146821       4.58965975       6.74803079        1       1.00000000       0.02776600      -0.07326618      -0.06499634
Pt       3.96214160       6.93479862       6.67912472        1       0.00000000      -0.01365568      -0.01842447      -0.05011159
Pt       6.64999835       6.86294021       6.67991663        1       0.00000000       0.07612021      -0.05669510       0.02094561
Ni       9.21783971       6.85187813       6.75202279        1       1.00000000      -0.02640615      -0.05630404      -0.04523328
Pt      11.74533696       6.86379810       6.79554117        1       0.00000000      -0.06116380      -0.06993215       0.00900906
