64
Lattice="10.278203466852892 0.0023171667214616338 -0.038444421186359955 5.141108458672035 8.82572534656054 -0.07859587653290073 -0.031389738454408345 -0.055978029079841944 8.749059828742" Properties=species:S:1:pos:R:3:tags:I:1:initial_magmoms:R:1:forces:R:3 unique_id=e73283b5160f4ce3b3298598517a2955 stress="0.00017671533030646364 -1.403589468517221e-06 9.359556810406257e-06 -1.403589468517221e-06 0.00018649056577059453 1.0955115702372792e-05 9.359556810406257e-06 1.0955115702372792e-05 0.000178199043823421" energy=-395.5966058194448 pbc="T T T"
Ni       0.01114953      -0.01777369       0.18409612        4       1.00000000       0.05312558      -0.02721557       0.28544920
Ni       2.55784617      -0.00744327       0.19297225        4       1.00000000      -0.06880120      -0.03449006       0.32078147
Ni       5.13366724      -0.01889539       0.14778932        4       1.00000000      -0.06426559       0.06590459       0.22333617
Ni       7.69347977      -0.05763352       0.14658844        4       1.00000000      -0.04993605      -0.10002914       0.27711870
Ni       1.28459772       2.21008003       0.16786173        4       1.00000000      -0.00215755       0.01509239       0.34689506
Pt       3.78629942       2.21751264       0.16213392        4       0.00000000      -0.12590574       0.01412688       0.21507333
Pt       6.41434756       2.21469402       0.06847347        4       0.00000000      -0.01726012       0.00262912      -0.05046082
Pt       9.05130095       2.25158689       0.07652571        4       0.00000000       0.08259632       0.05328619       0.14533753
Ni       2.56876856       4.44347745       0.03390710        4       1.00000000       0.01594867       0.05656043       0.01874761
Ni       5.11063370       4.43331236       0.05611025        4       1.00000000      -0.13433842       0.00258459       0.18384893
Ni       7.70017194       4.42933226       0.01726999        4       1.00000000      -0.06773408       0.01580614       0.11397165
Ni      10.30522185       4.44022799      -0.00269437        4       1.00000000       0.11335846       0.11648185       0.03088750
Ni       3.82110850       6.60341705       0.04671265        4       1.00000000      -0.07914520      -0.05455011       0.17862918
Pt       6.40622256       6.61054396       0.03664564        4       0.00000000      -0.07886862      -0.04354593      -0.17069660
Ni       8.99769120       6.61654151       0.06875974        4       1.00000000      -0.07187475       0.01062063       0.17154206
Ni      11.58479304       6.61318041      -0.02125255        4       1.00000000       0.06911344      -0.04933069      -0.02955286
Ni       1.30647375       0.72951284       2.20450934        3       1.00000000       0.01702282       0.01105876       0.15113111
Ni       3.79900719       0.73392308       2.18247171        3       1.00000000      -0.13813975      -0.00006665       0.00130920
Ni       6.42867922       0.73773010       2.16996363        3       1.00000000       0.09424655       0.02244610      -0.01262751
Pt       9.00060771       0.72345575       2.18194899        3       0.00000000       0.07444185       0.18764207      -0.10375906
Ni       2.55344945       2.90367501       2.23403840        3       1.00000000       0.03726739      -0.08411447       0.20342719
Ni       5.11992392       2.97085597       2.18092389        3       1.00000000      -0.10575538       0.14776276      -0.03007755
Ni       7.67842622       2.92869012       2.18625015        3       1.00000000       0.03179917      -0.05944017      -0.02268476
Ni      10.32148703       2.91043498       2.19596488        3       1.00000000       0.10127107      -0.05583964       0.15956737
Ni       3.87324087       5.12414775       2.12395275        3       1.00000000       0.01906071      -0.05155956      -0.07127255
Ni       6.38532210       5.12689013       2.12843668        3       1.00000000      -0.02640286      -0.01462690      -0.06556897
Pt       8.93359241       5.09763801       2.14586272        3       0.00000000      -0.01260122      -0.02127393      -0.00819213
Pt      11.62929196       5.09182528       2.13285820        3       0.00000000       0.10252684      -0.07547850      -0.00192998
Ni       5.14287385       7.32009234       2.12583058        3       1.00000000       0.00033582      -0.05933143       0.00445641
Ni       7.65138200       7.36796658       2.12087752        3       1.00000000      -0.15302096      -0.04883450       0.02566311
Pt      10.31315322       7.38206709       2.07449172        3       0.00000000       0.08863172      -0.02289687       0.02513297
Ni      12.86353175       7.32041328       2.06926846        3       1.00000000       0.10373710      -0.13192137      -0.04149147
Ni       0.02371721       1.47501725       4.29675122        2       1.00000000       0.11158109       0.05406932      -0.04124673
Ni       2.50659077       1.47449548       4.26396240        2       1.00000000      -0.05195481       0.06099481      -0.07810904
Pt       5.13850460       1.44395957       4.20870965        2       0.00000000      -0.10712575      -0.00436774       0.02365834
Ni       7.69640043       1.44709758       4.27372668        2       1.00000000       0.01493543      -0.05987803      -0.11805039
Ni       1.27493201       3.66582902       4.30572591        2       1.00000000       0.04067605      -0.00836018      -0.05840449
Ni       3.77911970       3.68370925       4.26503654        2       1.00000000      -0.11232451       0.01383141      -0.19930609
Pt       6.48049462       3.66297196       4.28590547        2       0.00000000       0.05679786      -0.06142589      -0.06736691
Ni       9.02741015       3.67902299       4.26039569        2       1.00000000       0.19166883       0.00882086      -0.12407981
Ni       2.52233310       5.82237028       4.33669121        2       1.00000000      -0.03525998      -0.05023632      -0.04295148
Pt       5.11176577       5.84248727       4.27390238        2       0.00000000      -0.02651157      -0.06185509      -0.14764821
Ni       7.69628914       5.84499187       4.27510210        2       1.00000000      -0.01864731       0.01835748      -0.12258858
Ni      10.30579951       5.81065786       4.29512599        2       1.00000000       0.09305976      -0.04408257      -0.05872516
Pt       3.80393406       8.04395368       4.22355765        2       0.00000000      -0.07627755      -0.01936976       0.13611215
Ni       6.40479318       8.07637361       4.21360008        2       1.00000000      -0.10365867       0.07124107      -0.16309362
Pt       8.92694139       8.02185809       4.18498239        2       0.00000000      -0.09204738      -0.05049857       0.09703975
Ni      11.55582219       8.01694054       4.22753546        2       1.00000000      -0.03033987      -0.12156017      -0.04561404
Pt      -0.02278441      -0.10797103       6.51825144        1       0.00000000       0.05146403      -0.05982654       0.10114866
Pt       2.53802448      -0.06374295       6.50511315        1       0.00000000      -0.03871492       0.04509238       0.14995744
Pt       5.14276779      -0.06343796       6.51356027        1       0.00000000       0.06865637      -0.01559293       0.02528192
Pt       7.67427997      -0.09067733       6.49222487        1       0.00000000      -0.07395126      -0.07965151       0.14938447
Pt       1.25962036       2.27414787       6.44376773        1       0.00000000       0.05534488       0.08056578       0.11512930
Pt       3.87108727       2.28896547       6.39225609        1       0.00000000       0.09929698       0.24114407      -0.25771575
Ni       6.40888595       2.20987290       6.38295829        1       1.00000000      -0.02127368       0.01556152      -0.23331233
Pt       8.92375860       2.26096099       6.31706604        1       0.00000000      -0.03361196       0.10586617      -0.38498875
Ni       2.54725420       4.45552545       6.41884363        1       1.00000000       0.03968305       0.14150485      -0.22218743
Ni       5.13281345       4.42258266       6.44492336        1       1.00000000       0.05750771       0.17199842      -0.07160788
Ni       7.64949632       4.38619866       6.42497892        1       1.00000000      -0.14919149       0.02991104      -0.10349075
Ni      10.29444069       4.40825737       6.38614313        1       1.00000000       0.17535847       0.03686650      -0.25830096
Ni       3.81631387       6.50756620       6.43615231        1       1.00000000       0.00140077      -0.10266782      -0.06414807
Ni       6.39842779       6.52076888       6.34634897        1       1.00000000       0.05820760      -0.02596084      -0.26297641
Pt       8.98456731       6.44886571       6.42464968        1       0.00000000       0.01474227      -0.05968501       0.07008402
Ni      11.57302249       6.51135080       6.37658752        1       1.00000000       0.03223353      -0.05826372      -0.21587469
