64
Lattice="10.141362830445114 0.0032925483971521694 0.004220633187437301 5.073532845777739 8.743421343413722 -0.004876085922331097 0.003446132566892675 -0.006586843460263533 8.65220811155821" Properties=species:S:1:pos:R:3:tags:I:1:initial_magmoms:R:1:forces:R:3 unique_id=9455c526e7f44b3490621b7f7a9a91d6 stress="-0.006372490359952 1.442718164786463e-05 3.0975124771521684e-06 1.442718164786463e-05 -0.006336482970662194 -6.153710044441409e-06 3.0975124771521684e-06 -6.153710044441409e-06 -0.005465948185545008" energy=-389.73680024247227 pbc="T T T"
Ni       0.03287916      -0.01854210       0.17813246        4       1.00000000       0.04234063       0.03819124       0.09033206
Ni       2.49625154      -0.02958236       0.20044273        4       1.00000000      -0.01840502      -0.01142152       0.02773633
Pt       5.08867295      -0.06757448       0.21446065        4       0.00000000      -0.03477715      -0.04629653      -0.10720818
Ni       7.61757989      -0.04536606       0.17136163        4       1.00000000       0.00884675      -0.07900007       0.04449307
Ni       1.26438850       2.20797471       0.13214379        4       1.00000000      -0.01889294       0.08437443       0.11082364
Pt       3.76794340       2.24615717       0.20560845        4       0.00000000      -0.03452746       0.01156529      -0.09293381
Ni       6.34273562       2.23180983       0.13198250        4       1.00000000      -0.02140805       0.06136762       0.11507071
Pt       8.87745609       2.25730766       0.15530353        4       0.00000000      -0.00202201       0.09380055      -0.17972909
Ni       2.50751557       4.41392759       0.11162409        4       1.00000000      -0.03080783       0.02345051       0.05026964
Ni       5.09633281       4.41734797       0.11119435        4       1.00000000      -0.01514175       0.07593248       0.03679683
Ni       7.58239217       4.41715959       0.11999412        4       1.00000000       0.01909450       0.05056090       0.04092866
Ni      10.17577013       4.42041544       0.12106395        4       1.00000000       0.03940453       0.07939293       0.02449420
Ni       3.78810025       6.52496896       0.07814852        4       1.00000000      -0.02084590      -0.03450092      -0.03226152
Ni       6.36049340       6.53536071       0.08348866        4       1.00000000       0.04611247       0.01953784      -0.05748554
Ni       8.86171268       6.50773276       0.22834001        4       1.00000000       0.02179317      -0.03418421       0.18215856
Ni      11.43499056       6.50636068       0.12470095        4       1.00000000       0.00703119      -0.02597728       0.05518616
Ni       1.32159354       0.75095553       2.15993563        3       1.00000000      -0.03547303       0.02866695       0.05148307
Ni       3.74612807       0.69771173       2.20380145        3       1.00000000      -0.06454713      -0.03912139       0.01119953
Ni       6.33822188       0.72533162       2.18750798        3       1.00000000      -0.01025206      -0.01204610       0.02176194
Pt       8.82087101       0.71134154       2.21212898        3       0.00000000       0.02529101      -0.05337806       0.11671516
Ni       2.49982358       2.95232764       2.24237025        3       1.00000000      -0.03310321       0.04271035       0.06276561
Ni       5.07919179       2.96581795       2.16684229        3       1.00000000      -0.01702788       0.09075885       0.01611299
Ni       7.58407098       2.96256400       2.19792812        3       1.00000000       0.02059309       0.00834325       0.08423753
Ni      10.19184857       2.99068145       2.19139457        3       1.00000000       0.05103597       0.05926501       0.02575220
Ni       3.76496638       5.06033534       2.17330907        3       1.00000000      -0.05537789      -0.02633338      -0.02623957
Ni       6.35926413       5.07017070       2.11662832        3       1.00000000       0.05602043      -0.00742698      -0.01447735
Ni       8.90866237       5.08564485       2.15506937        3       1.00000000       0.06275999      -0.07514354       0.04866595
Ni      11.41385342       5.10363376       2.18900842        3       1.00000000       0.01098745      -0.01150862       0.06279145
Pt       5.09788825       7.20147880       2.18043526        3       0.00000000      -0.02331441      -0.06640830       0.01303754
Ni       7.64734463       7.29288371       2.15158200        3       1.00000000      -0.01572004      -0.00998768       0.02113814
Ni      10.15318212       7.22503139       2.24290303        3       1.00000000       0.01447565      -0.09105194       0.08886205
Ni      12.62869730       7.21797350       2.18574721        3       1.00000000       0.00878432      -0.10531648       0.01058089
Pt       0.07763560       1.49343138       4.25090991        2       0.00000000       0.05167402       0.00552258      -0.00993890
Ni       2.54173430       1.47637543       4.23191953        2       1.00000000       0.03641673       0.03005114      -0.07516762
Pt       5.05433126       1.42337881       4.17637184        2       0.00000000       0.01218099       0.02941521      -0.11415438
Ni       7.59474745       1.43407160       4.28592983        2       1.00000000      -0.03448088      -0.03872217      -0.03366738
Ni       1.30331774       3.70200403       4.28738971        2       1.00000000       0.05125045       0.06113132      -0.06603106
Ni       3.74556046       3.71998677       4.23596518        2       1.00000000      -0.01013719       0.06859264      -0.12661140
Pt       6.32579774       3.65762340       4.29184706        2       0.00000000      -0.01512430       0.02271761      -0.03110187
Ni       8.92875770       3.70070455       4.23130464        2       1.00000000       0.07328755       0.07858197      -0.15012165
Ni       2.53338889       5.81592112       4.28028820        2       1.00000000      -0.00061427       0.01338996      -0.14878732
Ni       5.00962907       5.83245484       4.32390663        2       1.00000000      -0.02081822      -0.02685309      -0.04924909
Pt       7.62775353       5.86841953       4.21988842        2       0.00000000       0.04194551       0.01488983       0.00832831
Ni      10.21193285       5.81182269       4.26177299        2       1.00000000       0.02516677      -0.00368724      -0.02040753
Ni       3.78193165       7.93910408       4.27991534        2       1.00000000      -0.00906894      -0.05142107      -0.00722967
Ni       6.34867477       8.00629578       4.25003867        2       1.00000000       0.02162616       0.05618387      -0.06718634
Ni       8.88339531       7.99716725       4.21691927        2       1.00000000       0.02022512      -0.02639130      -0.05323494
Ni      11.43753421       7.93066884       4.21798758        2       1.00000000       0.02336060      -0.03596408      -0.08499606
Pt      -0.00015279      -0.08877782       6.44191418        1       0.00000000      -0.07498675      -0.06212298       0.10979865
Pt       2.51693141      -0.00709552       6.39991664        1       0.00000000       0.07028358      -0.00556148       0.02517803
Pt       5.09418961      -0.02636448       6.33792920        1       0.00000000      -0.07934620      -0.08111318       0.05163272
Pt       7.60673205      -0.07079988       6.39870081        1       0.00000000       0.04353131      -0.03748810       0.06395526
Ni       1.26910068       2.25124073       6.40111761        1       1.00000000       0.02238474       0.03430215       0.01583813
Pt       3.78196057       2.32837807       6.33167262        1       0.00000000      -0.03423447       0.05288500       0.04308505
Ni       6.33135364       2.22736214       6.41641796        1       1.00000000      -0.05109028      -0.01661907       0.02606197
Pt       8.85570124       2.29937397       6.32071345        1       0.00000000      -0.06762928       0.05315273       0.07945181
Ni       2.51083633       4.43417298       6.37040148        1       1.00000000       0.01081469       0.04763588      -0.08239888
Ni       5.07143190       4.43759533       6.40896836        1       1.00000000      -0.06085397       0.06113756       0.00120720
Ni       7.54290720       4.38024111       6.42823110        1       1.00000000      -0.14829354      -0.01716718       0.01441509
Ni      10.22922051       4.36848843       6.38000966        1       1.00000000       0.13051236      -0.04349617      -0.10398920
Ni       3.79595092       6.46169398       6.36942858        1       1.00000000      -0.04390472      -0.05910116      -0.10478385
Ni       6.30571287       6.48635266       6.39562037        1       1.00000000       0.00044682      -0.03077585      -0.13224320
Pt       8.90669767       6.42805150       6.47566601        1       0.00000000       0.02941668      -0.10463480       0.22183467
Ni      11.45881571       6.47804967       6.37411433        1       1.00000000       0.00313154      -0.02728575      -0.10254540
