64
Lattice="10.316233643125813 -0.01742826248552286 0.0006266967744117743 5.143023503506624 8.897155777626605 -0.05682361193579456 0.0 0.0 21.601254568353006" Properties=species:S:1:pos:R:3:tags:I:1:initial_magmoms:R:1:forces:R:3 unique_id=dd204620fd4541c9bab34e004508ddeb stress="0.005405423290828183 -3.0101827880650964e-06 0.0002064472806362742 -3.0101827880650964e-06 0.005481410050604775 -0.0003908706595015669 0.0002064472806362742 -0.0003908706595015669 -0.0019702196502017263" energy=-375.7340107562989 pbc="T T T"
Ni      -0.01749349       0.01867873       0.18637051        2       1.00000000      -0.01111588       0.00130078      -0.02148918
Ni       2.57241722      -0.00757736       0.19183447        2       1.00000000      -0.06053559       0.00830949      -0.13303743
Ni       5.14940188      -0.03425545       0.14373244        1       1.00000000      -0.03184787       0.18561810      -0.44882239
Ni       7.76940669      -0.06123792       0.08097532        1       1.00000000       0.07031322      -0.06521489       0.33368680
Ni       1.26517470       2.21199119       0.05576628        1       1.00000000      -0.01306147      -0.08828765       0.30264463
Pt       3.79367179       2.22058181       0.07913412        1       0.00000000       0.06939639      -0.03350227      -0.02421037
Pt       6.46346172       2.19566698       0.10111698        1       0.00000000      -0.04149791       0.03609761      -0.73257977
Ni       9.04365742       2.16654944       0.11325866        1       1.00000000      -0.10176294      -0.12711307      -0.07516701
Ni       2.57394142       4.45915465       0.02481030        0       1.00000000       0.10928226       0.02396545       0.20134424
Ni       5.11379224       4.45690048       0.13963934        1       1.00000000      -0.05028438       0.04688844       0.04840790
Pt       7.80430469       4.45398987       0.05783054        1       0.00000000       0.01746542       0.00005311      -0.03388986
Ni      10.34018404       4.43622856       0.01468991        0       1.00000000       0.06094894       0.00569971       0.18200697
Ni       3.82527152       6.66908997       0.13256370        1       1.00000000      -0.02709221      -0.02599626       0.07148051
Pt       6.40400152       6.70623074       0.13322534        1       0.00000000      -0.11061304       0.04447097      -0.47886664
Ni       9.03146780       6.66831292       0.00766215        0       1.00000000      -0.10286864      -0.00690942       0.07194351
Ni      11.61716992       6.65638147       0.00000000        0       1.00000000       0.15905028       0.02127242       0.18465606
Ni       1.28853286       0.71213906       2.14913086        4       1.00000000      -0.00594145      -0.02846058       0.00742531
Ni       3.83711237       0.74288925       2.17583052        5       1.00000000       0.00470928       0.05529222       0.15735122
Pt       6.48898931       0.74196021       2.24018641        5       0.00000000       0.03739189       0.13836999       0.01614675
Ni       9.04101893       0.68832457       2.16714930        5       1.00000000       0.03673718      -0.04487221       0.05818385
Ni       2.60001029       2.94622232       2.17904755        5       1.00000000       0.07366662       0.01849132       0.13401818
Ni       5.11412790       2.98654522       2.19684059        5       1.00000000      -0.15924032       0.05239984       0.13113203
Ni       7.74802154       2.96448133       2.20313712        5       1.00000000       0.04446299       0.03638374       0.14402326
Pt      10.28493042       2.88115844       2.15244398        5       0.00000000       0.09617061       0.00443196       0.01516534
Ni       3.90185425       5.17821701       2.16661648        5       1.00000000       0.14915493      -0.01368367       0.12874095
Ni       6.41932171       5.17479345       2.18776611        5       1.00000000      -0.07312717       0.06688193       0.14627922
Ni       8.98337296       5.16077111       2.18798233        5       1.00000000      -0.09995952      -0.08838504       0.19484998
Pt      11.67879945       5.15536766       2.09899542        4       0.00000000       0.12760920      -0.09397984       0.00360307
Ni       5.10807115       7.39095788       2.13650876        4       1.00000000      -0.09485878      -0.12403985       0.03180473
Ni       7.71193640       7.39212939       2.13968163        4       1.00000000       0.00044207      -0.09464361       0.04140610
Pt      10.25740886       7.36895032       2.04964095        3       0.00000000       0.03334321      -0.10446066      -0.03907905
Ni      12.93087103       7.37863628       2.10300003        4       1.00000000       0.04079802      -0.00718411      -0.01275385
Ni      -0.02353903       1.47816463       4.32562352        7       1.00000000       0.00678150      -0.04932984      -0.20961227
Pt       2.60894096       1.50634777       4.29019312        7       0.00000000      -0.04511610      -0.01142931      -0.12244152
Ni       5.14557350       1.48557118       4.32254825        7       1.00000000      -0.02635123       0.13288531      -0.26447542
Ni       7.77886182       1.47391689       4.32003842        7       1.00000000       0.19161488       0.07565452      -0.24144942
Pt       1.29629687       3.68538740       4.40000826        8       0.00000000      -0.02564225      -0.04120950      -0.01096376
Ni       3.87555862       3.70820752       4.29984430        7       1.00000000       0.08339659       0.10947740      -0.28804180
Pt       6.45377765       3.70266372       4.22254562        6       0.00000000      -0.07568697       0.02175969      -0.06812917
Ni       8.99953569       3.65418936       4.32206607        7       1.00000000      -0.06443766      -0.09007417      -0.28376243
Ni       2.60228390       5.87137653       4.31009871        7       1.00000000       0.16090273      -0.05898573      -0.17507070
Ni       5.11819462       5.86803972       4.26276642        7       1.00000000      -0.10233626      -0.01711473      -0.34906685
Ni       7.72978976       5.85392804       4.27842550        7       1.00000000      -0.07155712      -0.01100808      -0.32360130
Pt      10.26402057       5.84148960       4.38030662        8       0.00000000      -0.02211222      -0.00846710      -0.09471636
Pt       3.85394051       8.13733659       4.21298341        6       0.00000000       0.01464543       0.03730661      -0.02717014
Pt       6.41002973       8.09738794       4.17708979        6       0.00000000      -0.05320041      -0.01288876      -0.13846306
Pt       8.99647628       8.11243633       4.25958428        7       0.00000000      -0.09112670       0.00324859      -0.03978130
Pt      11.63039990       8.11865697       4.32542829        7       0.00000000       0.06054501      -0.01407393       0.07241193
Pt      -0.02089606       0.00847411       6.57082004       11       0.00000000       0.09528249       0.06413161       0.11967854
Pt       2.59359296       0.01671126       6.60125457       11       0.00000000       0.00988245       0.00588834       0.35505085
Pt       5.18986108      -0.10244504       6.58848795       11       0.00000000      -0.09874494       0.07925165       0.55759047
Ni       7.73703698      -0.05047796       6.53057738       10       1.00000000       0.03512494       0.13368690      -0.00742857
Ni       1.30347561       2.24497742       6.51198593       10       1.00000000      -0.00057534      -0.01342832      -0.07263661
Ni       3.83862752       2.21323485       6.42736522        9       1.00000000       0.04396517      -0.07312730       0.09634285
Pt       6.45633606       2.16458987       6.40286703        9       0.00000000      -0.00295683      -0.01140681       0.67636413
Pt       9.06440186       2.26341551       6.47985664       10       0.00000000       0.03983139       0.10487628       0.02675783
Ni       2.52528421       4.39409113       6.49112414       10       1.00000000      -0.01723671       0.05152962      -0.12159929
Pt       5.07891022       4.37320282       6.48858189       10       0.00000000      -0.09126570       0.07876341       0.06549714
Ni       7.77950876       4.42340812       6.39714084        9       1.00000000       0.05732648       0.05598751      -0.03145358
Ni      10.32103254       4.42775595       6.50677428       10       1.00000000      -0.00301440       0.05116581      -0.05633231
Pt       3.74639292       6.62258817       6.49648743       10       0.00000000       0.13889545      -0.17523852      -0.03946343
Pt       6.49377770       6.57831600       6.40465014        9       0.00000000      -0.15790549      -0.04503361       0.45774777
Ni       9.04003781       6.57703179       6.48715683       10       1.00000000      -0.08761616      -0.00776569      -0.01649809
Ni      11.57481421       6.57901785       6.49117923       10       1.00000000      -0.04844739      -0.16422581      -0.05168922
