64
Lattice="10.244936010362071 0.04536336243739527 -0.046819403727261094 5.161753829452904 8.922611576379982 -0.04598601117481408 0.0 0.0 21.615764489737202" Properties=species:S:1:pos:R:3:tags:I:1:initial_magmoms:R:1:forces:R:3 unique_id=05cfd76cd774475fbdcdb6624184c2cd stress="0.00502351357490742 0.0002006810542278831 -0.00011006229758259893 0.0002006810542278831 0.005320892586388863 -0.00022511444809084904 -0.00011006229758259893 -0.00022511444809084904 -0.002303138780805028" energy=-373.23895641006663 pbc="T T T"
Ni       0.00412645       0.01459926       0.21000564        2       1.00000000       0.13622130       0.02493701      -0.34238422
Ni       2.57604140       0.03844167       0.23160106        2       1.00000000       0.06515621       0.04399239      -0.22068498
Ni       5.10702520       0.02783928       0.17117711        2       1.00000000      -0.01621058       0.20652003      -0.24049595
Ni       7.68439973       0.01175208       0.05103796        1       1.00000000      -0.09785619       0.04025006       0.04375114
Ni       1.30849434       2.22296758       0.18797501        2       1.00000000       0.09898635      -0.00890115      -0.07001410
Ni       3.82345534       2.23792456       0.20438047        2       1.00000000       0.02228700       0.00449405      -0.01163317
Pt       6.40774619       2.24675914       0.18706405        2       0.00000000      -0.05949442      -0.03545523      -0.56978361
Ni       8.98871666       2.27577932       0.04295923        0       1.00000000      -0.02397591       0.04419701       0.17544264
Ni       2.59302292       4.45004693       0.08805959        1       1.00000000       0.03916119      -0.10612182       0.32313765
Ni       5.09406942       4.45800375       0.17297788        2       1.00000000      -0.16869206      -0.08718245      -0.32765732
Ni       7.74775068       4.47057719       0.06124208        1       1.00000000       0.12420379      -0.04536553       0.18661247
Ni      10.25642095       4.49257260       0.02952291        0       1.00000000      -0.00476276       0.02911974       0.24957485
Ni       3.85301184       6.67304473       0.06518080        1       1.00000000       0.08951700      -0.12158456       0.13342138
Pt       6.43325342       6.73596557       0.03907314        0       0.00000000       0.02845156       0.15494841      -0.33947452
Ni       8.99635224       6.69563125       0.12160040        1       1.00000000      -0.13701932      -0.14881695      -0.31758694
Ni      11.55792860       6.71242241       0.00000000        0       1.00000000      -0.05962114      -0.08599901       0.07812156
Ni       1.30769010       0.73660268       2.17868528        4       1.00000000       0.04643817       0.02861944       0.00330549
Ni       3.83075270       0.79667693       2.18381702        4       1.00000000       0.05239221       0.06222669       0.17177328
Ni       6.36142607       0.79067612       2.25116586        5       1.00000000      -0.10373928       0.06644220       0.35488415
Pt       8.94574289       0.80327985       2.16303472        4       0.00000000      -0.10520930       0.02417619       0.05626747
Ni       2.61398813       2.96794371       2.18252313        4       1.00000000       0.08231846       0.06296372      -0.02193090
Ni       5.07392494       2.95968895       2.22510347        4       1.00000000      -0.14312574      -0.06198676       0.26900245
Ni       7.69915040       3.00038385       2.20580263        4       1.00000000       0.09673414       0.04205225       0.16002571
Pt      10.24728422       3.01156047       2.19298590        4       0.00000000       0.02606059       0.00992259       0.14745814
Ni       3.85864354       5.15308007       2.18005633        4       1.00000000       0.01473994      -0.15666513      -0.04348105
Pt       6.44642821       5.19606853       2.16480708        4       0.00000000       0.07993356      -0.03505750      -0.03189230
Ni       8.96686559       5.22245174       2.18086261        4       1.00000000       0.03666109      -0.02053226       0.10387790
Pt      11.57015931       5.19748734       2.17554365        4       0.00000000       0.01035297      -0.05768665       0.08909274
Ni       5.15621160       7.43624372       2.16214646        4       1.00000000      -0.01813969      -0.05141012      -0.00763629
Ni       7.69637428       7.46459856       2.16110164        4       1.00000000      -0.00613205       0.01771972       0.12576234
Pt      10.23229564       7.47529381       2.10971464        3       0.00000000      -0.03517158      -0.03087518       0.12366263
Pt      12.85198447       7.44882483       2.10397013        3       0.00000000       0.07301373      -0.00659714      -0.01503406
Ni      -0.05358529       1.52738519       4.39879065        7       1.00000000      -0.05764440       0.10603080      -0.07829279
Pt       2.54512000       1.57468450       4.26098657        6       0.00000000       0.00138252       0.11099560      -0.04262944
Ni       5.14133279       1.49280288       4.31361911        6       1.00000000      -0.00628616      -0.00530338      -0.25931485
Ni       7.68597023       1.50611984       4.33133579        6       1.00000000      -0.00436532       0.06108232      -0.15651388
Ni       1.26195693       3.76232521       4.40109344        7       1.00000000      -0.01288799       0.07852758      -0.01820278
Ni       3.80677030       3.73667644       4.33151491        6       1.00000000      -0.03682177      -0.00679805      -0.20433097
Pt       6.45187784       3.68099538       4.29490014        6       0.00000000      -0.01089943      -0.03235764       0.04945350
Ni       8.99747068       3.74792499       4.37447539        7       1.00000000       0.10485647       0.05755358       0.00864595
Ni       2.51382968       5.89838419       4.41849518        7       1.00000000      -0.13228432      -0.05864164      -0.02936018
Pt       5.06099571       5.92609005       4.32455960        6       0.00000000      -0.09312068      -0.06486076      -0.11177586
Ni       7.73519130       5.91008488       4.33883172        6       1.00000000       0.12378961      -0.07660118      -0.18490391
Ni      10.28251492       5.91448825       4.35004626        7       1.00000000       0.00053080      -0.03445682      -0.10700282
Pt       3.75792340       8.18705727       4.38600592        7       0.00000000      -0.07759623       0.02258440       0.02407905
Pt       6.41182019       8.17739333       4.25866201        6       0.00000000      -0.02019499       0.10072395      -0.14808303
Pt       9.03180300       8.15994917       4.28174755        6       0.00000000      -0.02111847       0.06222908      -0.00687827
Ni      11.54721638       8.19013908       4.32498106        6       1.00000000      -0.16012237      -0.03738844      -0.17950563
Pt      -0.11415163      -0.02169983       6.61453031       10       0.00000000       0.07605544       0.14835848       0.30630353
Pt       2.51807439      -0.03121451       6.61576449       10       0.00000000       0.02099201      -0.03236833       0.37983133
Pt       5.19223778      -0.05209403       6.55129005       10       0.00000000       0.01122952       0.02497925       0.30779770
Ni       7.65692119      -0.01759762       6.51188062        9       1.00000000      -0.05494013      -0.02732630       0.07065949
Pt       1.18160894       2.32408879       6.55013125       10       0.00000000       0.00652226      -0.12638224       0.02814824
Pt       3.82161440       2.28213526       6.54530552        9       0.00000000       0.22083279       0.03640355       0.15696854
Pt       6.50046265       2.22605501       6.46230650        9       0.00000000      -0.18130792      -0.04404931       0.66725423
Ni       8.94592753       2.29377900       6.47238927        9       1.00000000       0.05345742       0.10642076      -0.19756438
Ni       2.51155339       4.51544652       6.49236609        9       1.00000000       0.04804121       0.00723429      -0.29354814
Pt       5.10238643       4.54152071       6.57426502       10       0.00000000      -0.00771652      -0.14135701       0.30081183
Ni       7.71484124       4.45621920       6.48288561        9       1.00000000       0.04873366      -0.06308989      -0.18310529
Ni      10.23748999       4.49001510       6.45446865        9       1.00000000       0.00838012      -0.00382219      -0.25715226
Ni       3.77903862       6.67824560       6.51425827        9       1.00000000      -0.05330484      -0.02995520      -0.11577974
Ni       6.40208688       6.67288844       6.41316894        8       1.00000000       0.08705098       0.05977858       0.24357169
Pt       8.99018510       6.56965928       6.50202686        9       0.00000000       0.01947084       0.03527752       0.09116852
Ni      11.58087987       6.66586523       6.44560231        8       1.00000000      -0.04419335      -0.03576539      -0.29623398
