64
Lattice="10.448288786128321 0.035930900344372664 0.005081146776681158 5.255261465543234 9.037573499661393 -0.05344845842332711 0.0 0.0 21.70980619328113" Properties=species:S:1:pos:R:3:tags:I:1:initial_magmoms:R:1:forces:R:3 unique_id=ce99591df3a64610b35deb44679e8ebd energy=-382.07260783076015 stress="0.004347735672279914 0.00016424657445298466 0.0002915397085384976 0.00016424657445298466 0.003678652307783364 -0.0003159037613338674 0.0002915397085384976 -0.0003159037613338674 -0.0038333487732239626" pbc="T T T"
Ni      -0.05935461      -0.02219676       0.15556816        2       1.00000000      -0.17938548      -0.05894046      -0.15511262
Ni       2.64325374      -0.02885028       0.15109598        2       1.00000000       0.10847708      -0.03876756      -0.23517593
Ni       5.25166343      -0.02160858       0.13609645        1       1.00000000       0.14121669       0.06355566      -0.26060541
Ni       7.86168268      -0.02433089       0.09979425        1       1.00000000      -0.02364359      -0.06297681       0.51312431
Pt       1.28933893       2.27921468       0.09875411        1       0.00000000       0.18149594       0.04960424      -1.09135311
Pt       3.93010612       2.31223242       0.12694614        1       0.00000000       0.02354815       0.14370008      -0.86613902
Pt       6.57156281       2.19835492       0.11095363        1       0.00000000      -0.07213205      -0.14747070      -0.28644793
Ni       9.14501054       2.24561838       0.12681952        1       1.00000000      -0.02948932      -0.15408769      -0.03773948
Ni       2.62974400       4.55456312       0.00951222        0       1.00000000       0.01314957      -0.03660425       0.17197730
Ni       5.25212876       4.53136577       0.10711360        1       1.00000000       0.21261237      -0.03503923      -0.18430264
Pt       7.92560147       4.55081507       0.02792453        0       0.00000000      -0.06387019       0.04142444       0.25052358
Ni      10.47737595       4.58808371       0.00557784        0       1.00000000       0.01439058       0.08157107       0.22047169
Ni       3.91242673       6.80612320       0.12278839        1       1.00000000      -0.02526325       0.14401784      -0.11139550
Pt       6.53593110       6.82611932       0.14575575        1       0.00000000      -0.05391429      -0.01222534      -0.38725662
Ni       9.19148630       6.79870320       0.01512195        0       1.00000000      -0.02899194      -0.03790511       0.35325179
Ni      11.79984249       6.81228458       0.00000000        0       1.00000000       0.11265429       0.09050738       0.35497130
Pt       1.27197351       0.66154358       2.16689937        4       0.00000000      -0.05900243      -0.14366806       0.20780762
Pt       3.98593738       0.76635463       2.22320778        4       0.00000000       0.06748705      -0.05797364       0.23898004
Ni       6.57489091       0.74316707       2.23955385        4       1.00000000       0.11369318      -0.02656306       0.14903403
Ni       9.08918459       0.73081892       2.17945331        4       1.00000000      -0.14983526      -0.00601030       0.01564592
Ni       2.62475015       3.02093636       2.21267557        4       1.00000000      -0.02544156       0.01025930       0.27790213
Ni       5.25964680       3.01392490       2.23214479        4       1.00000000       0.09141655       0.02013744       0.24537214
Pt       7.78993674       3.02262496       2.32277404        5       0.00000000      -0.04545433       0.04246586       0.21263307
Pt      10.38544307       3.06723934       2.19487402        4       0.00000000      -0.24655709       0.10652427       0.11312144
Pt       3.98067090       5.27682430       2.10181866        3       0.00000000       0.04345273      -0.02936308       0.01820857
Ni       6.59087516       5.27685214       2.20982443        4       1.00000000       0.13010808      -0.03466997       0.20955336
Ni       9.12530726       5.31012700       2.23862236        4       1.00000000      -0.11210270       0.03122179       0.18153926
Pt      11.77720601       5.30085932       2.11024155        3       0.00000000       0.07179399      -0.06226401      -0.00952370
Ni       5.21123871       7.52269730       2.15510373        4       1.00000000      -0.11132518      -0.00361648       0.16511517
Ni       7.88052519       7.46980053       2.18420718        4       1.00000000       0.09979431      -0.13292202       0.18540846
Pt      10.47711621       7.51022037       2.09434406        3       0.00000000      -0.03192287      -0.00295093      -0.00973323
Ni      13.10247144       7.59655154       2.12608376        3       1.00000000      -0.04503123       0.07942850      -0.04787137
Pt      -0.09855313       1.52073294       4.37425406        7       0.00000000      -0.12438678       0.03827617      -0.20424507
Pt       2.63457819       1.48845118       4.36509641        7       0.00000000      -0.09192533      -0.14000783      -0.24507189
Ni       5.28289169       1.50802106       4.37979688        7       1.00000000       0.05324856       0.05967299      -0.34906304
Ni       7.80787797       1.53557802       4.38566498        7       1.00000000      -0.05661642       0.02705913      -0.22996174
Pt       1.24047009       3.81215567       4.41852727        7       0.00000000      -0.10846494       0.06789879      -0.14102205
Pt       3.99583958       3.71870028       4.32589452        6       0.00000000       0.02835183       0.05967799      -0.21271653
Ni       6.59928783       3.74644949       4.40628381        7       1.00000000       0.05663877       0.03431723      -0.14617571
Ni       9.10011437       3.82995420       4.42970795        7       1.00000000      -0.06518016       0.04375093      -0.13754732
Pt       2.58555634       6.01003026       4.41252861        7       0.00000000       0.04716481      -0.00494408      -0.09047447
Pt       5.33361769       5.95468736       4.30905966        6       0.00000000       0.01787435      -0.10948089      -0.20418678
Ni       7.91917424       5.93307828       4.37121277        7       1.00000000       0.07155549      -0.12053869      -0.24314661
Ni      10.41055114       5.99684038       4.43941417        7       1.00000000      -0.03942882       0.00134698      -0.08702760
Pt       3.91681470       8.27802141       4.28837309        6       0.00000000       0.01921605       0.00082879      -0.16259176
Pt       6.58098085       8.21400679       4.31244029        6       0.00000000      -0.01962540       0.10582072      -0.19694617
Pt       9.18976401       8.16785003       4.36946961        7       0.00000000      -0.02756718      -0.04058864      -0.08816765
Pt      11.78289055       8.34505710       4.34509981        6       0.00000000      -0.04034839       0.05112959      -0.06610500
Pt      -0.05208593      -0.03437328       6.70511781       10       0.00000000       0.13520810       0.08431644       0.19453809
Pt       2.64254486      -0.06571402       6.70980619       10       0.00000000      -0.01092655       0.05800357       0.40799552
Pt       5.28597034      -0.11967485       6.70107935       10       0.00000000      -0.07522775       0.14372869       0.12656722
Ni       7.82878664      -0.00941329       6.63195475        9       1.00000000       0.04277520       0.02613036      -0.24509168
Pt       1.29803334       2.31744221       6.57749583        9       0.00000000      -0.05385430      -0.11958169       1.04855212
Pt       3.93416678       2.25058588       6.56654042        9       0.00000000       0.19421635      -0.17071624       0.83648386
Pt       6.56794606       2.22660026       6.49164098        8       0.00000000      -0.10002643       0.02750543       0.45747638
Pt       9.12425490       2.34464807       6.64393620        9       0.00000000      -0.01459121       0.20317671       0.02006995
Ni       2.58500118       4.51662924       6.61128573        9       1.00000000      -0.01511051       0.02834052      -0.15618302
Pt       5.25391599       4.50298808       6.63570004        9       0.00000000       0.10414298       0.00385623       0.21240263
Ni       7.90701469       4.52627287       6.49022648        8       1.00000000       0.01334863       0.05612713      -0.04154568
Ni      10.43782048       4.59329196       6.58853086        9       1.00000000      -0.08964408       0.02457172      -0.33450114
Pt       3.83036362       6.74462471       6.68379228       10       0.00000000       0.11846615      -0.04218099       0.02403639
Pt       6.64474569       6.69270217       6.55544168        9       0.00000000      -0.02506068      -0.06098714       0.43647644
Ni       9.21361170       6.68660543       6.57297039        9       1.00000000       0.01221349      -0.03332389      -0.28585733
Ni      11.73690076       6.71764842       6.60252184        9       1.00000000      -0.07836361      -0.12358518      -0.29895499
