64
Lattice="10.328654933523419 0.004772237663028796 -0.004126020999742395 5.1684603458107885 8.890797468801841 -0.04781233526037578 -0.003368882039125664 -0.043132877030478106 8.824892872625977" Properties=species:S:1:pos:R:3:tags:I:1:initial_magmoms:R:1:forces:R:3 unique_id=2fab4221b597449696d40dc587a272ec stress="0.00027065744786097107 1.5976790102029468e-06 -1.3240941082313157e-05 1.5976790102029468e-06 0.0002800871799660612 1.868212561045049e-05 -1.3240941082313157e-05 1.868212561045049e-05 0.0002664922474758663" energy=-397.91258978701103 pbc="T T T"
Ni       0.00994579      -0.01171106       0.18544871        4       1.00000000       0.01186407       0.00751461       0.35478376
Ni       2.55281384       0.00922078       0.20317105        4       1.00000000      -0.04484733       0.06596446       0.43322746
Pt       5.15522680      -0.03979350       0.14283286        4       0.00000000      -0.05101319      -0.05846662       0.36788675
Ni       7.76741875      -0.05474215       0.18057471        4       1.00000000       0.01812614      -0.10977788       0.39986676
Ni       1.29743162       2.22763196       0.09694461        4       1.00000000       0.02858095       0.04179139       0.26112924
Pt       3.78951253       2.27495235       0.17258606        4       0.00000000      -0.05361954       0.10714829       0.11796055
Pt       6.45732236       2.23261916       0.10528506        4       0.00000000       0.04606319       0.06994988       0.00811931
Pt       9.13096788       2.22496191       0.10809199        4       0.00000000       0.12479455      -0.03838438       0.08337034
Ni       2.57621295       4.47698601       0.04874469        4       1.00000000       0.04821774       0.07606241      -0.00177593
Ni       5.12710053       4.47542149       0.16896198        4       1.00000000      -0.04351507       0.05991085       0.37063506
Pt       7.79287798       4.50034810       0.08043009        4       0.00000000       0.05768820       0.05462626      -0.08396992
Ni      10.37765687       4.47143065       0.04648045        4       1.00000000       0.14019649       0.05005762       0.13123304
Ni       3.84035008       6.65898990       0.07723402        4       1.00000000      -0.09824834      -0.05508844       0.21439947
Pt       6.41945581       6.71662279       0.16217864        4       0.00000000      -0.08529533      -0.00797820       0.08728113
Ni       9.05490082       6.65687711       0.04401537        4       1.00000000       0.00289769      -0.01682862       0.10440154
Ni      11.65525789       6.63517536       0.03363894        4       1.00000000       0.09880878      -0.07558261       0.08051364
Ni       1.31970384       0.76750161       2.19275838        3       1.00000000       0.03620557       0.21453999      -0.01989533
Ni       3.83756118       0.77176046       2.24542805        3       1.00000000      -0.01752486       0.12435995       0.08274872
Ni       6.45352846       0.77486886       2.24680655        3       1.00000000      -0.07535249       0.13226724       0.08218799
Pt       9.04818675       0.73724479       2.24006819        3       0.00000000       0.02434931       0.22120755      -0.00230542
Ni       2.57379521       2.93000996       2.26920573        3       1.00000000       0.01320660      -0.10926352       0.19623780
Ni       5.14508309       2.96624231       2.24174496        3       1.00000000      -0.14462513      -0.00425861       0.06454022
Ni       7.75431149       2.97680005       2.24024473        3       1.00000000       0.15679179       0.01394025      -0.06524199
Ni      10.35714906       2.95555045       2.24601328        3       1.00000000       0.07104390      -0.03299374       0.14525793
Ni       3.88559720       5.15861970       2.16100529        3       1.00000000      -0.04703450      -0.12884799      -0.07845194
Ni       6.45679091       5.16339012       2.20078478        3       1.00000000       0.08263687      -0.03377497      -0.04330007
Ni       9.01343915       5.14867785       2.21546327        3       1.00000000      -0.04342929      -0.18744687       0.15415601
Pt      11.67777539       5.10611155       2.15719019        3       0.00000000       0.12207208      -0.17457499       0.09094168
Ni       5.14172277       7.38101107       2.16581736        3       1.00000000      -0.16144171      -0.08253498      -0.05677763
Ni       7.74164997       7.39871773       2.16844117        3       1.00000000      -0.01053816      -0.09009191      -0.04634165
Pt      10.30512967       7.34438389       2.15619297        3       0.00000000      -0.01252186      -0.14231913      -0.28506199
Ni      12.94033513       7.37087536       2.12701673        3       1.00000000       0.03848984      -0.17507324      -0.03682333
Ni       0.03459515       1.53832893       4.34895014        2       1.00000000       0.11375077       0.17952530      -0.12457880
Ni       2.55851589       1.53129659       4.31733424        2       1.00000000      -0.05098348       0.09132113      -0.21233263
Ni       5.15142685       1.49998073       4.32567628        2       1.00000000      -0.11861993       0.05106448      -0.20813617
Ni       7.74874465       1.48832679       4.34748172        2       1.00000000       0.05019894      -0.04526030      -0.10744364
Ni       1.31422616       3.63639479       4.38502265        2       1.00000000       0.06082496      -0.09034392      -0.05603757
Ni       3.81865127       3.66812398       4.30884728        2       1.00000000      -0.10924706      -0.05233814      -0.24109710
Pt       6.50008071       3.62977561       4.30384265        2       0.00000000      -0.03097921      -0.00792169       0.00791460
Ni       9.05229413       3.67323579       4.31342722        2       1.00000000       0.04835504      -0.11693572      -0.35028734
Ni       2.57427951       5.84322329       4.38458095        2       1.00000000      -0.03503043      -0.16385320      -0.04038067
Pt       5.11799879       5.84366770       4.25174384        2       0.00000000       0.01430409      -0.10462868      -0.00234907
Ni       7.76860840       5.86633787       4.32462216        2       1.00000000      -0.00555872      -0.04112956      -0.22911248
Pt      10.32688328       5.79996436       4.41712751        2       0.00000000       0.03733918      -0.06570614      -0.01117291
Pt       3.86897164       8.12733184       4.30956573        2       0.00000000      -0.06891491      -0.07203080       0.21440585
Pt       6.45632221       8.18830584       4.20963623        2       0.00000000      -0.02046973       0.06916325      -0.00300635
Pt       9.00765114       8.16192591       4.27704427        2       0.00000000      -0.08728359       0.08065909       0.08668448
Pt      11.64544972       8.14348268       4.25914785        2       0.00000000       0.03493037       0.00863446       0.02539569
Pt      -0.00201621      -0.00506226       6.60310450        1       0.00000000       0.03045172       0.07609682       0.17069454
Pt       2.57531546      -0.00816462       6.60892553        1       0.00000000      -0.02353893       0.03371900       0.19077671
Pt       5.17269907      -0.05438614       6.50068977        1       0.00000000       0.02933125      -0.01237726      -0.35366095
Pt       7.73440438      -0.05381833       6.61320095        1       0.00000000      -0.04411315      -0.00579429       0.18557086
Ni       1.27944929       2.26316241       6.49943337        1       1.00000000      -0.05458227       0.20471680      -0.22607661
Pt       3.81459572       2.24770229       6.42290910        1       0.00000000      -0.11991567       0.11513772      -0.22645697
Ni       6.46693744       2.20841387       6.45092217        1       1.00000000      -0.01361582       0.01773198      -0.24002403
Pt       9.04759448       2.30133309       6.40904915        1       0.00000000      -0.00983873       0.12373074      -0.32765982
Ni       2.52394142       4.44764400       6.49771727        1       1.00000000      -0.13828041       0.08655621      -0.24607385
Pt       5.13579003       4.41542491       6.56397872        1       0.00000000      -0.03338635       0.05481848       0.16659506
Ni       7.78357242       4.43005628       6.43455284        1       1.00000000       0.09045513       0.09973188      -0.30770502
Ni      10.35925913       4.43495190       6.52079506        1       1.00000000       0.12427862       0.01364936      -0.04097911
Ni       3.82258651       6.60075482       6.52094678        1       1.00000000      -0.09487491      -0.07812076      -0.11069313
Pt       6.50570030       6.59382123       6.46269021        1       0.00000000       0.04639828       0.02357930      -0.27442982
Ni       9.06943939       6.57719224       6.51428624        1       1.00000000       0.08653258      -0.11938678      -0.11973548
Ni      11.63357486       6.57618880       6.52160582        1       1.00000000       0.05905542      -0.07006282      -0.09954148
