64
Lattice="10.20826237854071 0.002870586015642805 -0.015588738636930308 5.10661718968365 8.813949790023653 -0.053713888034834595 0.0 0.0 21.588878281481936" Properties=species:S:1:pos:R:3:tags:I:1:initial_magmoms:R:1:forces:R:3 unique_id=ec159ed771e4415088199a97d422d5cb stress="0.0017889659546769607 9.890675060808882e-05 -0.00018874643560622882 9.890675060808882e-05 0.0015347461217732877 -0.000553985107776716 -0.00018874643560622882 -0.000553985107776716 -0.005280836643620468" energy=-371.4298567569618 pbc="T T T"
Ni       0.02032376       0.01671780       0.20249877        2       1.00000000       0.13903260      -0.05088024      -0.62724625
Ni       2.55522309      -0.00499695       0.23925190        2       1.00000000       0.01497861      -0.02618655      -0.38853372
Ni       5.10797148      -0.03584840       0.10709472        1       1.00000000      -0.00179923       0.11285233       0.16799047
Ni       7.65856381      -0.03002878       0.06626352        1       1.00000000      -0.03949015       0.04465108      -0.02028224
Ni       1.23095916       2.21101748       0.12828290        1       1.00000000       0.04193568      -0.00263959       0.27761141
Pt       3.76785894       2.20724218       0.21206650        2       0.00000000       0.08042880       0.02704810      -0.83638348
Pt       6.43827605       2.20851295       0.23573429        2       0.00000000      -0.05118751       0.02411092      -1.06351291
Ni       8.98216721       2.24017429       0.07274588        1       1.00000000      -0.06186580       0.05137636       0.17006920
Ni       2.54237503       4.42240349       0.06482281        1       1.00000000       0.01042207      -0.03163593       0.09756346
Ni       5.07256650       4.41882328       0.07909179        1       1.00000000      -0.07829941      -0.08699131       0.09273726
Ni       7.72252853       4.40031582       0.07816986        1       1.00000000       0.08281438       0.00772229       0.13941951
Ni      10.19101068       4.38102089       0.05568068        1       1.00000000      -0.05381217       0.04660084       0.13165094
Ni       3.81731017       6.58342789       0.04496619        0       1.00000000       0.06320022      -0.05251422       0.07309859
Pt       6.38009375       6.63221343       0.00000000        0       0.00000000       0.04945811       0.12133793      -0.23096292
Ni       8.94297728       6.58608213       0.13483868        1       1.00000000      -0.07980710      -0.12138333      -0.22166014
Ni      11.47716874       6.60016277       0.00357933        0       1.00000000      -0.07441622      -0.07803536       0.10777325
Ni       1.29811596       0.73973813       2.16339073        4       1.00000000       0.05948967       0.04622270       0.04355541
Ni       3.79968662       0.71318666       2.20153822        4       1.00000000       0.02260455      -0.05244498       0.17554900
Ni       6.36635989       0.72128507       2.20672625        4       1.00000000      -0.04525212      -0.06543354       0.18107879
Pt       8.98194947       0.78767723       2.14016058        3       0.00000000      -0.05146642       0.00722002       0.03776118
Ni       2.53314803       2.92784404       2.22208916        4       1.00000000      -0.05989914       0.00060733       0.11356717
Ni       5.06863599       2.94489554       2.24443435        4       1.00000000      -0.07137310       0.09257259       0.26866232
Ni       7.71451434       2.97591001       2.21768443        4       1.00000000       0.13976374       0.13009180       0.20080840
Ni      10.20288259       2.93352666       2.17229702        4       1.00000000       0.02219132      -0.00286435       0.08438906
Ni       3.83690970       5.08645798       2.19148560        4       1.00000000       0.00023914      -0.08394191       0.01282776
Pt       6.38301134       5.14400508       2.17679372        4       0.00000000      -0.01032343      -0.07479994       0.04789961
Ni       8.92174360       5.09749984       2.18633777        4       1.00000000      -0.00171991      -0.02360147       0.06669210
Pt      11.46605451       5.07009734       2.12751064        3       0.00000000      -0.02483497       0.00146608      -0.00963474
Ni       5.11532067       7.33016365       2.15118075        4       1.00000000      -0.00106331      -0.02890721       0.03339417
Ni       7.64971984       7.35382918       2.16377641        4       1.00000000      -0.03802889      -0.01503104       0.11652089
Pt      10.13684335       7.36044646       2.18487934        4       0.00000000       0.00692370       0.01314973       0.10020112
Pt      12.78350918       7.31230607       2.10474803        3       0.00000000       0.03239407      -0.02453296      -0.02181621
Ni      -0.00320965       1.47398134       4.37688387        7       1.00000000       0.00074928      -0.04015650      -0.09617018
Pt       2.50631062       1.45289563       4.26912424        6       0.00000000      -0.09825272      -0.10628725      -0.12657824
Pt       5.09456726       1.38301627       4.28399460        6       0.00000000      -0.01743724      -0.16678818      -0.16795194
Pt       7.71920553       1.46740047       4.34047830        6       0.00000000       0.10912002      -0.02475916      -0.04423954
Pt       1.22595968       3.70133427       4.40998798        7       0.00000000      -0.01474517      -0.00335166       0.01863963
Ni       3.80950839       3.73184749       4.31843659        6       1.00000000      -0.04183182       0.02554715      -0.15917490
Pt       6.37310254       3.73819191       4.36420042        7       0.00000000      -0.04109264       0.14633902      -0.08499045
Ni       8.94087094       3.70696320       4.34773993        6       1.00000000      -0.02723220       0.09223631      -0.03381533
Ni       2.53478840       5.82901370       4.38021705        7       1.00000000      -0.07168383      -0.01580345      -0.10586574
Ni       5.04679689       5.82184398       4.35412949        7       1.00000000      -0.08055843      -0.03265752      -0.15423951
Ni       7.72064801       5.84343958       4.31974339        6       1.00000000       0.15368389      -0.00145849      -0.16877183
Ni      10.19863389       5.87328483       4.32378685        6       1.00000000      -0.01662835       0.01485271      -0.08859127
Pt       3.78751068       7.96413934       4.36079081        7       0.00000000      -0.06360262      -0.03924147      -0.05821014
Pt       6.39641124       7.96895537       4.24812259        5       0.00000000       0.04566957      -0.06507222      -0.15730630
Ni       8.94735141       8.00420486       4.31858503        6       1.00000000      -0.04313434      -0.02325481      -0.08507899
Ni      11.45554767       7.99071492       4.36293494        7       1.00000000      -0.04315636      -0.04899041      -0.02423709
Pt      -0.07815846      -0.00432602       6.58887828       11       0.00000000       0.07949308       0.01805159       0.29899320
Pt       2.56306114      -0.04180527       6.57832917       11       0.00000000       0.04160814      -0.07349776       0.29345914
Ni       5.14251916      -0.07070110       6.49007293       10       1.00000000      -0.00863358       0.04585074      -0.04805783
Ni       7.60141069      -0.08670967       6.50735084       10       1.00000000      -0.01685180      -0.00058718       0.03568413
Ni       1.22062350       2.22109511       6.51278065       10       1.00000000       0.03404189      -0.05671362      -0.04301503
Pt       3.78433079       2.29482434       6.45192989       10       0.00000000       0.10624364       0.21840829       0.89049619
Pt       6.43046219       2.17915724       6.50469917       10       0.00000000      -0.11951855       0.10493078       1.19699629
Ni       8.96762417       2.24225192       6.48653709       10       1.00000000       0.03836235       0.10025074      -0.03515944
Ni       2.52481696       4.46048727       6.48228278       10       1.00000000       0.03840555       0.03412394      -0.11855332
Ni       5.07840080       4.46587526       6.47569857       10       1.00000000      -0.05537127      -0.06996118      -0.04918666
Ni       7.67249989       4.39259496       6.47978672       10       1.00000000       0.07752614      -0.04516381      -0.03492591
Ni      10.21097542       4.35835203       6.48558632       10       1.00000000      -0.02159577       0.06439006      -0.06863320
Ni       3.78900362       6.52448270       6.46533193       10       1.00000000       0.03871640       0.03531005      -0.15099914
Ni       6.34406688       6.51578631       6.34721750        8       1.00000000       0.04914576       0.02262540       0.27514582
Pt       8.98797440       6.50588659       6.46158511       10       0.00000000      -0.06064516       0.05857813      -0.00906926
Ni      11.51870884       6.57586006       6.42447248        9       1.00000000       0.00796838      -0.07295643      -0.21738162
