64
Lattice="10.258235305359252 0.005390081793962111 -0.036357302762153904 5.133785600441675 8.833554239171988 -0.09364128894598735 -0.029685613397052817 -0.0711468569978279 8.770311314233235" Properties=species:S:1:pos:R:3:tags:I:1:initial_magmoms:R:1:forces:R:3 unique_id=ce466460a7b4473c98e2010d81935e87 stress="-7.720739647451569e-05 -9.075350970680578e-07 -3.4674731316253334e-06 -9.075350970680578e-07 -4.944087100242078e-05 3.3937932544451406e-05 -3.4674731316253334e-06 3.3937932544451406e-05 -2.733955385118836e-05" energy=-395.1397982301737 pbc="T T T"
Ni       0.03262465      -0.04820648       0.18199164        4       1.00000000       0.10988570      -0.09924856       0.27850445
Ni       2.50645240      -0.03375275       0.18854787        4       1.00000000      -0.13014696      -0.05366519       0.31759217
Pt       5.11935039      -0.05921711       0.11970198        4       0.00000000      -0.08165545      -0.20132011       0.33583675
Ni       7.71207241      -0.05484344       0.14385353        4       1.00000000       0.00850736      -0.07188693       0.30637505
Ni       1.27458205       2.20847274       0.08630033        4       1.00000000       0.00450529      -0.01732968       0.25992966
Pt       3.74344897       2.21826574       0.15458141        4       0.00000000      -0.13001547       0.02497632       0.21393989
Pt       6.44060629       2.22405729       0.06246881        4       0.00000000       0.03294452       0.04877312      -0.01461584
Pt       9.05505763       2.24861725       0.07374371        4       0.00000000       0.06172648       0.03515420       0.13805974
Ni       2.53203847       4.44187169       0.01798827        4       1.00000000      -0.03426356       0.03836241       0.01132547
Pt       5.11875757       4.52433426       0.03581281        4       0.00000000      -0.07512812       0.15483585      -0.12260513
Ni       7.70188441       4.46258113       0.00478695        4       1.00000000      -0.05316061       0.09966548       0.09637232
Ni      10.28811879       4.44007316      -0.01492876        4       1.00000000       0.09937156       0.10603749       0.04004521
Ni       3.82734998       6.65453473       0.03185710        4       1.00000000      -0.07388267       0.12998749       0.19678615
Ni       6.42392532       6.66060698       0.03347807        4       1.00000000       0.01576912       0.08883530       0.18699350
Ni       8.94373931       6.59048383       0.06585768        4       1.00000000      -0.11079000      -0.04489990       0.25623808
Ni      11.57705103       6.58754156      -0.02479057        4       1.00000000       0.06609979      -0.09928835       0.06982628
Ni       1.30160357       0.72362108       2.20718671        3       1.00000000       0.00479429       0.02122140       0.15243209
Ni       3.77468461       0.73281752       2.20251679        3       1.00000000      -0.16930644      -0.07885645      -0.05894662
Ni       6.43001994       0.73928157       2.20305227        3       1.00000000       0.08594860      -0.05329458      -0.03219200
Pt       8.99252285       0.71935959       2.18777668        3       0.00000000       0.11961555       0.17454675      -0.08855145
Ni       2.54030105       2.89870494       2.24296648        3       1.00000000       0.02194970      -0.15144555       0.21988642
Ni       5.10916143       2.95772112       2.18752619        3       1.00000000      -0.09955719       0.18559287      -0.06175077
Ni       7.67344473       2.92798832       2.19332325        3       1.00000000       0.05036144      -0.10182789      -0.01277176
Ni      10.30422196       2.91000277       2.20044617        3       1.00000000       0.12359021      -0.10210228       0.18055109
Ni       3.85283861       5.13886328       2.15974200        3       1.00000000       0.00908318      -0.01175452       0.05234579
Ni       6.39407957       5.16229172       2.13501485        3       1.00000000      -0.00417190       0.06577847      -0.02379787
Pt       8.91092280       5.09159834       2.14474879        3       0.00000000       0.00128679      -0.10099650       0.04536165
Pt      11.61003180       5.08031614       2.13866076        3       0.00000000       0.10249104      -0.18170718       0.07953153
Ni       5.15556182       7.31815435       2.08947081        3       1.00000000       0.02611943      -0.07970728      -0.02873962
Ni       7.61794348       7.36125715       2.08457543        3       1.00000000      -0.14183555      -0.05542903       0.01769222
Pt      10.29441661       7.33343053       2.15192636        3       0.00000000       0.08919435       0.07179962      -0.13077640
Ni      12.84585121       7.32685940       2.06666262        3       1.00000000       0.09929466      -0.12939908      -0.02514143
Ni       0.04240809       1.47699204       4.32206359        2       1.00000000       0.12147428       0.05208277      -0.05855024
Ni       2.48553530       1.47706464       4.28649968        2       1.00000000      -0.07146949       0.07195226      -0.08940727
Pt       5.12052441       1.45349288       4.21522106        2       0.00000000      -0.15239680       0.01253014       0.00031351
Ni       7.68997150       1.44814481       4.29297395        2       1.00000000       0.04835673      -0.02773810      -0.08473233
Ni       1.27132630       3.63554826       4.34976640        2       1.00000000       0.02705256      -0.03204020       0.00417575
Ni       3.76958594       3.67971673       4.27274906        2       1.00000000      -0.12556630       0.05883300      -0.22385791
Pt       6.47420300       3.65997847       4.29002489        2       0.00000000       0.06614743      -0.04283990      -0.11073011
Ni       9.01537439       3.67365737       4.27074091        2       1.00000000       0.21311710       0.01202144      -0.12224648
Ni       2.52222039       5.81739218       4.33957822        2       1.00000000      -0.02315007      -0.06948111      -0.00348722
Pt       5.11290648       5.85119700       4.28134962        2       0.00000000       0.02205886      -0.02113656      -0.10815436
Ni       7.68046206       5.84274917       4.28026799        2       1.00000000      -0.02338435       0.02103602      -0.07053059
Ni      10.28618921       5.80658911       4.30547631        2       1.00000000       0.08963164      -0.09166797       0.03050159
Pt       3.81010462       8.05146336       4.22328311        2       0.00000000      -0.05738530      -0.01516727       0.13235558
Ni       6.39123680       8.07707494       4.21216888        2       1.00000000      -0.15916177       0.08571040      -0.17502864
Pt       8.88275731       8.02705341       4.18716822        2       0.00000000      -0.19143893      -0.00893484       0.04761915
Ni      11.54857348       8.01811867       4.22633222        2       1.00000000       0.01860265      -0.09632005       0.00316314
Pt      -0.01074411      -0.08351846       6.53730599        1       0.00000000       0.10770783      -0.04413217       0.13557941
Pt       2.52125380      -0.03969168       6.52293948        1       0.00000000      -0.10296076       0.06002736       0.20430068
Pt       5.12956327      -0.06151631       6.42224925        1       0.00000000       0.06396176       0.03278050      -0.41273694
Pt       7.66932081      -0.08678989       6.50654300        1       0.00000000      -0.08503173      -0.01822150       0.13891225
Ni       1.25798725       2.22338083       6.44646457        1       1.00000000       0.01634553       0.14192172      -0.20086707
Pt       3.79432769       2.28731462       6.39613932        1       0.00000000       0.00980251       0.25106542      -0.24607641
Ni       6.39948990       2.20663066       6.39229274        1       1.00000000      -0.01721616       0.05691295      -0.23982500
Pt       8.97407791       2.26293034       6.33200156        1       0.00000000       0.01977041       0.12907836      -0.34208186
Ni       2.51079852       4.41653048       6.42364266        1       1.00000000      -0.05809618       0.14827142      -0.24413990
Ni       5.11848673       4.40840105       6.37812823        1       1.00000000       0.00440304       0.10025017      -0.23771876
Ni       7.64259473       4.37585238       6.43595225        1       1.00000000      -0.13853745      -0.00328804      -0.11869348
Ni      10.30323374       4.37379937       6.39763166        1       1.00000000       0.27250178      -0.00941622      -0.24173881
Ni       3.81407570       6.51104776       6.44230302        1       1.00000000      -0.03526784      -0.14421340      -0.06741591
Ni       6.38172186       6.52669803       6.43042011        1       1.00000000       0.01435765      -0.03931059      -0.09038902
Pt       8.96199208       6.44700073       6.43300223        1       0.00000000       0.04647711      -0.12267986       0.12521829
Ni      11.55496452       6.50936477       6.38341301        1       1.00000000       0.05066912      -0.05929385      -0.18946765
