64
Lattice="10.312839958045709 -0.01375994079377924 0.01502420867109504 5.144503520740865 8.869490959512673 0.0019032412117736368 0.0 0.0 21.54982740545259" Properties=species:S:1:pos:R:3:tags:I:1:initial_magmoms:R:1:forces:R:3 unique_id=1ae7d4cb860e4a50b93ad16dd40e1313 stress="0.005383544120361664 -5.454841840499924e-05 0.0002730015620388286 -5.454841840499924e-05 0.005492267702297185 0.0001648435907225155 0.0002730015620388286 0.0001648435907225155 -0.0019172859267176622" energy=-374.63665688511304 pbc="T T T"
Ni      -0.02393451       0.03273696       0.15352481        2       1.00000000      -0.03537035       0.06432753      -0.02839482
Ni       2.57487871       0.00404861       0.16221264        2       1.00000000      -0.06214508       0.03917337      -0.11082619
Ni       5.15592261      -0.01581984       0.11416261        1       1.00000000       0.02364382       0.19801083      -0.39406447
Ni       7.76458985      -0.04568135       0.06576339        1       1.00000000       0.03183958       0.01409062       0.39994149
Ni       1.24887942       2.21908139       0.13732889        1       1.00000000      -0.09056092       0.01876220       0.07078857
Pt       3.80264606       2.21948619       0.05868187        1       0.00000000       0.00006307      -0.01783770      -0.06757104
Pt       6.47738089       2.15337038       0.14801171        1       0.00000000       0.07110874      -0.07630398      -0.49819517
Ni       9.06268844       2.18256317       0.13669191        1       1.00000000       0.04441676      -0.03478219       0.15380687
Ni       2.55356246       4.45264496       0.00000000        0       1.00000000      -0.07011273      -0.03892097       0.11172577
Ni       5.14540279       4.43606829       0.10762103        1       1.00000000       0.19009142      -0.09151350      -0.37578416
Pt       7.80820059       4.43648570       0.05924984        1       0.00000000       0.02215462      -0.05488672      -0.00172351
Ni      10.33167683       4.41718627       0.02985926        0       1.00000000       0.02573586      -0.11896486       0.19922788
Ni       3.82060112       6.68137928       0.03110014        0       1.00000000      -0.01106932       0.12947959       0.26050440
Pt       6.40924728       6.70230321       0.14719019        1       0.00000000      -0.04360328       0.04679685      -0.62652458
Ni       9.03811152       6.65839133       0.03016448        0       1.00000000      -0.08205758      -0.00094953       0.11062759
Ni      11.61521615       6.64890364       0.01162146        0       1.00000000       0.10960255       0.02484723       0.19495738
Ni       1.26572712       0.76149605       2.10528852        3       1.00000000      -0.11653758       0.10272538       0.05912119
Ni       3.85994280       0.75691586       2.14675407        3       1.00000000       0.02701006       0.06857078       0.17777343
Ni       6.48023685       0.73873010       2.19369586        4       1.00000000       0.15192361       0.08922036       0.19886820
Ni       9.02725225       0.75151618       2.14139063        3       1.00000000      -0.03816938       0.12897237       0.08348517
Ni       2.55505848       2.93183260       2.14693510        3       1.00000000      -0.07512539      -0.02165981       0.07391595
Ni       5.14989475       2.92356586       2.18671668        4       1.00000000      -0.08790059      -0.12373042       0.20194084
Ni       7.78645227       2.92687188       2.18937319        4       1.00000000       0.25536319      -0.08905407       0.13172440
Ni      10.28796951       2.89955231       2.16670457        4       1.00000000      -0.06555286      -0.10666017       0.15869139
Pt       3.87323081       5.15829819       2.09980183        3       0.00000000      -0.00681855      -0.00908970      -0.04702999
Ni       6.47948870       5.15618759       2.16564375        4       1.00000000       0.12066281      -0.04915515       0.12973436
Ni       8.99513903       5.13911398       2.18802470        4       1.00000000      -0.07820057      -0.14551011       0.23127649
Pt      11.57430517       5.09369305       2.12445952        3       0.00000000      -0.08693920      -0.12266671      -0.00386365
Ni       5.12131101       7.43600960       2.13247818        3       1.00000000      -0.13808130       0.10986202      -0.00581582
Ni       7.72858902       7.38780775       2.15142759        4       1.00000000       0.04192131      -0.03781563       0.09296725
Pt      10.29175026       7.39768655       2.06541139        3       0.00000000       0.02290505      -0.09653842      -0.10066512
Ni      12.90411934       7.41202555       2.11502630        3       1.00000000       0.01069584       0.07903832      -0.10191568
Ni      -0.01800229       1.54090909       4.25473765        6       1.00000000       0.00048589       0.16440021      -0.30464703
Pt       2.59409125       1.57797639       4.21976533        5       0.00000000      -0.04894742       0.02491564      -0.05551920
Ni       5.15703340       1.49655315       4.26928832        6       1.00000000      -0.01376724       0.06077816      -0.33238374
Ni       7.76928040       1.48610097       4.26074809        6       1.00000000       0.12110676       0.04763869      -0.35034916
Ni       1.28908200       3.70236375       4.29982513        6       1.00000000      -0.02401859      -0.08546872      -0.16823061
Ni       3.84132311       3.69484690       4.30669970        6       1.00000000       0.00872647       0.03656177      -0.18104484
Pt       6.50051327       3.65728041       4.20662373        5       0.00000000       0.02732091      -0.05378729      -0.09454436
Ni       9.04040114       3.65520643       4.28259001        6       1.00000000       0.07936736      -0.16991187      -0.31959559
Ni       2.56186160       5.86613984       4.35113298        7       1.00000000       0.00250765      -0.11305675      -0.05948932
Pt       5.11706142       5.87900124       4.26200987        6       0.00000000      -0.02273015       0.02976925      -0.07345218
Ni       7.75939551       5.86143540       4.28504897        6       1.00000000       0.00188720      -0.04647025      -0.32659192
Pt      10.30446475       5.80437194       4.38377304        7       0.00000000       0.00077621      -0.00838253      -0.03288334
Pt       3.83816918       8.17258514       4.24199300        5       0.00000000      -0.00892064       0.13734218      -0.03238021
Pt       6.43106103       8.16221159       4.19106912        5       0.00000000      -0.04725148       0.19593591      -0.14804358
Pt       9.01474501       8.11043120       4.26641347        6       0.00000000      -0.10979047       0.02672592      -0.04635540
Pt      11.62447723       8.14319606       4.29468349        6       0.00000000       0.04093282       0.04157882      -0.05851079
Pt      -0.05439942      -0.02984135       6.53133138        9       0.00000000       0.15255019       0.12780790       0.21145800
Pt       2.61281372       0.00572647       6.54982741        9       0.00000000      -0.08110015       0.01744756       0.40957690
Pt       5.20850745      -0.08566104       6.53795798        9       0.00000000       0.01657857      -0.03436776       0.49375259
Ni       7.74047648      -0.05930682       6.48976465        9       1.00000000      -0.02655626      -0.01082258      -0.10202807
Pt       1.32294997       2.33066281       6.49119660        9       0.00000000      -0.13193510      -0.01520985       0.01314722
Ni       3.86911686       2.22725986       6.38718365        8       1.00000000       0.06519729      -0.08844794       0.10813538
Pt       6.44813431       2.18254964       6.40495497        8       0.00000000      -0.05193876      -0.06499246       0.58792423
Pt       9.02414446       2.26731888       6.45317278        9       0.00000000       0.06426472       0.02295413       0.00850834
Ni       2.55400454       4.48464751       6.43987952        8       1.00000000      -0.09695075       0.12718206      -0.24017711
Pt       5.05329613       4.40675564       6.50336776        9       0.00000000      -0.05499383      -0.06297598       0.25708793
Ni       7.77967883       4.44218005       6.38449527        8       1.00000000       0.02143979       0.02216234       0.00526439
Ni      10.31981946       4.46474062       6.48363587        9       1.00000000       0.02055061      -0.02404043      -0.07263432
Ni       3.79123551       6.63444196       6.46986821        9       1.00000000      -0.04681638      -0.00793847      -0.23496624
Pt       6.49518824       6.58282985       6.43035421        8       0.00000000       0.06031832      -0.07230298       0.67358601
Ni       9.05582145       6.58061896       6.48079708        9       1.00000000      -0.03316463      -0.02733225      -0.02375421
Ni      11.63738719       6.58861037       6.48620500        9       1.00000000       0.05397750      -0.07553025      -0.18956420
