64
Lattice="10.427309709487991 0.005823134944464369 0.01785645854641178 5.218697837535565 8.921245330177783 -0.044851232697145776 0.014579737350622825 -0.050703762997066255 8.879291441282385" Properties=species:S:1:pos:R:3:tags:I:1:initial_magmoms:R:1:forces:R:3 unique_id=c245130b41cb49bdbe1f09640c18d49f stress="0.00011470287634156306 1.279631484922566e-07 -1.3446666107334014e-05 1.279631484922566e-07 0.00011567910524579172 6.801436803415813e-06 -1.3446666107334014e-05 6.801436803415813e-06 9.66850176951431e-05" energy=-402.9620135298424 pbc="T T T"
Ni      -0.01382044      -0.02246458       0.20985407        4       1.00000000      -0.00155172      -0.00475042       0.17552043
Ni       2.64023969      -0.01650316       0.13649139        4       1.00000000       0.06821444      -0.00599993       0.12137732
Ni       5.21543701      -0.03226897       0.18501602        4       1.00000000       0.03411741      -0.00975271       0.12402286
Ni       7.81267998      -0.07720867       0.22887226        4       1.00000000      -0.02551769      -0.08278866       0.19768279
Pt       1.31343453       2.22911486       0.18183299        4       0.00000000       0.03500798       0.01969163      -0.03888713
Pt       3.89601049       2.16757325       0.10214777        4       0.00000000       0.03415802      -0.01984645      -0.09332430
Pt       6.52580865       2.13360779       0.09891359        4       0.00000000       0.04123170      -0.05109580      -0.12541780
Pt       9.15423990       2.21874066       0.13057289        4       0.00000000       0.03180291       0.01196067      -0.13936284
Ni       2.59630697       4.49725244       0.11392861        4       1.00000000       0.03405331      -0.02550462       0.03274677
Pt       5.18517151       4.48837595       0.13574615        4       0.00000000       0.07857036      -0.03136351      -0.16867527
Pt       7.87450470       4.51778031       0.00443000        4       0.00000000       0.02220978       0.01429154      -0.27084204
Ni      10.46296787       4.51518271       0.06827889        4       1.00000000       0.03263736       0.02854690       0.03536636
Ni       3.86566684       6.73452475       0.08317799        4       1.00000000      -0.00507823       0.01251817       0.09310198
Pt       6.52779638       6.79750860       0.17852144        4       0.00000000      -0.00939126       0.01709622      -0.02901608
Ni       9.16124255       6.73097117       0.04784054        4       1.00000000       0.02142573       0.04156288       0.01153138
Ni      11.76036514       6.69554432       0.05319369        4       1.00000000       0.06776852      -0.04787968       0.02344221
Ni       1.34248328       0.74180729       2.23811767        3       1.00000000       0.01727462       0.02384963       0.02610064
Ni       3.86327351       0.75238504       2.24066823        3       1.00000000      -0.04546404      -0.00098777       0.03471874
Ni       6.52897084       0.75391170       2.25191924        3       1.00000000      -0.00602310       0.02600174       0.06670210
Pt       9.13274147       0.74436836       2.27449771        3       0.00000000       0.00323350      -0.02919369       0.15255728
Ni       2.62129609       2.91215011       2.29506532        3       1.00000000       0.02667165      -0.03391208       0.01972477
Ni       5.21158328       2.93882166       2.24762658        3       1.00000000      -0.02373873      -0.01529172      -0.04691007
Ni       7.81186771       2.94066406       2.24973390        3       1.00000000      -0.01851295      -0.02005165      -0.11369152
Ni      10.45257692       2.93955736       2.31652069        3       1.00000000       0.03284380      -0.02922429       0.02815831
Pt       3.89602033       5.19336335       2.24487596        3       0.00000000      -0.02007647       0.00794973       0.10462839
Ni       6.53420317       5.20283792       2.22701545        3       1.00000000      -0.00626458       0.03475750      -0.02544285
Pt       9.07609586       5.16190157       2.25882565        3       0.00000000      -0.02083037      -0.02776648      -0.03525812
Pt      11.73465364       5.14017737       2.20637495        3       0.00000000      -0.03279433      -0.04623083       0.04340599
Ni       5.21438392       7.43590929       2.19319427        3       1.00000000      -0.07516769       0.00772024       0.11812356
Ni       7.82620700       7.46917222       2.20501052        3       1.00000000       0.02045512       0.04420114       0.04761735
Pt      10.43017454       7.47315485       2.11529756        3       0.00000000       0.00806925      -0.05835249       0.09130938
Ni      13.04473631       7.42834807       2.17153053        3       1.00000000      -0.01865642      -0.04039944       0.10243150
Ni       0.02490930       1.53317861       4.34733165        2       1.00000000       0.04340478       0.01633568      -0.06071090
Ni       2.60590748       1.52084879       4.34254341        2       1.00000000      -0.01143234       0.02220035      -0.12632231
Pt       5.17881723       1.52416645       4.35629595        2       0.00000000      -0.03568129       0.00021985      -0.04681559
Ni       7.83872573       1.48327781       4.38059148        2       1.00000000      -0.03059655      -0.02876060      -0.07763281
Ni       1.32856126       3.64474715       4.33936699        2       1.00000000       0.02987876      -0.03009074      -0.07252391
Ni       3.84433832       3.67672553       4.36666135        2       1.00000000      -0.07297349       0.03205929      -0.06368974
Pt       6.63025104       3.68476130       4.32140587        2       0.00000000       0.05849615      -0.02408055      -0.16911483
Ni       9.16428048       3.66222263       4.35864788        2       1.00000000       0.05643886      -0.07828675      -0.18286891
Ni       2.60821832       5.88867909       4.39478333        2       1.00000000       0.00166910      -0.00561395      -0.02681171
Pt       5.22869633       5.90453578       4.35747566        2       0.00000000      -0.00622077       0.05409085      -0.05871940
Ni       7.84986149       5.90475218       4.37969968        2       1.00000000       0.02186587       0.04073200      -0.10346540
Pt      10.44367205       5.82721606       4.49998624        2       0.00000000      -0.00772926      -0.03725535      -0.02812455
Pt       3.91073896       8.16403106       4.35522266        2       0.00000000       0.02157280       0.03084801       0.08779918
Pt       6.53632799       8.24332432       4.27977460        2       0.00000000      -0.07930327       0.08899024       0.03405255
Pt       9.08903309       8.15083059       4.36639064        2       0.00000000       0.02256826       0.00474562       0.03064141
Pt      11.75844179       8.14750224       4.33830368        2       0.00000000      -0.05810817       0.01721780       0.07312493
Pt       0.02597046      -0.05326925       6.66318493        1       0.00000000      -0.02757717       0.03083836       0.21398699
Ni       2.62716612      -0.03202618       6.59516350        1       1.00000000      -0.04897521       0.05386430      -0.00160939
Pt       5.14524298      -0.04207727       6.68414065        1       0.00000000      -0.10074195       0.06252406       0.10923040
Pt       7.78760162      -0.06744073       6.69653256        1       0.00000000      -0.05292851       0.01676745       0.23638162
Pt       1.36000765       2.20054248       6.45515933        1       0.00000000      -0.02944139       0.01367939      -0.00955904
Ni       3.90096225       2.18900959       6.48621223        1       1.00000000      -0.09136928       0.03940868      -0.12312301
Ni       6.52833972       2.18643280       6.49385880        1       1.00000000       0.01018228      -0.04703824      -0.14147825
Pt       9.09875587       2.28349173       6.44771594        1       0.00000000      -0.00656638      -0.04485219      -0.02672832
Pt       2.57322596       4.49722308       6.54029979        1       0.00000000      -0.03272414       0.07855826       0.04189444
Pt       5.22905462       4.34941254       6.49459681        1       0.00000000      -0.00504402      -0.05670116       0.07430236
Ni       7.87523144       4.44537285       6.44204546        1       1.00000000       0.08153019       0.03362023      -0.23866978
Ni      10.41622956       4.45348281       6.57914296        1       1.00000000      -0.01720397      -0.03750062       0.02222971
Ni       3.90688135       6.64593341       6.55408187        1       1.00000000       0.02909981       0.00382851       0.00145737
Pt       6.63388521       6.63796922       6.51234844        1       0.00000000       0.06829827       0.00884710       0.08124114
Ni       9.16025012       6.61214983       6.57183143        1       1.00000000       0.03815800      -0.04068130      -0.00536618
Ni      11.71998075       6.64446602       6.57982677        1       1.00000000      -0.06922387       0.07172962      -0.00645015
