64
Lattice="10.23094034156291 -0.020008377765368478 -0.004164880330112748 5.098142407348127 8.819466882268532 -0.014942063207316503 -0.003400610549510193 -0.012124168875579888 8.769758021606226" Properties=species:S:1:pos:R:3:tags:I:1:initial_magmoms:R:1:forces:R:3 unique_id=9d330747d73c427793f541dc406512ac stress="-0.0001909472163271475 -1.0293926677940862e-06 3.5830776826610658e-06 -1.0293926677940862e-06 -0.00018292633880265252 2.6277628774061276e-05 3.5830776826610658e-06 2.6277628774061276e-05 -0.00014144931463846988" energy=-393.073839607398 pbc="T T T"
Ni       0.02047179       0.04123147       0.14950534        4       1.00000000       0.17423476       0.10785940       0.19280031
Ni       2.57670619       0.03326800       0.20750840        4       1.00000000       0.03789728       0.05763527       0.24764533
Ni       5.08824020      -0.03314328       0.06783607        4       1.00000000      -0.07854245      -0.02614188       0.04341340
Ni       7.67471337      -0.04281253       0.04463279        4       1.00000000      -0.02228536      -0.02209488       0.01393183
Ni       1.27654398       2.22340304       0.10747783        4       1.00000000       0.01734686       0.09175438       0.08837132
Ni       3.78950449       2.20830977       0.20717014        4       1.00000000      -0.08576749       0.01379477       0.27742434
Pt       6.38676035       2.26197038       0.15256973        4       0.00000000      -0.04858964       0.11172880       0.53219858
Ni       8.99330034       2.23364550       0.05693990        4       1.00000000       0.13086508       0.14856041       0.02448761
Ni       2.53471624       4.39807866       0.09499052        4       1.00000000      -0.08865568      -0.06423496       0.09509270
Ni       5.04387508       4.40280312       0.07008020        4       1.00000000      -0.24606773       0.02709583       0.06811195
Ni       7.73608302       4.39106032       0.06485258        4       1.00000000       0.29517140       0.00137083       0.04528626
Ni      10.23625421       4.38322626       0.08858696        4       1.00000000       0.08825350      -0.00566137       0.08964895
Ni       3.79277328       6.58170126       0.03067132        4       1.00000000      -0.05164287      -0.13735764      -0.03852831
Pt       6.41980744       6.60975210      -0.03454589        4       0.00000000       0.02210931       0.00861877      -0.27795254
Ni       8.95359406       6.58200903       0.12609502        4       1.00000000       0.01914339      -0.10671531       0.17618443
Ni      11.48671681       6.56709837       0.02924287        4       1.00000000      -0.10619234      -0.15037297      -0.09436209
Ni       1.32471017       0.78417493       2.14923051        3       1.00000000      -0.01175368       0.11585397      -0.02631804
Ni       3.78303557       0.73783494       2.15758308        3       1.00000000       0.03124579      -0.01806520       0.10465686
Pt       6.35069630       0.71019334       2.19412026        3       0.00000000      -0.03366471       0.07168080      -0.07908603
Pt       9.01654942       0.81618514       2.13672600        3       0.00000000       0.08977452       0.02781356      -0.03358617
Ni       2.54029053       2.96001059       2.15186288        3       1.00000000      -0.10316888       0.09578671       0.00245525
Ni       5.02332816       2.95451830       2.20304309        3       1.00000000      -0.11577202      -0.03344463       0.15717895
Ni       7.73252444       2.97022717       2.19898789        3       1.00000000       0.13218397       0.02361697       0.06234570
Ni      10.25723014       2.97692550       2.16515905        3       1.00000000       0.07670645       0.02793460      -0.02204003
Ni       3.79667242       5.06164195       2.18737567        3       1.00000000      -0.05915955      -0.09981196       0.02537092
Pt       6.42380032       5.08957149       2.16754884        3       0.00000000       0.03639144      -0.03525836      -0.13431434
Ni       8.96788562       5.07337726       2.19057523        3       1.00000000       0.09290557      -0.12484314       0.04134004
Ni      11.48541387       5.05779246       2.15776291        3       1.00000000      -0.02594308      -0.06479401      -0.11292062
Pt       5.11773627       7.32588514       2.15614184        3       0.00000000       0.04294327      -0.11279426      -0.20211023
Ni       7.67480279       7.35785106       2.18354300        3       1.00000000      -0.05127398      -0.03417692      -0.02462566
Pt      10.13240487       7.26459081       2.20295022        3       0.00000000      -0.09105270      -0.12301776      -0.00143057
Pt      12.74258572       7.22000437       2.14385484        3       0.00000000      -0.02416455      -0.19885282      -0.07443973
Ni       0.00687468       1.50274310       4.37175085        2       1.00000000       0.02933161       0.00245579      -0.02619367
Pt       2.50860203       1.49556676       4.26437352        2       0.00000000       0.06302681       0.01292702       0.07907673
Pt       5.07253976       1.41450915       4.34672151        2       0.00000000      -0.07810216       0.03240337       0.15583060
Pt       7.75476874       1.48132359       4.36715781        2       0.00000000       0.00811119       0.05208146       0.11775073
Pt       1.23120607       3.74756567       4.34969387        2       0.00000000      -0.02986315       0.00291018      -0.04715678
Ni       3.81297633       3.73946181       4.33542189        2       1.00000000      -0.08355711       0.04866661      -0.06544973
Pt       6.38419383       3.74479573       4.37278443        2       0.00000000      -0.02315005       0.07375853      -0.01943241
Ni       8.96364306       3.70995540       4.35940552        2       1.00000000       0.01925106       0.13728875      -0.05952445
Ni       2.52971522       5.84443398       4.38793459        2       1.00000000      -0.07138597      -0.04262598      -0.07785479
Ni       5.05228357       5.83499886       4.38600715        2       1.00000000      -0.12407784      -0.08413805      -0.16747375
Ni       7.72680124       5.85329528       4.33957508        2       1.00000000       0.20243403      -0.04106421      -0.19144088
Ni      10.21564228       5.86818967       4.34432088        2       1.00000000       0.00825329      -0.00477128      -0.05877119
Pt       3.76656247       7.98796148       4.39677854        2       0.00000000       0.00209940       0.02713434       0.04970301
Pt       6.42135669       8.00152963       4.32230632        2       0.00000000       0.01964814       0.01904717       0.04136000
Ni       8.96032305       8.01512734       4.33637714        2       1.00000000      -0.02655424      -0.02703187       0.02249655
Ni      11.45763760       7.99647514       4.40243932        2       1.00000000      -0.06563906      -0.09543851       0.00631642
Pt      -0.06551917       0.02221586       6.57590349        1       0.00000000      -0.11798615      -0.00462914       0.03280710
Pt       2.58236744      -0.02634262       6.58020973        1       0.00000000       0.05287536       0.02845296       0.17399111
Ni       5.15817071      -0.06263367       6.49790493        1       1.00000000       0.05828261      -0.07742077      -0.08870083
Ni       7.63082481      -0.07916446       6.51467936        1       1.00000000      -0.10227921      -0.14314217      -0.09865819
Ni       1.22809424       2.24830070       6.51310215        1       1.00000000      -0.03864595       0.08262382      -0.04539215
Pt       3.78921283       2.30532303       6.57685121        1       0.00000000      -0.11484861       0.22767246       0.22213415
Pt       6.44206245       2.19374004       6.50351629        1       0.00000000       0.08116334      -0.03810219      -0.16155330
Ni       8.98818960       2.23842781       6.50487117        1       1.00000000       0.10538556       0.20051525      -0.12495861
Ni       2.52706952       4.46778609       6.49789551        1       1.00000000      -0.09848648       0.18310436      -0.02670403
Ni       5.08743061       4.47665608       6.49260157        1       1.00000000      -0.04838678       0.15137449      -0.05077909
Ni       7.68632885       4.40400442       6.49657572        1       1.00000000       0.07581956       0.01486934      -0.06727363
Ni      10.23521852       4.36159804       6.49836703        1       1.00000000       0.08312451      -0.01373588      -0.00025893
Ni       3.79222307       6.54731660       6.49379747        1       1.00000000      -0.04217122      -0.07460565      -0.09419306
Ni       6.35129394       6.53298318       6.37282027        1       1.00000000       0.01286384      -0.12112561      -0.48178241
Pt       8.99710497       6.51972853       6.48039272        1       0.00000000       0.11450800      -0.03835382       0.07245186
Ni      11.53401448       6.58363340       6.46324146        1       1.00000000       0.08547978      -0.06456776      -0.18659674
