64
Lattice="10.14390574737688 0.01562723666699726 -0.00929780318904849 5.0854864576330705 8.74188829657153 -0.04313575562090086 0.0 0.0 21.397402653672714" Properties=species:S:1:pos:R:3:tags:I:1:initial_magmoms:R:1:forces:R:3 unique_id=858718a799bd443fae56f1896ab073aa stress="0.0022792043974224022 -5.8744986405947095e-05 1.339728617085482e-05 -5.8744986405947095e-05 0.0015176725858231776 -0.0001246857032418398 1.339728617085482e-05 -0.0001246857032418398 -0.005070899742540899" energy=-368.19661615410666 pbc="T T T"
Ni       0.03064277      -0.05252808       0.14044211        1       1.00000000       0.05041290      -0.06476853      -0.37288350
Ni       2.49008481       0.00409519       0.10034513        1       1.00000000       0.04984042       0.12300185      -0.42754690
Pt       5.09732304      -0.06198987       0.15107215        2       0.00000000      -0.08247132       0.00448122      -0.86860785
Ni       7.62156372      -0.04507573       0.10527827        1       1.00000000      -0.04350795      -0.10213386      -0.33305840
Ni       1.26376083       2.20619291       0.06687780        1       1.00000000      -0.03730347       0.05434618       0.17447799
Pt       3.77265653       2.25382230       0.13230554        1       0.00000000       0.01243768      -0.03913706      -0.79510531
Ni       6.34690265       2.23523888       0.06188312        1       1.00000000      -0.03644808      -0.02542360       0.12083788
Pt       8.88106347       2.24667371       0.09306418        1       0.00000000       0.04045672       0.15348074      -0.95872075
Ni       2.51669275       4.41416165       0.03827031        0       1.00000000       0.05578884       0.00925208       0.37790759
Ni       5.09756427       4.41899364       0.03669347        0       1.00000000      -0.11973597       0.02291950       0.23317292
Ni       7.58269435       4.41363383       0.04310045        0       1.00000000       0.07730527       0.00923259       0.20162181
Ni      10.18575175       4.41604240       0.03756710        0       1.00000000      -0.02786581      -0.04905370       0.31689243
Ni       3.81318266       6.52977361       0.02943875        0       1.00000000       0.00021358       0.01226898       0.34915603
Ni       6.31503317       6.53098325       0.00000000        0       1.00000000      -0.06121454       0.00926549       0.12981847
Ni       8.89698171       6.49074349       0.10776695        1       1.00000000       0.14201958      -0.05652511      -0.50880251
Ni      11.45250741       6.50925541       0.03222585        0       1.00000000      -0.00283989       0.04737650       0.32233724
Ni       1.29220541       0.76461359       2.09638656        4       1.00000000      -0.02660937       0.13904236       0.09564910
Ni       3.76237788       0.73590113       2.13782053        4       1.00000000      -0.11697634       0.00052562       0.18945051
Ni       6.35354620       0.72509006       2.12629434        4       1.00000000       0.02530619       0.03715698       0.09835294
Pt       8.84910308       0.66131218       2.14217009        4       0.00000000       0.02559188      -0.17672501       0.16646904
Ni       2.50370267       2.95429912       2.17539548        5       1.00000000      -0.01532956       0.08591917       0.09918332
Ni       5.08046046       2.96480148       2.09896906        4       1.00000000       0.00927594       0.06071338       0.06197101
Ni       7.58727747       2.95435025       2.12646828        4       1.00000000      -0.02373351       0.00595066       0.13085123
Ni      10.19461538       2.98498934       2.11906537        4       1.00000000       0.07818563       0.06698648       0.12092003
Ni       3.79272083       5.09226577       2.09924548        4       1.00000000      -0.06076169      -0.03668471       0.05390743
Ni       6.30823237       5.08333007       2.04907038        3       1.00000000      -0.02096834       0.00615399       0.06379050
Ni       8.92466284       5.05891614       2.07728823        4       1.00000000       0.03783212      -0.05534468       0.07594056
Ni      11.42995410       5.10330464       2.10356458        4       1.00000000       0.03008780      -0.01326739       0.13301912
Ni       5.05262524       7.20729296       2.09494795        4       1.00000000      -0.09776781      -0.11538365       0.11697725
Pt       7.59984382       7.29318283       2.04876535        3       0.00000000      -0.08203188      -0.04238102      -0.01195333
Ni      10.19967975       7.22322948       2.14853545        4       1.00000000       0.05229550      -0.09232511       0.17721485
Ni      12.66970965       7.21231248       2.08984778        4       1.00000000      -0.00293013      -0.11779208       0.09785344
Pt       0.06876446       1.47448980       4.19770059        7       0.00000000       0.10563491      -0.00564584       0.01395011
Ni       2.53611610       1.46735302       4.17310468        7       1.00000000       0.04467830      -0.01764576      -0.23406717
Pt       5.05625939       1.41222678       4.11701208        6       0.00000000       0.09080679      -0.01314329      -0.13781176
Ni       7.59945631       1.42182116       4.21143590        7       1.00000000      -0.03097615      -0.07645930      -0.19238226
Ni       1.30325170       3.68426310       4.22257353        7       1.00000000       0.07854698       0.05070440      -0.11140634
Ni       3.74773546       3.71198792       4.16740165        7       1.00000000      -0.03064850       0.10611561      -0.16207262
Pt       6.31974753       3.64068879       4.21899942        7       0.00000000      -0.03416861      -0.02413920      -0.00102990
Ni       8.93224440       3.68610523       4.15928349        7       1.00000000       0.10949653       0.06294550      -0.19398439
Ni       2.54126627       5.80142356       4.20276821        7       1.00000000      -0.00418179       0.03581475      -0.15735457
Ni       5.01004299       5.83537082       4.20512494        7       1.00000000      -0.02202958       0.01432709      -0.13721922
Pt       7.62384496       5.83100937       4.19331325        7       0.00000000      -0.00223287       0.06510663       0.03829807
Ni      10.21991280       5.80196616       4.17662047        7       1.00000000       0.04409502       0.02973605      -0.11491122
Ni       3.79713845       7.91328531       4.17664923        7       1.00000000      -0.00298544      -0.04922474      -0.08044836
Ni       6.31806905       7.98168092       4.16107638        7       1.00000000      -0.06027946      -0.00333740      -0.15026111
Ni       8.89800354       7.98517032       4.14973642        6       1.00000000       0.00411805      -0.00986695      -0.23738969
Ni      11.45322166       7.92296807       4.12292034        6       1.00000000       0.05880439      -0.08965379      -0.16414755
Pt      -0.00701014      -0.10536548       6.39740265        9       0.00000000      -0.26685848       0.04766213       0.20270795
Pt       2.51057161      -0.02041466       6.33486465        8       0.00000000       0.26965891       0.03728445       0.23203466
Pt       5.09122707      -0.03489754       6.28207744        8       0.00000000      -0.22555085      -0.17350979       0.92981997
Pt       7.60341554      -0.07879570       6.33643324        8       0.00000000       0.19303175       0.08859053       0.20731994
Ni       1.26612516       2.23264021       6.34208290        8       1.00000000       0.03765312       0.05532931      -0.01925500
Pt       3.77867933       2.31451482       6.26789111        8       0.00000000      -0.13032145      -0.02881976       0.70018100
Ni       6.32977704       2.21579729       6.35125287        9       1.00000000       0.00927963       0.00123673       0.08568275
Pt       8.85366999       2.29060692       6.25937688        8       0.00000000      -0.14384376      -0.10142553       1.03887499
Ni       2.51042879       4.41609690       6.30187668        8       1.00000000       0.07396506      -0.03575295      -0.30414545
Ni       5.07092175       4.42269886       6.33791818        8       1.00000000      -0.10007591       0.01622472      -0.18739525
Ni       7.54375307       4.36732314       6.35857497        9       1.00000000      -0.02586277      -0.04224929       0.03019511
Ni      10.23240984       4.35806474       6.30317482        8       1.00000000       0.04140076      -0.03409348      -0.22473363
Ni       3.79989110       6.44096214       6.29718070        8       1.00000000      -0.00637544       0.00563142      -0.29751557
Ni       6.30557249       6.47019776       6.32124168        8       1.00000000      -0.01414302       0.03276692      -0.09094556
Pt       8.92070733       6.41801423       6.38982593        9       0.00000000       0.15105770       0.14699672       0.33904444
Ni      11.46482167       6.46860582       6.28704141        8       1.00000000      -0.04024821       0.04736587      -0.25072652
