64
Lattice="10.297642129503323 -0.010639406050348712 0.027572259936173064 5.1396070688308795 8.847792091677679 0.0065319668855617396 0.0 0.0 21.530264286413754" Properties=species:S:1:pos:R:3:tags:I:1:initial_magmoms:R:1:forces:R:3 unique_id=f68245266eaf4b72bb521e5a0b655b10 energy=-373.6826907109461 stress="0.005344905867316674 -3.4025863381556916e-05 0.00038132996358075243 -3.4025863381556916e-05 0.0053150978928188965 0.00019549611566391803 0.00038132996358075243 0.00019549611566391803 -0.001955929102919772" pbc="T T T"
Ni      -0.02287513       0.03434971       0.15018697        2       1.00000000      -0.02941622       0.06149047      -0.07408547
Ni       2.57341659       0.00580465       0.16155840        2       1.00000000      -0.05239625       0.03538759      -0.14267740
Ni       5.15025630      -0.01671023       0.11878672        1       1.00000000       0.02761653       0.20256740      -0.42762174
Ni       7.75512662      -0.04394062       0.07107898        1       1.00000000       0.02979550       0.01656535       0.36815378
Ni       1.24909144       2.21438346       0.13504299        1       1.00000000      -0.08518769       0.03387818       0.02876800
Pt       3.79953669       2.21491598       0.05647588        1       0.00000000       0.00109468      -0.01371558      -0.08433788
Pt       6.47057958       2.14866966       0.14999204        1       0.00000000       0.07770741      -0.07216599      -0.52707483
Ni       9.05306451       2.17885078       0.14318639        1       1.00000000       0.04917173      -0.02052332       0.12644723
Ni       2.54900737       4.44406452       0.00000000        0       1.00000000      -0.09947391      -0.02959476       0.13346392
Ni       5.14103289       4.42726312       0.10983684        1       1.00000000       0.19389520      -0.09430595      -0.41243124
Pt       7.80190914       4.42743032       0.06165593        1       0.00000000       0.03903999      -0.04766221      -0.03052147
Ni      10.32376643       4.41028826       0.03621109        0       1.00000000       0.05693001      -0.09099072       0.26448163
Ni       3.81792666       6.66554830       0.02930919        0       1.00000000      -0.00670986       0.12151952       0.22184968
Pt       6.40308383       6.68806826       0.14718630        1       0.00000000      -0.03928855       0.04287878      -0.66611932
Ni       9.03142615       6.64591378       0.03241716        0       1.00000000      -0.07506319      -0.00631102       0.09698807
Ni      11.60031881       6.63340414       0.01942279        0       1.00000000       0.10122527      -0.00775916       0.21935342
Ni       1.26621850       0.76075311       2.09749539        3       1.00000000      -0.10936361       0.10356319       0.07707486
Ni       3.85899512       0.75082391       2.14551902        3       1.00000000       0.03771775       0.04678823       0.20041752
Ni       6.47195251       0.73294320       2.19630950        4       1.00000000       0.13628927       0.06744942       0.21732841
Ni       9.01626167       0.75345921       2.14361626        3       1.00000000      -0.04359213       0.12970288       0.09715547
Ni       2.55169944       2.92723820       2.14012924        3       1.00000000      -0.08591058      -0.00405334       0.08253151
Ni       5.14530983       2.91631946       2.18502084        4       1.00000000      -0.09031896      -0.12764953       0.21142741
Ni       7.78143015       2.92117398       2.18914724        4       1.00000000       0.26428861      -0.07698535       0.13548483
Ni      10.27476710       2.89876970       2.17383027        4       1.00000000      -0.06925835      -0.07389328       0.17899178
Pt       3.86375704       5.14573751       2.09576639        3       0.00000000      -0.03629218      -0.01526254      -0.04145222
Ni       6.47482408       5.14445910       2.16386235        4       1.00000000       0.11773790      -0.04422009       0.12916551
Ni       8.99059761       5.12880675       2.20483932        4       1.00000000      -0.06713934      -0.14300063       0.26792707
Pt      11.54510018       5.08831851       2.17121447        4       0.00000000      -0.10153316      -0.11833093       0.06467892
Ni       5.11728328       7.41893151       2.12934987        3       1.00000000      -0.13615061       0.09432568      -0.00510157
Ni       7.72505668       7.36689538       2.15018462        4       1.00000000       0.05774171      -0.06499600       0.09058697
Pt      10.27990144       7.36929090       2.07758854        3       0.00000000       0.00685034      -0.06846078      -0.07104525
Ni      12.88882785       7.39522699       2.11915948        3       1.00000000      -0.01389130       0.06068080      -0.09723060
Ni      -0.01198117       1.54043772       4.23905865        5       1.00000000      -0.00310889       0.19866589      -0.29181659
Pt       2.59774536       1.57236459       4.20852223        5       0.00000000      -0.06588886       0.04849717      -0.04883304
Ni       5.15653105       1.48327415       4.26041019        6       1.00000000      -0.00695728       0.00876864      -0.32503297
Ni       7.76167640       1.48064921       4.25409941        6       1.00000000       0.12189572       0.06403321      -0.34415035
Ni       1.26423936       3.73268345       4.29502059        6       1.00000000      -0.11699543      -0.01621140      -0.06196352
Ni       3.83921948       3.68621586       4.29559236        6       1.00000000      -0.01093602       0.03618500      -0.18481810
Pt       6.50373912       3.65072882       4.19972149        5       0.00000000       0.06653533      -0.05291561      -0.06786492
Ni       9.06219940       3.69650520       4.28268816        6       1.00000000       0.16500338      -0.03215221      -0.26173598
Ni       2.53654826       5.84493859       4.34117889        6       1.00000000      -0.05649795      -0.12158137      -0.03043146
Pt       5.11427195       5.86484162       4.25255216        6       0.00000000      -0.03521910       0.01663082      -0.07002783
Ni       7.79273607       5.83753196       4.28039064        6       1.00000000       0.11464244      -0.08205495      -0.28142035
Ni      10.29903365       5.82081374       4.35771771        7       1.00000000      -0.01042318      -0.07162881      -0.07165949
Pt       3.83440219       8.15089848       4.23194679        5       0.00000000       0.00499879       0.13206597      -0.02182951
Pt       6.43461955       8.13934092       4.18328735        5       0.00000000      -0.05139456       0.17746546      -0.14067692
Pt       9.01884578       8.04569016       4.27305060        6       0.00000000      -0.06365088      -0.03511618      -0.00390393
Pt      11.60604269       8.08263510       4.29788365        6       0.00000000      -0.01310657      -0.02358092      -0.02853695
Pt      -0.04827572      -0.03156653       6.51252633        9       0.00000000       0.14725874       0.14442039       0.25245900
Pt       2.61671295       0.00373250       6.53026429        9       0.00000000      -0.06987015       0.01640115       0.43412732
Pt       5.20715353      -0.09092384       6.52500386        9       0.00000000       0.01252031      -0.05245898       0.50885735
Ni       7.73319892      -0.06049024       6.47766460        9       1.00000000      -0.02966550      -0.00616779      -0.08810560
Pt       1.32606299       2.32963408       6.47144675        9       0.00000000      -0.15083931       0.02255012       0.01855553
Ni       3.87054105       2.22026226       6.37049349        8       1.00000000       0.06484035      -0.09173454       0.13382448
Pt       6.44609934       2.17642885       6.39265980        8       0.00000000      -0.04191588      -0.06879783       0.62738781
Pt       9.01911690       2.26913751       6.44027129        8       0.00000000       0.07587869       0.06519092      -0.02069144
Ni       2.55211119       4.47630655       6.41897945        8       1.00000000      -0.08836719       0.11955433      -0.23479076
Pt       5.05065827       4.39499126       6.49149385        9       0.00000000      -0.07970911      -0.05420766       0.31057388
Ni       7.78068227       4.43277849       6.37064873        8       1.00000000       0.03198794       0.01443562       0.01592849
Ni      10.31229965       4.48254224       6.43169848        8       1.00000000       0.00783543       0.02908603      -0.33988552
Ni       3.79042447       6.61656053       6.45271260        9       1.00000000      -0.07241565      -0.01136290      -0.22438314
Pt       6.49839597       6.56333955       6.41401484        8       0.00000000       0.09392870      -0.09432119       0.68456904
Ni       9.06583925       6.54948637       6.44911979        8       1.00000000       0.04319878      -0.07010497      -0.18096801
Ni      11.61317222       6.55946913       6.46042238        9       1.00000000      -0.03967910      -0.10646977      -0.29533351
