64
Lattice="10.256390590722694 -0.008747287893314512 -0.014268758750358464 5.120619921831523 8.864293664010978 -0.025696299707505362 0.0 0.0 21.545134637169067" Properties=species:S:1:pos:R:3:tags:I:1:initial_magmoms:R:1:forces:R:3 unique_id=d192adadbc374d03984a229b54be7837 energy=-374.22001584448327 stress="0.00509591997690671 -4.614987893069551e-05 -5.430100527118033e-05 -4.614987893069551e-05 0.0051410426100963235 -3.6118328554498355e-05 -5.430100527118033e-05 -3.6118328554498355e-05 -0.0022883451947314955" pbc="T T T"
Ni      -0.00314042       0.01697022       0.15566216        2       1.00000000       0.08157661       0.00728086      -0.29974398
Ni       2.55861346      -0.00041525       0.17947037        2       1.00000000      -0.03126301       0.02440289      -0.17355135
Ni       5.12749378      -0.02727828       0.12265339        1       1.00000000       0.00730471       0.14841411      -0.28609639
Ni       7.70249923      -0.05815211       0.04540997        0       1.00000000      -0.07130709      -0.09129587       0.22457936
Ni       1.24414425       2.21778912       0.15823227        2       1.00000000      -0.08675591       0.03302110      -0.00263289
Pt       3.77801783       2.21375290       0.07183076        1       0.00000000      -0.01303013      -0.03285270      -0.08105499
Pt       6.43585150       2.15030030       0.15089228        2       0.00000000       0.03565801      -0.07444717      -0.58201352
Ni       9.01463910       2.20414072       0.10351932        1       1.00000000       0.06084260       0.10529963      -0.11853297
Ni       2.53644269       4.44768397       0.01695904        0       1.00000000      -0.10441472      -0.03059044       0.15065340
Ni       5.11532596       4.43367204       0.11498600        1       1.00000000       0.15306062      -0.10243914      -0.40462426
Pt       7.76070873       4.43433740       0.05685512        1       0.00000000       0.05878406       0.00120227      -0.10137054
Ni      10.28369709       4.41297657       0.02451720        0       1.00000000       0.03767014      -0.07024465       0.23488452
Ni       3.80217420       6.66532524       0.03101735        0       1.00000000      -0.05436009       0.10445277       0.20419152
Pt       6.37367798       6.69581477       0.05717688        1       0.00000000       0.00965499       0.02535407      -0.11804282
Ni       8.98896595       6.65503244       0.10093336        1       1.00000000      -0.09147959      -0.05758866      -0.24094437
Ni      11.55235564       6.64220594       0.00000000        0       1.00000000       0.05421327      -0.02067905       0.23854489
Ni       1.28856499       0.75251409       2.12967694        3       1.00000000       0.00546247       0.07104109       0.05225264
Ni       3.83943240       0.74942616       2.16051324        4       1.00000000       0.05818467       0.02866208       0.19490619
Ni       6.40145549       0.72756031       2.21810935        4       1.00000000       0.01448706       0.04665975       0.32636093
Pt       8.96580345       0.75912181       2.13755104        3       0.00000000      -0.07590793       0.05198022       0.07255614
Ni       2.53688762       2.93177710       2.16377343        4       1.00000000      -0.04746913       0.01234778       0.08130764
Ni       5.11420472       2.91939573       2.19357736        4       1.00000000      -0.10726356      -0.13505018       0.19659799
Ni       7.72106822       2.96252055       2.18896366        4       1.00000000       0.17081263       0.07345438       0.16431660
Ni      10.24560144       2.93710306       2.16161725        4       1.00000000      -0.02817263      -0.00293420       0.20641335
Pt       3.84820295       5.15200746       2.11393123        3       0.00000000      -0.03585935      -0.05168161      -0.07996282
Ni       6.43861600       5.16669251       2.15815632        4       1.00000000       0.10580262       0.03836868       0.14426691
Ni       8.94916392       5.14124121       2.19538890        4       1.00000000      -0.04460268      -0.07068359       0.28670521
Pt      11.49520659       5.10310124       2.15607441        4       0.00000000      -0.05572415      -0.08275478       0.06770991
Ni       5.11686991       7.39442323       2.12939901        3       1.00000000      -0.07482793      -0.00511521       0.06063891
Ni       7.67562344       7.37551123       2.13275078        3       1.00000000       0.03325982      -0.05910597       0.13638504
Pt      10.26714395       7.39610668       2.09204723        3       0.00000000       0.04960137      -0.05137168       0.07389872
Ni      12.80787678       7.38616419       2.10924778        3       1.00000000       0.01260609       0.01037674      -0.01570252
Ni      -0.02220824       1.52748100       4.29341217        6       1.00000000       0.00583756       0.14888928      -0.19018875
Pt       2.57288239       1.56445164       4.23030614        5       0.00000000      -0.02131230       0.05543611      -0.02482578
Ni       5.14128180       1.46630705       4.26288451        6       1.00000000       0.03967573      -0.00211288      -0.32073023
Ni       7.67872309       1.45720920       4.27320026        6       1.00000000      -0.02990873       0.02847944      -0.21119776
Ni       1.24764275       3.73445120       4.31732618        6       1.00000000      -0.07074389      -0.00436685      -0.07662344
Ni       3.81058859       3.69365501       4.31271165        6       1.00000000      -0.00242292       0.05978219      -0.16124632
Pt       6.45724631       3.65589344       4.19998073        5       0.00000000       0.05013422      -0.02015441      -0.07943961
Ni       9.01020227       3.70311268       4.27550337        6       1.00000000       0.15489640       0.04534910      -0.22026234
Ni       2.49471519       5.87360894       4.35719028        7       1.00000000      -0.10770371      -0.10864001      -0.04413630
Pt       5.09096753       5.88544728       4.29075234        6       0.00000000      -0.01707785       0.01705509      -0.05125894
Ni       7.72284062       5.85388265       4.27395481        6       1.00000000       0.11328687      -0.01770708      -0.31554360
Ni      10.27330909       5.84360840       4.31489529        6       1.00000000      -0.00114278      -0.02879429      -0.10155986
Pt       3.71872555       8.12106229       4.29003563        6       0.00000000      -0.06488548      -0.00453521       0.05183059
Pt       6.39487710       8.12761177       4.21238807        5       0.00000000      -0.03980123       0.17414298      -0.13842177
Pt       9.01493703       8.08404289       4.23294791        5       0.00000000      -0.00809219      -0.00568107      -0.04792431
Ni      11.53163051       8.10093419       4.29060930        6       1.00000000      -0.14450265      -0.03065139      -0.13803424
Pt      -0.06556850      -0.07215385       6.54075066        9       0.00000000       0.09816461       0.16484191       0.28003456
Pt       2.56845493      -0.01488427       6.54513464        9       0.00000000       0.07183060      -0.07896333       0.39779500
Pt       5.19513622      -0.06589124       6.49023111        9       0.00000000       0.01804642      -0.10401176       0.29640563
Ni       7.67486071      -0.06455482       6.46430720        9       1.00000000      -0.01515773       0.03443733      -0.03699079
Pt       1.30428164       2.31848235       6.49277775        9       0.00000000      -0.08182727      -0.10061438       0.03161508
Ni       3.83990763       2.23302687       6.38284848        8       1.00000000       0.09316188       0.01198933       0.09955641
Pt       6.39507738       2.19505233       6.39503616        8       0.00000000      -0.05955468      -0.02490819       0.67230964
Pt       8.96291673       2.25809294       6.42436897        8       0.00000000       0.06151940       0.06966556       0.02732773
Ni       2.52952967       4.47966918       6.43182029        8       1.00000000       0.00738669       0.09898512      -0.25769999
Pt       5.04992131       4.45128838       6.50343353        9       0.00000000      -0.09687822      -0.09044476       0.33830886
Ni       7.67756313       4.42737035       6.36669008        8       1.00000000      -0.08162623      -0.01562844       0.08038797
Ni      10.28002144       4.44396881       6.41522240        8       1.00000000       0.10908100       0.00311076      -0.26651145
Ni       3.76385762       6.62377903       6.46101595        9       1.00000000      -0.09575641      -0.04356914      -0.15719049
Ni       6.39430939       6.60578943       6.38297310        8       1.00000000       0.09382763      -0.02388582       0.18314463
Pt       8.98239430       6.51297712       6.45877902        9       0.00000000       0.00075809       0.00071426       0.11563076
Ni      11.57690854       6.58668457       6.41722831        8       1.00000000      -0.00575670      -0.05169296      -0.34745731
