64
Lattice="10.333305996812696 0.03182417345310691 -0.05760723053770368 5.194213541071179 8.926417691066495 -0.10691832958935144 0.0 0.0 21.686170345769" Properties=species:S:1:pos:R:3:tags:I:1:initial_magmoms:R:1:forces:R:3 unique_id=697fa5b8c7a84a038bccaa415845af71 energy=-376.5368965181618 stress="0.005513227446970757 8.890220525391854e-05 -0.00033821895094192177 8.890220525391854e-05 0.005096438087174375 -0.0006170653576680485 -0.00033821895094192177 -0.0006170653576680485 -0.0021191907834920438" pbc="T T T"
Ni      -0.01027310       0.00968792       0.24392580        2       1.00000000       0.05442857       0.01692054      -0.23046770
Ni       2.58204997       0.00262141       0.25771067        3       1.00000000       0.00978725       0.02499183      -0.13770250
Ni       5.16833424      -0.02136019       0.12181456        1       1.00000000      -0.01550331       0.05789552       0.20939982
Ni       7.74761990      -0.03547070       0.09792286        1       1.00000000      -0.08734328      -0.16571703       0.24304940
Ni       1.27931087       2.22023058       0.20932671        2       1.00000000       0.02108461      -0.05482165      -0.03537032
Pt       3.82306772       2.21951259       0.22518784        2       0.00000000      -0.00979578      -0.04818352      -0.62529765
Pt       6.48584548       2.17412019       0.20044050        2       0.00000000       0.02266880      -0.03273424      -0.50208292
Ni       9.07205771       2.22331078       0.13046182        1       1.00000000      -0.02503027      -0.03492575      -0.15014578
Ni       2.56948265       4.47401656       0.07041147        1       1.00000000      -0.10934150      -0.07634618       0.16964258
Ni       5.16140543       4.46657696       0.15309545        2       1.00000000       0.10451380      -0.16368483      -0.51275855
Pt       7.85631568       4.46562702       0.03533151        0       0.00000000       0.14629420      -0.08692291      -0.20662701
Ni      10.38126395       4.48564108       0.02973950        0       1.00000000       0.08050782      -0.00058588       0.22058960
Ni       3.85570635       6.70810787       0.06097173        1       1.00000000      -0.05381317       0.13042332       0.23773427
Pt       6.44887165       6.77035499       0.04649435        0       0.00000000       0.02748335       0.10278297      -0.19331765
Ni       9.08118923       6.72026463       0.10602048        1       1.00000000      -0.09041802      -0.08238700      -0.15363119
Ni      11.66124174       6.72164002       0.00000000        0       1.00000000       0.04330146      -0.01059541       0.32765892
Ni       1.29645276       0.71070495       2.22124650        5       1.00000000      -0.01725966      -0.06768290      -0.02165082
Ni       3.86615784       0.73770564       2.26334383        6       1.00000000       0.07220164      -0.00263743       0.21476264
Ni       6.43384100       0.74177887       2.28906315        6       1.00000000      -0.04586514       0.05774572       0.30164986
Pt       8.99050584       0.72525355       2.19969491        5       0.00000000      -0.13616129       0.00005534       0.05810144
Ni       2.56169424       2.94014002       2.24310860        5       1.00000000      -0.08796789       0.05079580       0.06755766
Ni       5.16600638       2.92322087       2.26458592        6       1.00000000       0.00899788      -0.11828274       0.29261993
Ni       7.76382729       2.96034710       2.24619679        5       1.00000000       0.03745067      -0.00024369       0.27374265
Pt      10.32204677       2.97621835       2.22204741        5       0.00000000      -0.07141114       0.02143581       0.17595509
Pt       3.86434451       5.21671198       2.14072465        4       0.00000000       0.01183057       0.01718979      -0.10431804
Pt       6.52587636       5.21060277       2.22162751        5       0.00000000       0.11846610       0.00057779       0.06638023
Ni       9.05262241       5.21897205       2.22702802        5       1.00000000       0.03468275       0.05153025       0.27834136
Pt      11.61384113       5.22444931       2.18264357        5       0.00000000      -0.03916401       0.00971493       0.10073569
Ni       5.17012460       7.44843439       2.16420631        5       1.00000000      -0.05036999      -0.00130806       0.04177977
Ni       7.77049367       7.46015039       2.15854793        5       1.00000000       0.07097793       0.04741767       0.12326254
Pt      10.35551887       7.49091332       2.10572199        4       0.00000000       0.03802820       0.08966151       0.02313948
Ni      12.91444040       7.46382151       2.11687610        4       1.00000000      -0.06865548       0.05136558      -0.05634419
Ni      -0.05245047       1.48812928       4.43441787        8       1.00000000      -0.11654529       0.05443323      -0.14468253
Pt       2.52262320       1.47992290       4.30454724        7       0.00000000      -0.09224215       0.06913789      -0.13811145
Ni       5.18978783       1.42475715       4.36225263        8       1.00000000       0.04645206      -0.06391738      -0.32419355
Ni       7.72635169       1.45551353       4.36141939        8       1.00000000      -0.00900017       0.00340000      -0.26495288
Ni       1.23122943       3.73491239       4.43768520        8       1.00000000      -0.10064511       0.09358973      -0.02271756
Pt       3.81050862       3.71281067       4.35391204        8       0.00000000      -0.06099561       0.00488183      -0.09883685
Pt       6.53305588       3.64596698       4.34030581        7       0.00000000       0.00101590      -0.06112599      -0.07025516
Ni       9.07110107       3.73161262       4.37310184        8       1.00000000       0.15311384       0.10858881      -0.12724153
Ni       2.50492114       5.92521967       4.44626881        8       1.00000000      -0.20378515       0.01944691       0.02866255
Pt       5.14473443       5.94747857       4.39482699        8       0.00000000      -0.01441181       0.02658242      -0.05978614
Ni       7.80544867       5.89604645       4.36901794        8       1.00000000       0.19611269      -0.02238834      -0.20130436
Ni      10.35790033       5.89231446       4.36536961        8       1.00000000       0.04005740      -0.02411357      -0.10906714
Pt       3.75196261       8.15803334       4.35795870        8       0.00000000      -0.10606851       0.00735603       0.01743094
Pt       6.46037019       8.15147926       4.26315789        7       0.00000000      -0.00963043       0.06261820      -0.17895038
Pt       9.12520589       8.13247705       4.30735058        7       0.00000000      -0.00516114       0.02773711      -0.01529556
Ni      11.62414352       8.16649234       4.35200730        8       1.00000000      -0.10984142      -0.00926569      -0.03166543
Pt      -0.09366193      -0.11154455       6.68356562       12       0.00000000       0.02964399       0.13012126       0.17774807
Pt       2.57270232      -0.08404131       6.68617035       12       0.00000000       0.01968765      -0.07907729       0.31312212
Ni       5.18881285      -0.08252429       6.58964911       11       1.00000000       0.05805606      -0.12308963      -0.13808411
Ni       7.67154424      -0.08136526       6.57755664       11       1.00000000      -0.07171811      -0.08330111      -0.19107846
Pt       1.25371672       2.28100188       6.60925797       11       0.00000000      -0.04982835      -0.12003739       0.04594754
Pt       3.86663027       2.19073986       6.54658343       10       0.00000000       0.19316432       0.06506274       0.64232010
Pt       6.44936313       2.11590917       6.50297624       10       0.00000000      -0.08804396       0.00499880       0.57085056
Pt       9.00372158       2.26504578       6.51970736       10       0.00000000      -0.01316036       0.02927698      -0.00718295
Ni       2.52181778       4.48894544       6.55737114       11       1.00000000       0.00020246       0.14410133      -0.25492349
Pt       5.14577588       4.50499811       6.62445466       11       0.00000000       0.05849858      -0.16264194       0.51513776
Ni       7.75092850       4.45247654       6.44400858        9       1.00000000       0.01573904       0.01943121       0.18937079
Ni      10.34092079       4.47171923       6.49211527       10       1.00000000       0.12457427       0.03959220      -0.29103396
Ni       3.79381828       6.64394017       6.54942443       10       1.00000000      -0.16369568      -0.01844277      -0.18193009
Ni       6.46232704       6.64096049       6.45792225       10       1.00000000       0.21221542       0.04388512       0.27493171
Pt       9.09564442       6.57496423       6.51995778       10       0.00000000       0.04768017      -0.01858256       0.02378153
Ni      11.64621705       6.66724242       6.47574888       10       1.00000000       0.02395376       0.04829670      -0.44439873
