64
Lattice="10.286887194921556 0.013372325475615355 -0.040236411390979734 5.155024371030337 8.84849980796539 -0.06353230342414272 0.0 0.0 21.546058220306932" Properties=species:S:1:pos:R:3:tags:I:1:initial_magmoms:R:1:forces:R:3 unique_id=70ae980eca2f42059acaeb94d1099d3c energy=-374.3863992433917 stress="0.005508721896578854 0.00013518074761812484 -0.00024698397208415383 0.00013518074761812484 0.004780345709556259 -2.5184893222285475e-05 -0.00024698397208415383 -2.5184893222285475e-05 -0.002137099730051186" pbc="T T T"
Ni       0.00943837      -0.00240612       0.19069777        2       1.00000000       0.10187513       0.06244734      -0.17183659
Ni       2.56122544       0.00296201       0.19922195        2       1.00000000      -0.03031461       0.02650833      -0.02228035
Ni       5.13848582      -0.02335055       0.15625454        2       1.00000000      -0.04227111       0.05696211      -0.37392577
Ni       7.70300057      -0.04858100       0.15500464        2       1.00000000      -0.06389304      -0.05795139      -0.18055959
Ni       1.28291207       2.21757390       0.10461648        1       1.00000000      -0.02875815       0.00888355       0.36315568
Pt       3.77144822       2.17709494       0.17108715        2       0.00000000       0.05201241       0.03391860      -0.47870994
Pt       6.44614294       2.16477339       0.07830734        1       0.00000000       0.00987497      -0.12467259      -0.20565918
Pt       9.07282384       2.26713950       0.08546672        1       0.00000000       0.03526217       0.05846048      -0.58371836
Ni       2.52489053       4.44377384       0.03281885        0       1.00000000      -0.04496538      -0.02071060       0.16059091
Pt       5.13385847       4.45302680       0.00332680        0       0.00000000       0.01018438      -0.08733276      -0.31930096
Ni       7.73839743       4.44981823       0.03148119        0       1.00000000      -0.01434794       0.03119389       0.04972860
Ni      10.31447333       4.45857339       0.00601938        0       1.00000000       0.04901992       0.06486293       0.18477438
Ni       3.81669081       6.67132710       0.04727531        0       1.00000000      -0.01621591       0.07682360       0.23446032
Pt       6.46356661       6.69938048       0.05661398        1       0.00000000      -0.00042737       0.06405078      -0.05231081
Ni       9.02266632       6.64328351       0.08905482        1       1.00000000      -0.02097582       0.03897718      -0.26738369
Ni      11.59499480       6.64530766       0.00000000        0       1.00000000       0.04008272       0.02069687       0.25712842
Ni       1.30685789       0.73896056       2.22272368        4       1.00000000       0.02594514       0.06217101       0.19278011
Ni       3.80125463       0.73637789       2.20925500        4       1.00000000      -0.17525995      -0.00194597       0.16136094
Ni       6.43338457       0.74354392       2.20049982        4       1.00000000       0.07441615       0.05660468       0.17892407
Pt       9.00777890       0.74391294       2.20091283        4       0.00000000       0.05441446       0.14244826       0.00047712
Ni       2.53301929       2.89065922       2.25193007        5       1.00000000      -0.05478076      -0.14732371       0.28935812
Ni       5.14696937       2.93239109       2.20680372        4       1.00000000      -0.00674547       0.04738765       0.12404317
Ni       7.69390226       2.94319323       2.20702828        4       1.00000000      -0.02720873      -0.04933705       0.13143462
Ni      10.32800702       2.92268391       2.21624768        4       1.00000000       0.09923928      -0.14634726       0.28071288
Pt       3.86260312       5.15399447       2.19885589        4       0.00000000      -0.00223171      -0.05523370      -0.08181426
Ni       6.43756762       5.16079370       2.17674339        4       1.00000000      -0.05975307      -0.01506880       0.08112156
Pt       8.93881692       5.12178338       2.17621788        4       0.00000000      -0.04386777      -0.07554136       0.01279976
Pt      11.57015300       5.11110457       2.16300321        4       0.00000000      -0.03614876      -0.13045255       0.12377529
Ni       5.17635967       7.37768813       2.16017849        4       1.00000000       0.06361849       0.00984181       0.15586567
Ni       7.67407766       7.40264666       2.16005477        4       1.00000000      -0.15579190       0.05553179       0.20858691
Pt      10.31802645       7.41897901       2.10926592        3       0.00000000       0.02052777      -0.01958234       0.11043976
Ni      12.85842421       7.38306256       2.10699702        3       1.00000000       0.03244563      -0.01783867       0.04868910
Ni       0.04159981       1.49487244       4.34116744        7       1.00000000       0.15734434       0.03924516      -0.16727379
Ni       2.49169210       1.49532684       4.30887469        7       1.00000000      -0.09644554       0.03664392      -0.18711134
Pt       5.14012764       1.46067864       4.24936636        6       0.00000000      -0.05448333      -0.06998689      -0.05922405
Ni       7.70958241       1.47018314       4.31038127        7       1.00000000       0.05110659      -0.07225738      -0.25178039
Ni       1.27276596       3.65350036       4.37864700        8       1.00000000       0.01582736      -0.05764124      -0.03663978
Ni       3.78113971       3.69345002       4.31838996        7       1.00000000      -0.16096333      -0.02031138      -0.20951529
Pt       6.49813075       3.67860413       4.31470398        7       0.00000000       0.10688636      -0.04399908      -0.14991081
Ni       9.04170128       3.70002618       4.29402506        7       1.00000000       0.21039265       0.01179632      -0.16473455
Ni       2.52101848       5.84765863       4.38657271        8       1.00000000      -0.07866942      -0.09530702      -0.00438436
Pt       5.15421105       5.89129587       4.36063478        8       0.00000000       0.07655213       0.02382244      -0.06399720
Ni       7.71528386       5.87028178       4.31120071        7       1.00000000       0.03824538      -0.00485210      -0.17847441
Ni      10.31598711       5.83986576       4.33648105        7       1.00000000       0.09164023      -0.05558871      -0.02269627
Pt       3.82014124       8.08295309       4.27091956        7       0.00000000      -0.08762426       0.05112115       0.00297579
Ni       6.42067212       8.11499576       4.25765798        7       1.00000000      -0.07716071       0.16805008      -0.31156721
Pt       8.94076457       8.06016252       4.23145427        6       0.00000000      -0.05750382       0.01603971       0.01257164
Ni      11.57225448       8.05585889       4.26888662        7       1.00000000      -0.06091145      -0.11513939      -0.11094864
Pt      -0.01243585      -0.06033620       6.54605822       10       0.00000000       0.04830574       0.06858860       0.19868800
Pt       2.52868686      -0.01694620       6.53004642       10       0.00000000      -0.00703738       0.07095182       0.21197204
Pt       5.14135483      -0.04273491       6.54360493       10       0.00000000       0.01189933       0.03666255       0.34475931
Pt       7.68545249      -0.06511543       6.52228240       10       0.00000000      -0.07143416       0.14119911       0.29123840
Ni       1.26162825       2.24570175       6.46996222       10       1.00000000       0.02070083       0.08649236      -0.28909247
Pt       3.80763099       2.30478659       6.42145389        9       0.00000000      -0.06967527       0.12344951       0.42543911
Ni       6.41789678       2.22849599       6.41711377        9       1.00000000      -0.00316615      -0.01013979       0.21353394
Pt       8.99768877       2.28782604       6.35011267        9       0.00000000      -0.00508932      -0.07548583       0.49954355
Ni       2.52056487       4.43922662       6.45395608       10       1.00000000       0.01792583      -0.00632356      -0.36192167
Ni       5.13474221       4.42628590       6.39347256        9       1.00000000      -0.04525539      -0.04398023       0.29558319
Ni       7.67049559       4.40452355       6.46025592       10       1.00000000      -0.06031863      -0.02058736      -0.10457204
Ni      10.33351927       4.40151985       6.42499284        9       1.00000000       0.13316512      -0.04553025      -0.32085445
Ni       3.82364237       6.54123402       6.47548416       10       1.00000000      -0.04068795      -0.09934378      -0.16985812
Ni       6.41553727       6.56506561       6.39552608        9       1.00000000       0.12297005       0.04493971       0.22908767
Pt       9.00050279       6.48039607       6.46502861       10       0.00000000       0.03596835      -0.07963715       0.11116232
Ni      11.59130745       6.54546593       6.41801758        9       1.00000000      -0.00746535       0.02867657      -0.28470604
