64
Lattice="10.165808692630442 -0.014413774606736356 -0.0005558770809432121 5.070421651341367 8.79334043280697 0.0025949909403045184 -0.00045387173600615067 0.00270862389030341 8.70122202680676" Properties=species:S:1:pos:R:3:tags:I:1:initial_magmoms:R:1:forces:R:3 unique_id=f9983ecfc4ea4d819e2be6731b941068 stress="-0.005332556076245956 -9.387788851708726e-06 -2.3903740063159278e-05 -9.387788851708726e-06 -0.005345926872046131 9.426201018047915e-06 -2.3903740063159278e-05 9.426201018047915e-06 -0.004738218130787411" energy=-391.48589986704025 pbc="T T T"
Ni       0.02359343       0.02754495       0.15510846        4       1.00000000       0.06841712       0.08437813       0.04236843
Ni       2.51164962      -0.00542278       0.21403459        4       1.00000000      -0.02015363      -0.04174268       0.13219680
Ni       5.12379141      -0.00385781       0.11901275        4       1.00000000       0.03724406      -0.02865829       0.05072561
Ni       7.59386046       0.00369015       0.05771757        4       1.00000000      -0.00990997       0.02817293      -0.02098665
Ni       1.22884830       2.22096952       0.11787932        4       1.00000000      -0.02152858       0.06022926       0.02898095
Pt       3.80207944       2.19940052       0.21101261        4       0.00000000      -0.01453854      -0.03543346      -0.12819532
Ni       6.38804583       2.18976722       0.11755156        4       1.00000000       0.01728678       0.02237482       0.10738629
Ni       8.89181675       2.23732912       0.06781929        4       1.00000000       0.03232633       0.07056480      -0.01103728
Ni       2.50064933       4.42379010       0.11803061        4       1.00000000      -0.04207679       0.00747280       0.07836532
Ni       5.06416451       4.39855793       0.19106169        4       1.00000000      -0.07157700      -0.05987755       0.19722184
Ni       7.63693892       4.33555453       0.07796072        4       1.00000000       0.07917081      -0.06909772      -0.01515470
Ni      10.17691118       4.35136965       0.11403036        4       1.00000000       0.00433799      -0.00586585       0.05938264
Ni       3.79133847       6.57212880       0.06483512        4       1.00000000      -0.01177944      -0.06363219      -0.01020426
Ni       6.33143351       6.59333163       0.04351391        4       1.00000000      -0.00065191      -0.02413534      -0.16042611
Pt       8.89234498       6.58053857       0.18058285        4       0.00000000      -0.02213058      -0.00107384      -0.09129403
Ni      11.43460798       6.56227576       0.05303579        4       1.00000000      -0.03616057      -0.05673205      -0.12162256
Ni       1.30034420       0.76892765       2.13830722        3       1.00000000      -0.02704290       0.09549160       0.01481499
Ni       3.81742624       0.66665561       2.17046705        3       1.00000000       0.02776994      -0.08765249       0.00595163
Ni       6.31096390       0.73514106       2.12826750        3       1.00000000       0.01038252       0.00062560      -0.01833362
Pt       8.89993057       0.81210036       2.11954646        3       0.00000000      -0.03409683       0.00364158       0.02635535
Ni       2.51079488       2.97064814       2.18281097        3       1.00000000      -0.02536907       0.04857574       0.02283095
Ni       5.07818290       2.91673293       2.20084603        3       1.00000000       0.01090660      -0.00650145       0.09234997
Ni       7.62321406       2.93154110       2.13216661        3       1.00000000       0.02022623       0.03281669       0.04070208
Ni      10.19244395       2.96031194       2.14174019        3       1.00000000       0.01101147       0.02513033       0.02812446
Ni       3.76749852       5.07358753       2.19040002        3       1.00000000      -0.03003092      -0.00823648       0.07078193
Pt       6.40607789       5.10752841       2.13450804        3       0.00000000       0.10960523       0.00689112       0.03129491
Ni       8.94331741       5.11375188       2.20302914        3       1.00000000       0.07998583       0.01948257      -0.00033559
Ni      11.39667651       5.09145677       2.14594903        3       1.00000000      -0.04501487       0.01926635      -0.06060043
Pt       5.12257658       7.32366465       2.15407205        3       0.00000000      -0.02619202      -0.00725160      -0.02491045
Ni       7.65598012       7.35841858       2.24200958        3       1.00000000       0.00347560       0.01717110       0.07894824
Ni      10.12183905       7.32790890       2.24151379        3       1.00000000      -0.02066605       0.01150624       0.02837114
Pt      12.60456406       7.26228682       2.14919521        3       0.00000000      -0.01401387       0.00526259      -0.03433184
Ni       0.00602807       1.46698215       4.32541926        2       1.00000000      -0.01445583       0.00619430      -0.04704473
Pt       2.48049137       1.41257952       4.22026093        2       0.00000000      -0.04284401      -0.08047961      -0.01782037
Pt       5.06615184       1.37218686       4.26172923        2       0.00000000       0.00733013      -0.08928567      -0.03995456
Pt       7.63881504       1.42782752       4.38009950        2       0.00000000      -0.03156401       0.02829994       0.01875936
Pt       1.30776574       3.73452679       4.31444280        2       0.00000000       0.03250955      -0.02415319      -0.03151744
Ni       3.79876055       3.72536217       4.27763850        2       1.00000000       0.01072960       0.02539812      -0.06118996
Pt       6.31216864       3.70430431       4.33868075        2       0.00000000      -0.02019995      -0.01234859       0.07570918
Pt       8.91807899       3.72941957       4.32512793        2       0.00000000      -0.01882189       0.04970456      -0.01657768
Ni       2.53026849       5.85559998       4.35324527        2       1.00000000       0.04833196      -0.01355929      -0.08843226
Ni       5.06684772       5.86492383       4.32924982        2       1.00000000      -0.02044221      -0.02995805      -0.06920626
Ni       7.60851668       5.91931714       4.29460222        2       1.00000000       0.00871587       0.01059383      -0.09705413
Ni      10.19841918       5.90938245       4.26262800        2       1.00000000       0.08527269      -0.00060132      -0.19679743
Pt       3.79375932       7.98239768       4.36478628        2       0.00000000       0.01807494       0.00244148      -0.04256418
Ni       6.36249759       8.00166955       4.31486896        2       1.00000000      -0.02278278      -0.02502519      -0.00500304
Ni       8.88921314       7.99286355       4.27015694        2       1.00000000      -0.02617611      -0.06284784      -0.01402054
Ni      11.38644814       7.97578828       4.35364191        2       1.00000000      -0.00025118      -0.03999267      -0.05002675
Pt      -0.06027730       0.02531978       6.51193749        1       0.00000000      -0.05002222       0.04766748       0.12015987
Pt       2.55347429      -0.03914423       6.49234078        1       0.00000000       0.03924221      -0.04012504       0.17054092
Ni       5.15016241      -0.03349995       6.44523808        1       1.00000000       0.01012039      -0.05660303      -0.01330275
Ni       7.56338892      -0.04002136       6.47246972        1       1.00000000      -0.10744916      -0.06905900      -0.01242325
Ni       1.22251951       2.24643381       6.46238241        1       1.00000000      -0.02872429       0.01138875      -0.02780322
Pt       3.79973590       2.24041336       6.40722215        1       0.00000000      -0.02770378       0.10539119       0.04349656
Ni       6.39475378       2.17365636       6.49158849        1       1.00000000      -0.02061368      -0.00273587       0.08709681
Ni       8.89079617       2.22804834       6.47726009        1       1.00000000       0.00726320       0.09092420      -0.03120971
Ni       2.49565880       4.45972439       6.46033117        1       1.00000000      -0.00894711       0.07926094       0.02508349
Pt       5.07313835       4.49430108       6.52479524        1       0.00000000      -0.02359379       0.11387942       0.24180442
Ni       7.63525060       4.36619586       6.47386651        1       1.00000000       0.00316140      -0.01320960      -0.00532516
Ni      10.20212975       4.36484909       6.48587878        1       1.00000000       0.10275229      -0.03628757       0.06583085
Ni       3.74292244       6.58906155       6.45610923        1       1.00000000      -0.10472182       0.03740788      -0.02300390
Ni       6.34551447       6.58781287       6.40483908        1       1.00000000       0.04887955       0.05339306      -0.23351882
Pt       8.95049428       6.50804723       6.34308544        1       0.00000000       0.08139447      -0.08323037      -0.01327826
Ni      11.47252409       6.57864882       6.41470832        1       1.00000000       0.02632260      -0.04560649      -0.15112779
