64
Lattice="10.108190718719142 0.005732073723365964 0.004993627166665003 5.059059480820372 8.73508126914811 -0.017401673093668295 0.0 0.0 21.444079015165904" Properties=species:S:1:pos:R:3:tags:I:1:initial_magmoms:R:1:forces:R:3 unique_id=acf9c99d40f04564adc6f5e7f1bd8c78 stress="0.004408429415511317 3.903277781968038e-05 8.735820708576077e-05 3.903277781968038e-05 0.004107424967926864 -0.00014338224827134934 8.735820708576077e-05 -0.00014338224827134934 -0.002046627978485491" energy=-367.40101758418905 pbc="T T T"
Ni       0.03787815      -0.03763697       0.15972381        2       1.00000000       0.12497907       0.00559443      -0.40186279
Ni       2.51135855      -0.02995190       0.17090056        2       1.00000000       0.03638965      -0.01037652      -0.12658712
Ni       5.06687531      -0.01420567       0.06726361        1       1.00000000      -0.07854548       0.01445950       0.07426759
Ni       7.55350338      -0.00982983       0.13875971        1       1.00000000      -0.02769996       0.07966158      -0.56694584
Ni       1.26780863       2.19417573       0.08867669        1       1.00000000       0.02293014      -0.04301063       0.24843403
Pt       3.78646473       2.18897881       0.16129210        2       0.00000000      -0.04238830      -0.00557196      -0.71781226
Ni       6.31444794       2.19393781       0.08166458        1       1.00000000      -0.00516100       0.02118745       0.14187320
Pt       8.85002343       2.24035160       0.00000000        0       0.00000000       0.02787706       0.02435367      -0.26063693
Ni       2.50756367       4.39624416       0.07044709        1       1.00000000       0.05711725       0.00083498       0.26084440
Ni       5.05781031       4.39145678       0.04420169        0       1.00000000      -0.10905623      -0.05438208       0.09788061
Ni       7.57704875       4.40013546       0.04586790        0       1.00000000       0.11058208       0.06264643       0.04673649
Ni      10.13656215       4.40544227       0.07488959        1       1.00000000      -0.04216262       0.10216030       0.20662963
Ni       3.81834505       6.52341058       0.03257824        0       1.00000000       0.11066387      -0.04232625       0.08366639
Ni       6.31651046       6.56691406       0.04463487        0       1.00000000       0.03206455       0.11729291       0.14873709
Ni       8.82259546       6.53468858       0.11990544        1       1.00000000      -0.15241032      -0.06989037      -0.24185124
Ni      11.36819189       6.52902580       0.01971372        0       1.00000000      -0.06892763      -0.05507601       0.07461742
Ni       1.31051083       0.72975538       2.16534554        4       1.00000000       0.02970281       0.14086738       0.15449260
Ni       3.74829924       0.71931212       2.17696791        4       1.00000000      -0.12858705      -0.02518569       0.13528030
Ni       6.30192937       0.76440436       2.12306633        3       1.00000000      -0.02661214       0.05302716      -0.05044913
Pt       8.88371078       0.78178497       2.18471058        4       0.00000000       0.03050176       0.13093836       0.03099318
Ni       2.50818934       2.91678804       2.17996095        4       1.00000000       0.00539630      -0.05204400       0.10291170
Ni       5.05904277       2.91489601       2.16685225        4       1.00000000       0.01192374       0.05494125       0.06211839
Ni       7.57976615       2.92640578       2.16177443        4       1.00000000       0.05239285       0.03577502       0.08917577
Ni      10.13961637       2.95145596       2.15651909        4       1.00000000       0.00377828       0.01350682       0.03842012
Ni       3.78433656       5.03773571       2.14216188        3       1.00000000      -0.01296915      -0.17886849       0.05598823
Pt       6.32556499       5.12239356       2.11378576        3       0.00000000       0.03196914       0.03967209      -0.00162436
Ni       8.86292701       5.05554247       2.15217736        4       1.00000000       0.01822645      -0.12926399       0.10647358
Ni      11.36661204       5.04524048       2.12463120        3       1.00000000      -0.05663262      -0.09077461       0.03614483
Ni       5.10456027       7.27717295       2.12418964        3       1.00000000       0.01420041       0.06076149       0.09850291
Ni       7.55451197       7.30840851       2.15212828        4       1.00000000      -0.07468443       0.04753098       0.19564351
Pt      10.05072600       7.26963362       2.15560505        4       0.00000000      -0.02737232      -0.02216250       0.04585219
Pt      12.64478944       7.19643818       2.10594097        3       0.00000000       0.05576486      -0.11326829       0.00955956
Ni       0.02228169       1.46583098       4.28728672        6       1.00000000       0.09344549      -0.05457020      -0.08522438
Ni       2.49356554       1.42596148       4.22678034        5       1.00000000      -0.04840310      -0.10793191      -0.21909009
Pt       5.05801385       1.38736731       4.21246992        5       0.00000000      -0.01318036      -0.14273390       0.06699290
Ni       7.60875874       1.47131561       4.29042576        6       1.00000000       0.08245761      -0.03702624      -0.13189943
Pt       1.26360217       3.63874085       4.27062703        6       0.00000000       0.03260189      -0.02527499       0.03506824
Ni       3.78535060       3.68913134       4.24022172        5       1.00000000       0.02676835       0.04551445      -0.22220892
Pt       6.35090065       3.66313238       4.31990492        6       0.00000000       0.00104453      -0.00394686       0.05143849
Ni       8.85998788       3.65077197       4.28085469        6       1.00000000       0.03118444       0.11025705      -0.19585161
Ni       2.53092157       5.79063083       4.30568282        6       1.00000000      -0.01579404      -0.03246045      -0.06640333
Ni       5.05770756       5.80845382       4.30251069        6       1.00000000       0.08286232      -0.01491048      -0.07643879
Ni       7.60102870       5.84484211       4.26754053        6       1.00000000       0.06628360       0.08309409      -0.15692124
Ni      10.11145462       5.81372861       4.26758901        6       1.00000000      -0.05566173      -0.05742335      -0.14180970
Pt       3.81833733       7.94569106       4.25994413        6       0.00000000       0.05265005      -0.01089716       0.10708198
Ni       6.36210672       7.97883694       4.21840601        5       1.00000000       0.07331580      -0.02360060      -0.16577646
Ni       8.82827673       7.96911287       4.24872800        5       1.00000000      -0.14526140      -0.03354399      -0.14138308
Ni      11.35162382       7.94850747       4.28630720        6       1.00000000      -0.02579468      -0.17927036      -0.04807125
Pt      -0.00074642      -0.00179131       6.44407902        8       0.00000000      -0.06957888       0.08907329       0.42254661
Pt       2.55151561      -0.01651615       6.39214996        8       0.00000000      -0.01697900       0.04680863       0.19244143
Ni       5.06201431      -0.02638133       6.39503898        8       1.00000000      -0.10138378      -0.00044228      -0.01460367
Pt       7.50047165      -0.00375258       6.43706049        8       0.00000000       0.06543039       0.08389979       0.37950544
Ni       1.23802367       2.21926892       6.39082853        8       1.00000000       0.04686697      -0.02753755      -0.03186549
Pt       3.80036275       2.26978521       6.33944095        7       0.00000000      -0.10833991       0.19194274       0.72359107
Ni       6.34568107       2.21037669       6.41077692        8       1.00000000      -0.00680772       0.08697971       0.02037518
Ni       8.84525723       2.23637460       6.27130410        7       1.00000000      -0.03809485       0.00739628       0.28287792
Ni       2.51972535       4.41238803       6.39042996        8       1.00000000       0.03635297       0.02305776      -0.16674834
Ni       5.06721447       4.41388476       6.39413477        8       1.00000000      -0.07803783       0.02351655      -0.04098095
Ni       7.58629594       4.33707669       6.39948006        8       1.00000000       0.12254874      -0.01677482      -0.01550507
Ni      10.12712306       4.33000146       6.39496243        8       1.00000000      -0.04034899      -0.03105559      -0.17757758
Ni       3.79494944       6.47021973       6.38262124        8       1.00000000      -0.02127347       0.03269251      -0.09150284
Ni       6.30123171       6.47758123       6.36673817        8       1.00000000       0.04642277       0.05391687      -0.20396183
Pt       8.88902224       6.46051267       6.38371387        8       0.00000000      -0.02738205      -0.10948302       0.08052973
Ni      11.39795616       6.49800432       6.36573072        8       1.00000000       0.02883487      -0.08227639      -0.14609900
