64
Lattice="10.415079090318235 -0.015887196239716433 0.06049888271964102 5.193780829620612 8.922380483893326 0.03696122379694671 0.049397130890534116 0.006327929166854124 8.863244112236197" Properties=species:S:1:pos:R:3:tags:I:1:initial_magmoms:R:1:forces:R:3 unique_id=459766e4bb814473a8fcc4d483bc3f87 stress="-0.0033715553340217877 2.9021352855447503e-05 -3.206750448764558e-05 2.9021352855447503e-05 -0.0033737693049839257 8.934734874886962e-06 -3.206750448764558e-05 8.934734874886962e-06 -0.002851845842774585" energy=-402.67014902724617 pbc="T T T"
Ni      -0.02022430      -0.01046808       0.22095786        4       1.00000000      -0.04381026       0.02838912       0.26303420
Ni       2.63636077      -0.01320870       0.14118782        4       1.00000000       0.08551805       0.01610725       0.16689306
Ni       5.21295679      -0.03016089       0.19632255        4       1.00000000       0.05159650       0.01174669       0.14856677
Ni       7.82100506      -0.07313019       0.26471140        4       1.00000000       0.03811276      -0.06026944       0.26341797
Pt       1.30658109       2.23640968       0.20162756        4       0.00000000       0.04037567       0.05562847      -0.02967511
Pt       3.88897037       2.17214146       0.13432554        4       0.00000000       0.04142462       0.00300282      -0.09521842
Pt       6.51568180       2.12865152       0.15414775        4       0.00000000       0.05065311      -0.05202852      -0.10899931
Pt       9.13747503       2.16961943       0.24843000        4       0.00000000       0.04433061      -0.01160496      -0.06390792
Ni       2.58711499       4.50509462       0.15474467        4       1.00000000       0.05135663       0.01505653       0.04494650
Pt       5.17026426       4.49132407       0.18588809        4       0.00000000       0.06846549       0.01755478      -0.13058579
Pt       7.85572077       4.49475825       0.18643851        4       0.00000000       0.01790013       0.00040703      -0.17263708
Ni      10.44226144       4.49768525       0.14901331        4       1.00000000       0.04282665       0.05141146       0.07388339
Ni       3.85353463       6.74732048       0.14188037        4       1.00000000      -0.00825020       0.07906761       0.10654731
Pt       6.50807453       6.80161430       0.25246035        4       0.00000000       0.01646959       0.05534828      -0.02192799
Ni       9.14154041       6.72613949       0.14027250        4       1.00000000       0.04358339       0.05585768       0.05345106
Ni      11.73430966       6.69057894       0.14413337        4       1.00000000       0.12076693       0.00128871       0.02082566
Ni       1.31320294       0.75636623       2.23986617        3       1.00000000      -0.00028821       0.07119527      -0.02109537
Ni       3.86762975       0.75705210       2.25566499        3       1.00000000      -0.09650806       0.00823741       0.03017498
Ni       6.56550760       0.74964521       2.28047567        3       1.00000000       0.07699694       0.02173632       0.07273504
Ni       9.12853573       0.72843814       2.30273249        3       1.00000000       0.02376093       0.05705955       0.06971842
Ni       2.61650854       2.92891516       2.31379127        3       1.00000000       0.01156639      -0.05425890       0.05358817
Ni       5.20802209       2.94749194       2.28113738        3       1.00000000      -0.04136859      -0.00529745      -0.05554211
Ni       7.82827689       2.90454308       2.31291797        3       1.00000000       0.07245993      -0.12632787      -0.05987182
Ni      10.42387495       2.91315365       2.37410518        3       1.00000000       0.00975045      -0.08346282       0.04769296
Pt       3.89040980       5.21915253       2.29154851        3       0.00000000      -0.01570912       0.01914793       0.06230364
Ni       6.51744246       5.21961274       2.28616238        3       1.00000000      -0.02839269       0.09815476      -0.02702326
Pt       9.07958541       5.16924296       2.35061575        3       0.00000000      -0.01194492      -0.03159978       0.07464376
Pt      11.72305601       5.13946688       2.28141746        3       0.00000000      -0.05313479      -0.05248584       0.05482754
Ni       5.18411358       7.48790824       2.24913348        3       1.00000000      -0.08378003       0.05828259       0.05264325
Ni       7.81010925       7.47486689       2.28199646        3       1.00000000       0.04291691       0.07198081       0.01140250
Pt      10.42176038       7.48198507       2.20587014        3       0.00000000       0.03448414      -0.05691348       0.07887073
Ni      13.04358916       7.45701421       2.26905339        3       1.00000000      -0.00745417      -0.02879675       0.05120728
Ni       0.03070518       1.55120636       4.32597299        2       1.00000000       0.03471561       0.03119517      -0.12608019
Ni       2.61746399       1.54170299       4.35971061        2       1.00000000      -0.02166961       0.04872701      -0.18911753
Pt       5.18597642       1.53278153       4.37617906        2       0.00000000      -0.01362182       0.00664458      -0.07755453
Ni       7.85688972       1.49834754       4.39170406        2       1.00000000       0.01818911       0.00058102      -0.13922203
Ni       1.33464709       3.67822888       4.36351406        2       1.00000000       0.02486160      -0.08476966      -0.11867743
Ni       3.84887275       3.69706855       4.39988325        2       1.00000000      -0.10526600       0.01836937      -0.10366639
Pt       6.60333201       3.69554743       4.32885497        2       0.00000000       0.04422556       0.00387599      -0.16820792
Ni       9.17443712       3.65050181       4.40034732        2       1.00000000       0.08585190      -0.16449193      -0.12810315
Ni       2.61397618       5.92903514       4.43411444        2       1.00000000      -0.00328365       0.01764551      -0.03552750
Pt       5.21071185       5.94564028       4.40328968        2       0.00000000      -0.01969617       0.06117762      -0.02354718
Ni       7.82592207       5.94847962       4.41704412        2       1.00000000      -0.04914493       0.07268822      -0.10253156
Pt      10.43998076       5.84700575       4.57077548        2       0.00000000      -0.02117094      -0.07560119       0.01564474
Pt       3.91014754       8.23662421       4.34650845        2       0.00000000       0.00330136       0.04924271       0.08282369
Pt       6.52539078       8.27578741       4.33995898        2       0.00000000      -0.08091852       0.11647336       0.01390721
Pt       9.07841632       8.17109727       4.44980452        2       0.00000000       0.00590734      -0.01519632       0.00251256
Pt      11.75018517       8.16571658       4.43016388        2       0.00000000      -0.04676950       0.01758935       0.05075561
Pt       0.04050276      -0.02197284       6.63873494        1       0.00000000      -0.06796238      -0.02486734       0.24567865
Ni       2.64885112       0.00230925       6.59332837        1       1.00000000      -0.06254041       0.04165726      -0.03814495
Pt       5.16617280      -0.01780444       6.68586182        1       0.00000000      -0.11657086       0.05639688       0.12399885
Pt       7.80095211      -0.06526784       6.69982710        1       0.00000000      -0.08938877      -0.06028582       0.25984271
Pt       1.38653305       2.22862040       6.46485750        1       0.00000000      -0.01672481      -0.03281858      -0.06240045
Ni       3.91820695       2.21127901       6.50854889        1       1.00000000      -0.09477762       0.00223903      -0.15756288
Ni       6.52829020       2.20424119       6.53123156        1       1.00000000       0.02267899      -0.06676472      -0.18113426
Pt       9.14143570       2.23311488       6.51189128        1       0.00000000      -0.01756635      -0.10241428      -0.05902541
Pt       2.57883888       4.53069448       6.56989986        1       0.00000000      -0.04006621       0.05273408       0.03007046
Pt       5.20174732       4.38244126       6.53275355        1       0.00000000      -0.00012682      -0.09282236      -0.01798605
Pt       7.91099634       4.48100418       6.51647838        1       0.00000000       0.05582310       0.00785867      -0.07838645
Ni      10.45323147       4.46464450       6.64305590        1       1.00000000       0.01402208      -0.11347732       0.02116065
Ni       3.90082870       6.68484586       6.60228119        1       1.00000000      -0.01248882      -0.01056117      -0.05974666
Pt       6.59220040       6.71115256       6.56949883        1       0.00000000       0.06308382      -0.00958309       0.02960860
Ni       9.16916013       6.67631520       6.64668559        1       1.00000000       0.02225520      -0.01370684       0.00113908
Ni      11.71503783       6.65761748       6.65895515        1       1.00000000      -0.10983624       0.02864954      -0.02541031
