64
Lattice="10.141811658921474 -0.019586673674120366 -0.006150146502523546 5.053943272483373 8.727032682674174 -0.05746494431861464 -0.005021573591515245 -0.05127926221278326 8.661134869082419" Properties=species:S:1:pos:R:3:tags:I:1:initial_magmoms:R:1:forces:R:3 unique_id=d7e55b76f3ab4b7fa87509b2e52dea25 stress="-0.006569994513207077 1.5915918405929146e-05 -1.4483605139257395e-05 1.5915918405929146e-05 -0.006537591094990386 -1.8354507357932956e-06 -1.4483605139257395e-05 -1.8354507357932956e-06 -0.0057069586225902275" energy=-389.6622290373081 pbc="T T T"
Ni       0.02841606      -0.00596298       0.17106166        4       1.00000000       0.05016178       0.08929561       0.05461290
Ni       2.48932011      -0.03906362       0.20293193        4       1.00000000      -0.03805164      -0.04683506       0.09316501
Pt       5.08471144      -0.08505461       0.21062380        4       0.00000000      -0.03212912      -0.06573854      -0.07690326
Ni       7.61567884      -0.06641844       0.19983667        4       1.00000000       0.02518633      -0.07984529       0.18648208
Ni       1.25548830       2.19888489       0.11609842        4       1.00000000      -0.02113436       0.06284647       0.10518741
Pt       3.75247148       2.22193826       0.18769928        4       0.00000000      -0.04926299      -0.04397881      -0.06483457
Ni       6.33333585       2.20445360       0.11340157        4       1.00000000      -0.02772482       0.02306254       0.15319746
Pt       8.87562640       2.22543804       0.10065628        4       0.00000000       0.00351015       0.06275224      -0.23275245
Ni       2.48945870       4.39808378       0.08127362        4       1.00000000      -0.04918478      -0.02048521       0.04916838
Ni       5.05510386       4.38581809       0.04068175        4       1.00000000      -0.05762109       0.02146492      -0.00314372
Ni       7.60097896       4.37871046       0.04207788        4       1.00000000       0.07563918       0.01192143      -0.02484797
Ni      10.16744527       4.39013014       0.08745846        4       1.00000000       0.04326906       0.03877498       0.06098563
Ni       3.75779262       6.50753487       0.03283541        4       1.00000000      -0.06090368      -0.06883792      -0.02013248
Ni       6.34329139       6.53141946       0.00282841        4       1.00000000       0.04369912      -0.00821597      -0.15390955
Ni       8.84637326       6.47696394       0.16191402        4       1.00000000       0.00536497      -0.07501725       0.16181656
Ni      11.41485121       6.47081962       0.07373880        4       1.00000000      -0.01469245      -0.05780104       0.03749563
Ni       1.31055677       0.76029092       2.19529974        3       1.00000000      -0.01740809       0.05904741       0.07929081
Ni       3.73821942       0.67813970       2.20375924        3       1.00000000      -0.08228230      -0.03640101       0.05492284
Ni       6.34321777       0.69859897       2.18858256        3       1.00000000       0.03055795      -0.02413133       0.06846304
Pt       8.86333929       0.75267027       2.21187812        3       0.00000000       0.07577748      -0.00425416       0.15885877
Ni       2.48385012       2.92772989       2.22953713        3       1.00000000      -0.02953254       0.05737899       0.07919787
Ni       5.05399583       2.90004919       2.16745934        3       1.00000000      -0.02931905       0.05249962       0.04560681
Ni       7.60299507       2.89595345       2.18641619        3       1.00000000       0.03771721       0.01487145       0.06501824
Ni      10.18869317       2.94122369       2.20087484        3       1.00000000       0.04607450       0.06312996       0.01351833
Ni       3.73007014       5.04048798       2.14597505        3       1.00000000      -0.01424880      -0.00684539      -0.01377329
Pt       6.37989811       5.04497002       2.09707582        3       0.00000000       0.04432396       0.00269724      -0.04161772
Ni       8.92430768       5.06310468       2.15497986        3       1.00000000       0.05843863      -0.05176152       0.04860503
Ni      11.39551927       5.05790729       2.15348289        3       1.00000000       0.00744400      -0.02590806       0.06340938
Pt       5.08013440       7.23471667       2.08722969        3       0.00000000      -0.03879594      -0.01952909       0.00494312
Ni       7.65043051       7.26961105       2.14592231        3       1.00000000       0.01436166      -0.04480556       0.05260542
Ni      10.12798613       7.18793908       2.19182057        3       1.00000000       0.01235828      -0.08992518       0.06312249
Ni      12.59589417       7.17971894       2.10817689        3       1.00000000       0.00288377      -0.09176251       0.05664661
Ni       0.06150589       1.47538869       4.26222407        2       1.00000000       0.08115443      -0.00181421      -0.05271177
Ni       2.47555960       1.44809366       4.23024876        2       1.00000000       0.00357718       0.03037093      -0.02559660
Pt       5.03759871       1.39181589       4.17813467        2       0.00000000      -0.04204440       0.01024870      -0.09426813
Ni       7.59175314       1.42314843       4.27344443        2       1.00000000      -0.08143291      -0.07200825      -0.01956541
Ni       1.25960755       3.62862943       4.27122318        2       1.00000000       0.00912711       0.01374506      -0.05169748
Ni       3.73360085       3.67851117       4.22076124        2       1.00000000      -0.00757918       0.05217535      -0.12682021
Pt       6.35948988       3.64131598       4.31936717        2       0.00000000       0.00803408      -0.02227684      -0.04127212
Ni       8.92726045       3.66136556       4.20300100        2       1.00000000       0.04701376       0.09913214      -0.15191234
Ni       2.48126252       5.73547324       4.25420773        2       1.00000000      -0.05688830      -0.04386280      -0.15216402
Ni       5.04504111       5.77256377       4.29719434        2       1.00000000      -0.00983929      -0.02727861      -0.13638070
Ni       7.61857363       5.81700810       4.23052482        2       1.00000000       0.07953831       0.02396405      -0.08965737
Ni      10.15652183       5.75246628       4.21765097        2       1.00000000       0.01380890      -0.02780313      -0.03702597
Pt       3.75405920       7.90349734       4.24424278        2       0.00000000      -0.04815701      -0.00299855       0.02030940
Ni       6.36379948       7.95532295       4.20059062        2       1.00000000       0.01469604       0.01119230      -0.07558628
Ni       8.83482769       7.91154071       4.16962771        2       1.00000000       0.00419638      -0.06822458      -0.01710528
Ni      11.36620785       7.87634046       4.17224371        2       1.00000000      -0.03079310      -0.07751607      -0.07099109
Pt       0.01970310      -0.07220446       6.45656177        1       0.00000000      -0.06043853       0.02330673       0.08981111
Pt       2.52028497      -0.04298741       6.39814206        1       0.00000000       0.09368898       0.03268730       0.05555278
Pt       5.08276737      -0.07031982       6.33881363        1       0.00000000      -0.07490401      -0.03993952       0.06914775
Pt       7.58982692      -0.09139881       6.47040699        1       0.00000000       0.04042868       0.03428228       0.24517255
Ni       1.26029959       2.21828156       6.36181291        1       1.00000000       0.01823881       0.05080430      -0.06790955
Pt       3.77204168       2.29106115       6.32212802        1       0.00000000      -0.03091998       0.09278072       0.08075841
Ni       6.32997663       2.18864192       6.40545521        1       1.00000000      -0.02904879       0.01688332       0.05389334
Pt       8.88172813       2.24653473       6.25176281        1       0.00000000       0.00986943       0.05908080      -0.04115601
Ni       2.49295628       4.39245603       6.35022558        1       1.00000000      -0.00538277       0.06888562      -0.08145950
Ni       5.06268796       4.39870736       6.37945973        1       1.00000000      -0.03806637       0.10174082      -0.03059534
Ni       7.54678391       4.33094560       6.39428607        1       1.00000000      -0.09188460       0.01779778      -0.00580462
Ni      10.21327831       4.31999693       6.34872506        1       1.00000000       0.13813894       0.00870386      -0.08228133
Ni       3.78671379       6.41670405       6.35990738        1       1.00000000      -0.02578469      -0.04969967      -0.06057932
Ni       6.29555836       6.44218655       6.32938689        1       1.00000000       0.01957842       0.01441112      -0.24655749
Pt       8.86210017       6.36853982       6.37031640        1       0.00000000       0.02451335      -0.04384166       0.13396822
Ni      11.43054554       6.41969853       6.33494901        1       1.00000000       0.01308476       0.01740675      -0.11392040
