64
Lattice="10.31563600422278 -0.002784193025044506 0.0028455953148604205 5.155406820222664 8.952016680251935 0.029950162166370715 0.0 0.0 21.55795428452176" Properties=species:S:1:pos:R:3:tags:I:1:initial_magmoms:R:1:forces:R:3 unique_id=611afcdcb2ac4a82b25426415d3e1420 energy=-377.9554385193457 stress="0.005851018172690536 0.00019813627702375234 -1.3988895934212582e-05 0.00019813627702375234 0.005988413927502456 0.00019868470099037382 -1.3988895934212582e-05 0.00019868470099037382 -0.0009161048690812263" pbc="T T T"
Ni       0.04091264       0.00608258       0.08019574        1       1.00000000       0.12946206       0.01625645      -0.02035832
Ni       2.53937984       0.01299842       0.11008222        1       1.00000000      -0.08496329       0.07740037       0.04656150
Pt       5.09523544      -0.02374721       0.05081440        1       0.00000000      -0.08941598       0.19296050      -0.79986402
Pt       7.76831578      -0.10622186       0.08541201        1       0.00000000      -0.12304268      -0.04250902      -0.71694615
Ni       1.29858122       2.24979365       0.02117375        0       1.00000000       0.00424150       0.06125076       0.45662882
Pt       3.77900988       2.30087334       0.11576517        1       0.00000000       0.00750539       0.04795362      -0.34079593
Pt       6.43148785       2.27575137       0.04457980        0       0.00000000       0.01938126      -0.03118878      -0.06096438
Pt       9.13184206       2.27181502       0.06202495        1       0.00000000      -0.04094014       0.13087170      -0.51662358
Ni       2.56813722       4.50756034       0.00000000        0       1.00000000       0.08960097      -0.00168480       0.35013885
Ni       5.11915932       4.50945846       0.10712324        1       1.00000000      -0.09926346       0.12292355       0.17906720
Pt       7.77521702       4.54035562       0.04351973        0       0.00000000       0.02581971       0.10503838       0.03173717
Ni      10.36514188       4.49840302       0.00499891        0       1.00000000       0.06651903      -0.01038807       0.31681148
Ni       3.85012370       6.66610621       0.04052508        0       1.00000000      -0.01642132      -0.16084988       0.48551252
Pt       6.40589781       6.76546699       0.12594319        1       0.00000000      -0.03119165       0.04843674      -0.22369502
Ni       9.03528130       6.69967727       0.10193259        1       1.00000000      -0.13032434      -0.03325107      -0.20639541
Ni      11.61602348       6.65603942       0.00849540        0       1.00000000       0.03515118       0.03322973       0.22610881
Ni       1.31658546       0.75041727       2.12338442        2       1.00000000       0.14335133      -0.00010220       0.03072532
Ni       3.83943429       0.77668589       2.15906483        3       1.00000000      -0.00385303       0.01615264       0.23478527
Ni       6.42272666       0.79179765       2.16889173        3       1.00000000      -0.10234247       0.15759109       0.24750009
Pt       9.11303672       0.74483381       2.18326849        3       0.00000000       0.19083961       0.03631070      -0.04338748
Ni       2.57079895       2.99570943       2.17433061        3       1.00000000       0.02548175       0.06274514       0.09845812
Ni       5.13500219       3.01779052       2.18944995        3       1.00000000      -0.10531128       0.07243215       0.23287590
Ni       7.73675772       3.03219091       2.17265551        3       1.00000000       0.03866303       0.11035437       0.16348634
Ni      10.34619878       2.99602956       2.19657947        3       1.00000000       0.09357775      -0.01721255       0.27625946
Ni       3.90191690       5.22220248       2.16426288        3       1.00000000       0.15665573      -0.04910793       0.14308502
Ni       6.42926016       5.23873441       2.18727036        3       1.00000000      -0.05765354       0.08423093       0.16347358
Ni       8.99450112       5.19815917       2.18251721        3       1.00000000      -0.11053945      -0.20616466       0.26881038
Pt      11.66336978       5.15483524       2.12135910        2       0.00000000       0.12184550      -0.10576895       0.07362958
Ni       5.16950175       7.43129790       2.18734737        3       1.00000000       0.03690420      -0.18453602       0.20848274
Ni       7.69146088       7.46624851       2.17835112        3       1.00000000      -0.14339515      -0.00465751       0.25586203
Pt      10.28697247       7.41349337       2.14714874        2       0.00000000       0.00263783      -0.15047039      -0.21679087
Ni      12.93205113       7.40144351       2.17009326        3       1.00000000       0.20307957      -0.25347926       0.13740940
Ni       0.02579701       1.54590291       4.29900830        5       1.00000000      -0.02869174       0.06009258      -0.18366181
Pt       2.51644926       1.57681166       4.21071962        4       0.00000000      -0.01678460      -0.03903153      -0.02172946
Ni       5.14567277       1.54346305       4.27608423        5       1.00000000      -0.12285205       0.07503657      -0.42995588
Pt       7.73286375       1.55861422       4.26273961        5       0.00000000      -0.05681577      -0.03483198      -0.13806495
Ni       1.29561253       3.73209620       4.35205172        6       1.00000000       0.04021068      -0.05958495      -0.04834132
Ni       3.84297569       3.79302821       4.27838694        5       1.00000000      -0.08501826       0.12332437      -0.34852164
Pt       6.42193297       3.80696612       4.25559711        5       0.00000000      -0.09303973       0.05024254      -0.07611377
Ni       9.04244305       3.75490461       4.28530790        5       1.00000000      -0.04193301      -0.03165837      -0.38775157
Ni       2.61637766       5.91777518       4.35691804        6       1.00000000       0.12097472      -0.21638852      -0.08010937
Ni       5.14394069       5.95956360       4.27807401        5       1.00000000       0.01330058      -0.14129307      -0.39913561
Ni       7.71355493       5.96267433       4.28729844        5       1.00000000      -0.05437867       0.00089186      -0.42500798
Pt      10.33033780       5.85564086       4.34543599        5       0.00000000       0.05988819      -0.05384558       0.02401882
Pt       3.95224740       8.11503974       4.29390883        5       0.00000000       0.10978813      -0.16042920       0.06767696
Ni       6.44027308       8.20080146       4.27838793        5       1.00000000      -0.03494572      -0.03120643      -0.43034564
Pt       8.93608403       8.21039551       4.26786493        5       0.00000000      -0.11165105      -0.00375006      -0.11221432
Pt      11.62614209       8.17357588       4.26354271        5       0.00000000       0.01114882      -0.15379765      -0.13484272
Pt      -0.00049638       0.04923197       6.50309110        8       0.00000000       0.00673682       0.22957247       0.14304655
Pt       2.56014409       0.04594278       6.53442332        8       0.00000000       0.05792306      -0.11209052       0.23036495
Pt       5.17604715       0.03105809       6.42257058        7       0.00000000      -0.04590400       0.13083870       0.78729040
Pt       7.74463296      -0.03455774       6.46494600        8       0.00000000       0.07558718       0.09921571       0.81785670
Ni       1.28199965       2.32295615       6.47923591        8       1.00000000      -0.02888342       0.16969956      -0.30741706
Pt       3.82614555       2.32535847       6.42225104        7       0.00000000       0.06904156       0.12240330       0.32908936
Ni       6.45797218       2.28300600       6.42703762        7       1.00000000      -0.06181918       0.01337703       0.03636064
Pt       9.06419549       2.36927453       6.41555343        7       0.00000000       0.08286029      -0.02198082       0.53977354
Ni       2.52714637       4.53121113       6.47924855        8       1.00000000      -0.07427617       0.01241143      -0.47667376
Pt       5.11386002       4.51307181       6.50964862        8       0.00000000      -0.14586163       0.01136969      -0.09198627
Ni       7.73759048       4.47672905       6.42112969        7       1.00000000      -0.04141453       0.04822416      -0.08165597
Ni      10.37610659       4.47746414       6.50115577        8       1.00000000       0.15917187      -0.07060952      -0.20735369
Ni       3.82254587       6.68770491       6.50054473        8       1.00000000      -0.10957380      -0.07741833      -0.28303080
Pt       6.42690775       6.70202431       6.40311072        7       0.00000000       0.04388768       0.01982842       0.26029735
Pt       9.07141917       6.62183369       6.55795428        9       0.00000000      -0.02518040      -0.05361226       0.20090748
Ni      11.64417409       6.66330193       6.51850236        8       1.00000000       0.07644451      -0.02976735      -0.25435755
