64
Lattice="10.170356868579935 0.0036885085972681525 -0.013355615670471385 5.088372776437276 8.792759444753573 -0.02493047650550521 0.0 0.0 21.519874448966565" Properties=species:S:1:pos:R:3:tags:I:1:initial_magmoms:R:1:forces:R:3 unique_id=43fd974b2484402695a13d361100096b energy=-369.6610276561255 stress="0.0037167214645428687 7.661553365923706e-07 -1.77252360416112e-05 7.661553365923706e-07 0.0035004782829533097 -0.00017537276413282657 -1.77252360416112e-05 -0.00017537276413282657 -0.002888686818392483" pbc="T T T"
Ni       0.03958826      -0.03710193       0.16855771        2       1.00000000       0.12627860      -0.00342283      -0.46347546
Ni       2.52719337      -0.02839887       0.18661360        2       1.00000000       0.07224843       0.00964410      -0.20804089
Ni       5.09793683      -0.00827962       0.06588758        1       1.00000000      -0.06112812       0.04089951       0.14174939
Ni       7.59566639      -0.00328615       0.14140154        1       1.00000000      -0.06173649       0.11562051      -0.66540196
Ni       1.27416869       2.20261808       0.09534507        1       1.00000000       0.02477930      -0.03651425       0.29622447
Pt       3.81366101       2.20027532       0.16519855        2       0.00000000      -0.03211259      -0.01155901      -0.63185981
Ni       6.35181466       2.20759400       0.08028093        1       1.00000000      -0.02098014       0.03325099       0.17552867
Pt       8.89953077       2.25746352       0.00000000        0       0.00000000       0.00320648       0.00193604      -0.27596869
Ni       2.54438872       4.41254968       0.04357329        0       1.00000000       0.13123910      -0.03504478       0.10722161
Ni       5.08835782       4.41736336       0.04632585        0       1.00000000      -0.12154113      -0.04961527       0.14803446
Ni       7.61934455       4.42286600       0.04582011        0       1.00000000       0.08874945       0.06324262       0.10320997
Ni      10.17331218       4.42006385       0.03149052        0       1.00000000      -0.10977028       0.08147231       0.04016360
Ni       3.84267517       6.56917763       0.03877285        0       1.00000000       0.11260903      -0.04141190       0.14964306
Ni       6.35317481       6.60774897       0.04829710        0       1.00000000       0.02850135       0.08917155       0.15251983
Ni       8.87248501       6.58091396       0.11491049        1       1.00000000      -0.13689790      -0.06956398      -0.18356860
Ni      11.43694537       6.58894483       0.00065347        0       1.00000000      -0.07365114      -0.01362680       0.03968822
Ni       1.31993492       0.74981692       2.15765786        4       1.00000000       0.10188047       0.17277674       0.05623043
Ni       3.76619113       0.73221638       2.18738351        4       1.00000000      -0.12614082      -0.03125183       0.14377629
Ni       6.32644184       0.77391920       2.12753777        3       1.00000000      -0.04897337       0.11431891      -0.06723228
Pt       8.96077448       0.76741374       2.15834563        4       0.00000000       0.07897938       0.02208083       0.03437958
Ni       2.54277707       2.89721746       2.20776133        4       1.00000000       0.02188245      -0.08110266       0.19108102
Ni       5.08512373       2.93463438       2.18162340        4       1.00000000       0.01759558       0.08850096       0.06178713
Ni       7.62034021       2.95386670       2.15527866        4       1.00000000       0.03394450       0.03288536       0.06081186
Ni      10.17620687       2.92877052       2.17106237        4       1.00000000      -0.00903808      -0.03924145       0.12283672
Ni       3.83107048       5.07987641       2.16171124        4       1.00000000      -0.00025611      -0.16206955       0.03445189
Pt       6.35828069       5.15057225       2.11699853        3       0.00000000       0.00579685       0.01124493       0.02396702
Ni       8.88104895       5.09681234       2.15952171        4       1.00000000      -0.01297484      -0.11542631       0.07388802
Pt      11.42940380       5.05847987       2.11887937        3       0.00000000      -0.04112156      -0.10658924      -0.00210634
Ni       5.12085067       7.31115314       2.11431247        3       1.00000000      -0.00091049      -0.01099153      -0.02103604
Ni       7.60919511       7.34096070       2.12330132        3       1.00000000      -0.03797498      -0.01997354       0.01103548
Pt      10.09468240       7.35904691       2.15989369        4       0.00000000      -0.01686359       0.03593226       0.08926449
Pt      12.73069806       7.28839412       2.09701727        3       0.00000000       0.06364392      -0.02472344       0.05518115
Ni       0.02799007       1.48192393       4.33144462        6       1.00000000       0.09287169      -0.08911766      -0.10462781
Ni       2.51589930       1.46520475       4.27288032        6       1.00000000      -0.00711359      -0.08246339      -0.21760328
Pt       5.03242061       1.40714948       4.24035758        5       0.00000000      -0.09729143      -0.08184904      -0.00910980
Pt       7.65093729       1.50010651       4.31174763        6       0.00000000       0.05793415      -0.04661990      -0.06347387
Pt       1.26550374       3.64362345       4.36279316        7       0.00000000       0.00529225      -0.02402682       0.03889397
Ni       3.79350053       3.71480916       4.28076533        6       1.00000000      -0.01209302       0.06163589      -0.22287114
Pt       6.34051929       3.73262415       4.35432835        7       0.00000000      -0.06462598       0.04295913       0.04123033
Ni       8.91604240       3.71034527       4.31081655        6       1.00000000      -0.00704196       0.15752618      -0.15201558
Ni       2.53362376       5.81965524       4.35671227        7       1.00000000      -0.07954735      -0.05726247      -0.06058022
Ni       5.05461611       5.82910237       4.33509969        6       1.00000000      -0.00114216      -0.01327670      -0.08016624
Ni       7.66746166       5.84816154       4.29814307        6       1.00000000       0.15007317      -0.00010836      -0.17610239
Ni      10.16386141       5.85510772       4.30487070        6       1.00000000      -0.00628165      -0.04772601      -0.14862333
Pt       3.80299615       7.96080781       4.31161790        6       0.00000000      -0.05908462      -0.02415655       0.01981218
Pt       6.41596089       8.02262587       4.21136088        5       0.00000000       0.08164774      -0.04077498       0.00502649
Ni       8.91593272       8.01861587       4.29087697        6       1.00000000      -0.00938824      -0.06681561      -0.08624366
Ni      11.40005141       7.99292711       4.31308528        6       1.00000000      -0.02781869      -0.13361462      -0.03607584
Pt      -0.01885014       0.00283213       6.51987445       10       0.00000000      -0.12555076       0.11089695       0.43791330
Pt       2.57294505      -0.00454907       6.49344599       10       0.00000000       0.07480194       0.08898412       0.27046539
Ni       5.08445508      -0.02499137       6.44275845        9       1.00000000      -0.10164190       0.02515453      -0.03868345
Pt       7.53102008      -0.03730169       6.51793214       10       0.00000000       0.06035914      -0.02205933       0.51931327
Ni       1.23750165       2.23082948       6.45376829       10       1.00000000       0.04957431      -0.05751048       0.01981883
Pt       3.81283886       2.29302448       6.39584628        9       0.00000000      -0.09154230       0.19034059       0.66633920
Ni       6.36255824       2.22726317       6.46776695       10       1.00000000      -0.01491808       0.08578987       0.00032853
Ni       8.90745031       2.26133187       6.34537184        8       1.00000000       0.07566783       0.08078735       0.40899228
Ni       2.52734027       4.44296090       6.44146860        9       1.00000000       0.05556171       0.02764560      -0.11898210
Ni       5.08330174       4.44318831       6.44749290        9       1.00000000      -0.06715505       0.04211395      -0.04180500
Ni       7.62113579       4.37015511       6.44587300        9       1.00000000       0.09489086      -0.01903349      -0.07555361
Ni      10.17802660       4.36430216       6.43024474        9       1.00000000      -0.04676194      -0.02009529      -0.12822921
Ni       3.80508532       6.50739936       6.43880934        9       1.00000000      -0.02699039       0.00808150      -0.10195774
Ni       6.32969374       6.51937761       6.43061097        9       1.00000000       0.04462202       0.00915224      -0.21394483
Pt       8.93378698       6.50475788       6.42586637        9       0.00000000      -0.03047420      -0.07044990       0.01255724
Ni      11.45241606       6.53574373       6.40281702        9       1.00000000       0.03390326      -0.09495656      -0.15802620
