64
Lattice="10.245617699614217 -0.016073904768930943 0.01364743693299933 5.108888439939203 8.927856559384987 0.08081859090791846 0.011143085594220727 0.06976303476848054 8.82234857439988" Properties=species:S:1:pos:R:3:tags:I:1:initial_magmoms:R:1:forces:R:3 unique_id=cfe9147ebab948b2b05bb323bf88c0fa stress="0.00031150192112312097 -3.338838356665428e-06 5.932296557624264e-06 -3.338838356665428e-06 0.000313974589529413 -2.292910647254055e-05 5.932296557624264e-06 -2.292910647254055e-05 0.00029411836508180106" energy=-398.44756548403166 pbc="T T T"
Pt       0.08797784       0.09418987       0.05857499        4       0.00000000      -0.01771778       0.04967062      -0.12929564
Ni       2.56180638       0.03849815       0.07171241        4       1.00000000      -0.03684547       0.21201361       0.10374335
Pt       5.03014849      -0.05020187       0.09134044        4       0.00000000      -0.04362825       0.04478117      -0.11773878
Pt       7.68232754      -0.00696807       0.21227470        4       0.00000000      -0.01764228       0.00983089       0.32255921
Ni       1.28382231       2.24036899       0.12289841        4       1.00000000       0.00090127       0.04787232       0.21524784
Ni       3.77523680       2.19722970       0.09964031        4       1.00000000      -0.18302400      -0.05212514       0.18079099
Pt       6.40131201       2.21936287       0.09317251        4       0.00000000      -0.05363013       0.02789585      -0.08722000
Ni       9.01870436       2.25165320       0.21772481        4       1.00000000       0.11399214       0.09939851       0.39705320
Pt       2.45037433       4.40787180       0.13205175        4       0.00000000      -0.02567694      -0.00911122      -0.13951454
Pt       5.08736030       4.45510316       0.06576001        4       0.00000000      -0.04963502      -0.00713216      -0.10761922
Pt       7.76697394       4.48193449       0.13735830        4       0.00000000       0.05802604       0.05660188       0.09000150
Ni      10.25521782       4.45196801       0.12966226        4       1.00000000       0.01056985      -0.01443121       0.14700362
Pt       3.78657425       6.68891809       0.20775924        4       0.00000000      -0.06055589       0.01891857       0.34048653
Ni       6.43334775       6.73192147       0.22278179        4       1.00000000       0.02013362       0.10309839       0.37264228
Ni       8.97844671       6.69283979       0.13057238        4       1.00000000       0.06792619      -0.04518981       0.07643676
Ni      11.45467527       6.65830974       0.17458568        4       1.00000000      -0.18948863      -0.08168418       0.25808729
Ni       1.30446770       0.83561632       2.21920245        3       1.00000000       0.11410645       0.14522625       0.00312181
Ni       3.83669941       0.76822336       2.24033886        3       1.00000000       0.01128683       0.01717010       0.10873206
Ni       6.40815047       0.74539605       2.28163723        3       1.00000000      -0.04141835       0.09634596       0.00566432
Ni       8.94453562       0.80173080       2.27538123        3       1.00000000      -0.10825048       0.08254616       0.09984299
Ni       2.51473117       2.98500719       2.25778324        3       1.00000000      -0.11848454       0.03678118       0.09588809
Pt       5.06436018       2.91978166       2.35424442        3       0.00000000      -0.04967604       0.05678275      -0.01134643
Ni       7.71933726       2.92267967       2.30278528        3       1.00000000       0.03219771      -0.05010472       0.09841502
Ni      10.27583524       2.96536532       2.23163486        3       1.00000000       0.18275046       0.07649080      -0.06645904
Ni       3.75771284       5.19432643       2.32067074        3       1.00000000      -0.12730186      -0.12464810       0.09330231
Pt       6.41009371       5.18746851       2.32131466        3       0.00000000       0.10225843      -0.13169466      -0.11856882
Pt       9.07782402       5.17397072       2.30778642        3       0.00000000       0.06350270      -0.06452292      -0.08982594
Ni      11.56303246       5.20726238       2.30043617        3       1.00000000       0.15095976      -0.05408276       0.18389002
Pt       5.04995546       7.52819673       2.33901056        3       0.00000000      -0.10740210       0.11578746      -0.12212380
Pt       7.75903200       7.52593883       2.25984847        3       0.00000000       0.15068123       0.02895893       0.05022452
Ni      10.28756174       7.45418962       2.29293457        3       1.00000000       0.11001329      -0.03307313       0.00663433
Ni      12.74457354       7.41754613       2.34919830        3       1.00000000      -0.02991816      -0.14117645       0.08337976
Pt      -0.03444550       1.57948802       4.32520281        2       0.00000000      -0.02690484       0.12132974      -0.01497447
Pt       2.64193109       1.58183451       4.41360677        2       0.00000000       0.05958142       0.02553283      -0.02797847
Ni       5.14806298       1.52728623       4.44869862        2       1.00000000       0.04439522      -0.06293498       0.07681945
Ni       7.65576544       1.55525992       4.36333691        2       1.00000000      -0.02853821       0.03943980      -0.08918359
Ni       1.30520657       3.77620883       4.42952910        2       1.00000000       0.03439273      -0.00111380      -0.12097348
Ni       3.82376708       3.74807592       4.45369374        2       1.00000000      -0.09853670       0.00892712      -0.00533054
Ni       6.40361662       3.67954567       4.44167650        2       1.00000000       0.01778633      -0.16086606      -0.10417978
Ni       8.95366734       3.73222424       4.40006089        2       1.00000000      -0.03422251      -0.06234549      -0.10513750
Ni       2.53294610       5.94600522       4.40755646        2       1.00000000      -0.01733287      -0.08416410      -0.15452728
Pt       5.07926304       5.89223478       4.43221455        2       0.00000000      -0.02028326       0.05460884       0.13477997
Ni       7.70422984       5.98390082       4.43650311        2       1.00000000       0.04709123       0.07813122      -0.10012510
Pt      10.25646388       5.93766769       4.50963205        2       0.00000000       0.00082149      -0.06067623       0.10029699
Ni       3.80684581       8.23657534       4.44304199        2       1.00000000      -0.13779116       0.07080956       0.03407670
Pt       6.43335727       8.23469973       4.48241189        2       0.00000000       0.07898754      -0.02808050       0.08924734
Ni       8.97743734       8.22275028       4.50296766        2       1.00000000       0.03466232       0.03108051      -0.01796828
Pt      11.50168700       8.23459045       4.39509108        2       0.00000000       0.09251661       0.07000129       0.12973350
Ni       0.03762508       0.06456972       6.47049431        1       1.00000000       0.00122423       0.01642536      -0.30757365
Ni       2.60818612       0.07568716       6.56020312        1       1.00000000       0.14372945       0.09844080      -0.08046410
Ni       5.07596874       0.04519956       6.46095051        1       1.00000000      -0.13623166       0.02774144      -0.24499832
Pt       7.63999087       0.05712453       6.49524868        1       0.00000000      -0.19086917       0.01775982      -0.14337397
Ni       1.32946745       2.29142809       6.57155814        1       1.00000000       0.16716908      -0.00344600      -0.07734940
Ni       3.85618627       2.28037166       6.55750738        1       1.00000000       0.07806031       0.00189206      -0.05556569
Ni       6.35144591       2.27420865       6.45759231        1       1.00000000      -0.08844059      -0.02907947      -0.25745483
Pt       9.02494123       2.28652041       6.60022688        1       0.00000000       0.18747745      -0.03547417       0.15374601
Ni       2.53787195       4.46259063       6.48260159        1       1.00000000      -0.05455453      -0.19182622      -0.28471210
Ni       5.09566087       4.43946589       6.48563720        1       1.00000000      -0.07348262      -0.25847514      -0.25990274
Pt       7.69158754       4.49967430       6.45749763        1       0.00000000       0.00926912      -0.02407094      -0.37646796
Ni      10.29660618       4.51033297       6.59985231        1       1.00000000       0.15969957      -0.10190334      -0.03500407
Pt       3.76867891       6.68820975       6.53147269        1       0.00000000      -0.14281924      -0.16706859      -0.23586133
Pt       6.45533562       6.77365836       6.66686790        1       0.00000000       0.00449314       0.05001798       0.18549320
Ni       9.00030288       6.76134942       6.60692612        1       1.00000000       0.05735271       0.06874529      -0.12589945
Ni      11.47926873       6.70408491       6.61488649        1       1.00000000      -0.09771261      -0.02655362      -0.02262266
