64
Lattice="10.472864225340004 -0.008543569540198184 0.055610886851960195 5.229033164409193 9.098284700091734 0.005805319367238586 0.0 0.0 21.75838687410973" Properties=species:S:1:pos:R:3:tags:I:1:initial_magmoms:R:1:forces:R:3 unique_id=81de712397f8450caa85fb05d23e4eed energy=-385.0779226407604 stress="0.007727053171356941 -5.3500427597188125e-05 0.0003630933304182537 -5.3500427597188125e-05 0.007704457034756963 -0.00017836477597673637 0.0003630933304182537 -0.00017836477597673637 -0.0006457509707032839" pbc="T T T"
Pt      -0.07512891       0.03160513       0.00000000        0       0.00000000      -0.15665773      -0.11064758       0.12394328
Ni       2.64032298      -0.02236625       0.03015507        0       1.00000000       0.06459076      -0.08348659       0.38897067
Ni       5.25488953      -0.05261416       0.12101111        1       1.00000000       0.11700756       0.03015835      -0.04709899
Ni       7.85614605      -0.04755037       0.09620571        1       1.00000000      -0.09569370      -0.12864892       0.57268291
Ni       1.28604342       2.26540853       0.09258009        1       1.00000000      -0.01150070       0.01523566      -0.25332255
Pt       3.90815167       2.19452068       0.07716496        1       0.00000000       0.25300623       0.10876485      -0.90612139
Pt       6.60985774       2.15850389       0.12317951        1       0.00000000      -0.15044058      -0.13378156      -0.12941930
Ni       9.18280026       2.25875125       0.06018723        1       1.00000000       0.00627858      -0.04277456       0.32690316
Pt       2.55091391       4.59634432       0.05731211        1       0.00000000       0.07655278       0.03994488      -1.03491967
Pt       5.26917946       4.54556418       0.12154332        1       0.00000000       0.22428252      -0.20858838      -0.61355233
Pt       7.96535381       4.55483239       0.13221103        1       0.00000000       0.01617128       0.07848903      -0.02495307
Ni      10.47208639       4.55374910       0.05502592        1       1.00000000       0.04553040       0.11446373       0.32878518
Ni       3.89918613       6.86742958       0.12280040        1       1.00000000      -0.07943629       0.12071019       0.02082059
Pt       6.58908144       6.87687627       0.17507567        2       0.00000000       0.00749296      -0.01186814      -0.28389314
Ni       9.19761235       6.83499101       0.06194581        1       1.00000000       0.05080454      -0.02301431       0.46161296
Ni      11.77502367       6.85073964       0.14054055        1       1.00000000       0.12559952       0.05317746       0.03905396
Pt       1.29168027       0.67196737       2.17618168        3       0.00000000       0.02585389      -0.10773521       0.12006974
Pt       4.00436074       0.72341296       2.25607542        4       0.00000000       0.03144789      -0.08399816       0.23807661
Ni       6.59650653       0.72900500       2.26773774        4       1.00000000       0.11291330      -0.08400287       0.16550365
Ni       9.11991877       0.71912521       2.25429825        4       1.00000000      -0.13259464      -0.01026405       0.03150305
Pt       2.62625988       3.03019054       2.22634437        3       0.00000000      -0.08280552       0.03260032       0.36449646
Ni       5.28273994       3.01192849       2.27025600        4       1.00000000       0.04470282      -0.00494178       0.33007891
Pt       7.81041949       3.00970823       2.37151964        5       0.00000000      -0.02615091      -0.03287570       0.15906576
Pt      10.40045247       3.01927803       2.19345151        3       0.00000000      -0.13581149      -0.02103637       0.02357543
Pt       3.98009659       5.39348789       2.21827871        3       0.00000000       0.01816292       0.18949749       0.19530766
Ni       6.60808943       5.31085616       2.27378763        4       1.00000000       0.15287325      -0.00172414       0.34309457
Ni       9.13411974       5.32612227       2.29999646        4       1.00000000      -0.12939661       0.06519915       0.26299829
Pt      11.71421385       5.34509241       2.26284376        4       0.00000000      -0.18027620      -0.00492169       0.20017688
Ni       5.22498932       7.59005563       2.21440646        3       1.00000000      -0.05398511       0.07698375       0.22778873
Ni       7.87164541       7.52387117       2.25601931        4       1.00000000       0.09460702      -0.11631172       0.23738874
Pt      10.46344368       7.56322867       2.18088045        3       0.00000000      -0.07872294       0.04421571       0.11129374
Ni      13.11108126       7.63533116       2.21985758        3       1.00000000      -0.00418927       0.16462936       0.00748768
Pt      -0.09968648       1.55345110       4.46049353        7       0.00000000      -0.18384480       0.07519021      -0.22365548
Pt       2.64203072       1.47821487       4.45459817        7       0.00000000      -0.10477723      -0.01518504      -0.21467317
Ni       5.31355942       1.51536009       4.42925707        6       1.00000000       0.05781638       0.02343614      -0.39455391
Ni       7.85378582       1.53223815       4.45745327        7       1.00000000      -0.04345887       0.04553236      -0.19515402
Pt       1.21189745       3.82306900       4.45711475        7       0.00000000      -0.14651109       0.05507328      -0.18707191
Pt       4.03987413       3.73536501       4.39152151        6       0.00000000       0.08329330       0.00689850      -0.35028372
Ni       6.61870467       3.75502742       4.44983698        6       1.00000000       0.06952078       0.02349480      -0.28437502
Ni       9.14073843       3.80657841       4.46562455        7       1.00000000      -0.11943675       0.04668084      -0.27335685
Pt       2.60007989       6.09399681       4.41240950        6       0.00000000      -0.01724051       0.04703411      -0.21520364
Pt       5.36058318       6.03038384       4.38136546        6       0.00000000       0.09217829      -0.06020220      -0.29128685
Ni       7.92263274       6.00146957       4.42644808        6       1.00000000       0.12102594      -0.14180496      -0.36205085
Ni      10.42194182       6.02927365       4.51207344        7       1.00000000      -0.11501712      -0.04179073      -0.05865999
Pt       3.92043868       8.37303196       4.38366094        6       0.00000000       0.01112965       0.00183276      -0.23873911
Pt       6.57081956       8.31183527       4.43305402        6       0.00000000      -0.07210551       0.10657592      -0.20980112
Pt       9.18236331       8.23166211       4.49543073        7       0.00000000      -0.01523523      -0.09178458      -0.06663631
Pt      11.79003734       8.40794122       4.43761732        6       0.00000000      -0.08805165       0.09964759      -0.15510897
Ni       0.00714503       0.00999226       6.60333956        8       1.00000000      -0.07366926      -0.02233869      -0.03705763
Ni       2.64029616      -0.02532145       6.69259929        9       1.00000000      -0.02837921       0.08079772      -0.19207713
Pt       5.23615205      -0.05195637       6.74967406        9       0.00000000       0.03158487       0.14812447       0.01049835
Ni       7.91067227       0.00224153       6.70877415        9       1.00000000       0.02430720       0.00966745      -0.42675487
Pt       1.23779979       2.21146497       6.73738597        9       0.00000000       0.01706403      -0.00445180       0.11995985
Pt       3.94974788       2.21066015       6.61631163        8       0.00000000       0.13002201      -0.05582421       0.93863394
Pt       6.66027439       2.20665231       6.57410847        8       0.00000000      -0.07407007       0.04955090       0.25719026
Ni       9.19154194       2.23712283       6.70889750        9       1.00000000      -0.04349404      -0.02132156      -0.32986471
Pt       2.60054855       4.52919853       6.61481484        8       0.00000000       0.05719728      -0.05998909       0.94151662
Pt       5.31099798       4.53856158       6.62153513        8       0.00000000       0.26938423       0.04272350       0.66258612
Pt       8.00076679       4.53749577       6.57599804        8       0.00000000      -0.16308366       0.00917159       0.10343353
Ni      10.47213640       4.53048443       6.70526406        9       1.00000000       0.06108916      -0.01789257      -0.24893243
Pt       3.94756233       6.90325971       6.72566740        9       0.00000000       0.12672496      -0.02974924      -0.00866734
Pt       6.65534483       6.87426354       6.65482567        9       0.00000000      -0.00123038      -0.15729883       0.31499321
Ni       9.19182561       6.79557817       6.68815230        9       1.00000000       0.07122730      -0.02422469      -0.25099610
Pt      11.72726641       6.79107714       6.75838687       10       0.00000000      -0.08417654      -0.05102215      -0.12124892
