64
Lattice="10.464945416118661 0.0016295681939141376 0.0477747193874795 5.233883955512458 9.08847711026101 -0.004708499722806821 0.0 0.0 21.74510745312789" Properties=species:S:1:pos:R:3:tags:I:1:initial_magmoms:R:1:forces:R:3 unique_id=8546b68cbe0549c1bbe78398d859420b stress="0.003934111713578121 -4.2085177939904233e-05 0.0002883978214524131 -4.2085177939904233e-05 0.0038013224313204995 -0.00024146897063425158 0.0002883978214524131 -0.00024146897063425158 -0.0034753743150087064" energy=-386.0267870298325 pbc="T T T"
Pt      -0.10929818      -0.01940742       0.00000000        0       0.00000000      -0.16198838      -0.09171965       0.08853715
Ni       2.64951027      -0.03332208       0.02481684        0       1.00000000       0.08245369      -0.04319310       0.35149666
Ni       5.25411220      -0.05223510       0.11089170        1       1.00000000       0.14278323       0.01777250      -0.06462102
Ni       7.84102789      -0.04396773       0.08455801        1       1.00000000      -0.15714944      -0.16266618       0.54219768
Pt       1.26179987       2.26325785       0.05078598        1       0.00000000       0.04070412       0.02359782      -1.04423430
Pt       3.95033444       2.19816987       0.07059517        1       0.00000000       0.19909864       0.12642144      -0.94287290
Pt       6.61287767       2.15997730       0.10986162        1       0.00000000      -0.14795068      -0.14085071      -0.11733978
Ni       9.15234946       2.25978219       0.04777118        0       1.00000000       0.04646455      -0.08045897       0.28601526
Pt       2.57775491       4.63007191       0.04562968        0       0.00000000       0.05938505      -0.00657069      -1.04741177
Pt       5.27725689       4.54749785       0.10865228        1       0.00000000       0.27771579      -0.17911860      -0.58672267
Pt       7.96343562       4.55342732       0.11724655        1       0.00000000      -0.01323982       0.10574395       0.00012449
Ni      10.46101882       4.58097029       0.04070516        0       1.00000000       0.08923076       0.13295887       0.27949441
Ni       3.89973979       6.85462697       0.10910114        1       1.00000000      -0.08719130       0.08776953      -0.00316092
Pt       6.59588329       6.86620015       0.15942890        2       0.00000000       0.01193441      -0.06559633      -0.26562792
Ni       9.19699432       6.83172762       0.04375142        0       1.00000000       0.04991167      -0.02382816       0.45045883
Ni      11.76926686       6.85809168       0.12037937        1       1.00000000       0.12375916       0.08832793       0.01105854
Pt       1.28584974       0.65008381       2.19767927        3       0.00000000       0.00234086      -0.16040669       0.15941744
Pt       4.00344188       0.72457181       2.24845428        3       0.00000000       0.02173607      -0.07284141       0.22978777
Ni       6.58958080       0.73222288       2.25790234        4       1.00000000       0.09804504      -0.08102542       0.18004906
Ni       9.10924631       0.72511331       2.24214000        3       1.00000000      -0.14636861      -0.00300388       0.04225988
Pt       2.64333532       3.03588344       2.23515511        3       0.00000000      -0.02404435       0.07466334       0.42051898
Ni       5.28298039       3.01098555       2.26190558        4       1.00000000       0.03594815       0.00280600       0.34644890
Pt       7.79433174       3.01044470       2.36005964        5       0.00000000      -0.06685766      -0.04365559       0.15527484
Pt      10.37218986       3.03952744       2.23443639        3       0.00000000      -0.23974397       0.02393428       0.07408577
Pt       3.98608284       5.39307849       2.21094662        3       0.00000000       0.03720013       0.18521286       0.20753546
Ni       6.60758314       5.30826339       2.26067656        4       1.00000000       0.14799825       0.00443027       0.36185918
Ni       9.12752856       5.33047068       2.28658231        4       1.00000000      -0.13873683       0.09027875       0.27210135
Pt      11.71170718       5.34859168       2.24545434        3       0.00000000      -0.15836640      -0.02585325       0.20814562
Ni       5.22533642       7.57442888       2.20308321        3       1.00000000      -0.05707836       0.04946283       0.24501730
Ni       7.87472953       7.51396352       2.24175139        3       1.00000000       0.09767362      -0.12735393       0.24597932
Pt      10.46049253       7.55970403       2.16218373        3       0.00000000      -0.08514374       0.04486408       0.12405857
Ni      13.10593398       7.63449322       2.20050606        3       1.00000000      -0.00250729       0.16280182       0.02509689
Pt      -0.11387648       1.54186814       4.44708754        6       0.00000000      -0.24965931       0.04778891      -0.27535769
Pt       2.64999278       1.46996350       4.44161291        6       0.00000000      -0.01640176      -0.05556021      -0.28421450
Ni       5.30862603       1.51453476       4.42097471        6       1.00000000       0.07108456       0.03139895      -0.39227289
Ni       7.84210403       1.53434076       4.44669664        6       1.00000000      -0.07084796       0.04208138      -0.19575811
Pt       1.21136466       3.82543922       4.44870186        6       0.00000000      -0.14730935       0.10885565      -0.22300569
Pt       4.04136822       3.73107862       4.38757090        6       0.00000000       0.09307409       0.00472524      -0.35202430
Ni       6.61458098       3.75237201       4.44183079        6       1.00000000       0.06846714       0.02139407      -0.27601971
Ni       9.13003060       3.80934647       4.45467716        7       1.00000000      -0.12297036       0.04731243      -0.25376646
Pt       2.60197027       6.08453084       4.40403257        6       0.00000000      -0.01130994       0.04351991      -0.21967106
Pt       5.36099581       6.02070305       4.37344226        6       0.00000000       0.08449131      -0.06194776      -0.28422893
Ni       7.91899546       5.99527471       4.41410785        6       1.00000000       0.12065179      -0.14498243      -0.35398770
Ni      10.41647315       6.02769035       4.49630636        7       1.00000000      -0.11099648      -0.03692474      -0.06569447
Pt       3.92061071       8.35635132       4.37149157        6       0.00000000       0.00443955      -0.00392766      -0.23879213
Pt       6.57219926       8.29725328       4.42575712        6       0.00000000      -0.06548392       0.13053396      -0.20706733
Pt       9.18233388       8.22031387       4.47876489        7       0.00000000      -0.01076143      -0.10014187      -0.07201173
Pt      11.78499710       8.40274540       4.41970340        6       0.00000000      -0.07881521       0.09041902      -0.15469617
Ni       0.00167271       0.00523886       6.60175092        8       1.00000000      -0.06835765      -0.01747779      -0.03847709
Ni       2.63790882      -0.03037885       6.68570293        9       1.00000000      -0.03814334       0.09573943      -0.17647252
Pt       5.22804066      -0.05178679       6.74510745        9       0.00000000       0.03008986       0.15720661       0.01442712
Ni       7.89926870       0.00458786       6.70166200        9       1.00000000       0.03395907       0.01462930      -0.42379750
Pt       1.23896109       2.20632606       6.62053645        8       0.00000000       0.03924553       0.00103373       0.88297150
Pt       3.94767562       2.20685886       6.61270172        8       0.00000000       0.10551054      -0.03704683       0.92465868
Pt       6.65320400       2.20432989       6.56813164        8       0.00000000      -0.06967162       0.05156746       0.25844451
Ni       9.18149549       2.23631187       6.69647736        9       1.00000000      -0.03647680      -0.01741822      -0.32764272
Pt       2.60182917       4.52402949       6.60709701        8       0.00000000       0.06939775      -0.09884663       0.96476145
Pt       5.30876664       4.53307995       6.61510592        8       0.00000000       0.26298676       0.03896748       0.68829880
Pt       7.99444049       4.53340933       6.56744205        8       0.00000000      -0.13902743      -0.00167439       0.10540242
Ni      10.46448910       4.53337747       6.69048647        9       1.00000000       0.05260879      -0.02658845      -0.23598613
Pt       3.94699979       6.89292011       6.71764531        9       0.00000000       0.13705936      -0.02431044       0.00911184
Pt       6.65272854       6.86474740       6.64649114        8       0.00000000       0.00190287      -0.14216515       0.33457660
Ni       9.18787407       6.78939721       6.67506879        9       1.00000000       0.06644678      -0.02509718      -0.24929379
Pt      11.72109453       6.78646775       6.74402270        9       0.00000000      -0.08319954      -0.04596751      -0.11744236
