64
Lattice="10.294238695495935 0.00966553875327774 -0.034637761153477505 5.155489949849569 8.814107366117407 -0.10543435836090975 -0.02828161355280562 -0.0830760691582401 8.757328251277798" Properties=species:S:1:pos:R:3:tags:I:1:initial_magmoms:R:1:forces:R:3 unique_id=708c1e78e0484c3c9f6132ab19ac1feb stress="-8.509610803111856e-05 7.4546230127332e-08 -2.778328484815347e-06 7.4546230127332e-08 -5.562535016093856e-05 2.5840901837420395e-05 -2.778328484815347e-06 2.5840901837420395e-05 -2.6935359828873795e-05" energy=-395.10783813910075 pbc="T T T"
Ni       0.01448534      -0.07050853       0.18133765        4       1.00000000       0.07396090      -0.12974817       0.28001600
Ni       2.53625860      -0.05543141       0.18766098        4       1.00000000      -0.07146829      -0.08002855       0.32240660
Pt       5.14601154      -0.07569682       0.13195346        4       0.00000000      -0.03918864      -0.25925126       0.32227483
Ni       7.73519785      -0.05935205       0.14772527        4       1.00000000      -0.01402688      -0.11934486       0.32604413
Pt       1.27784536       2.20685610       0.08519274        4       0.00000000       0.03699580      -0.02587994      -0.02275858
Pt       3.82821334       2.21995688       0.15987116        4       0.00000000      -0.07589297       0.04955032       0.25523938
Pt       6.45515462       2.21972866       0.06076545        4       0.00000000       0.00586160       0.04630568       0.00080717
Pt       9.01925601       2.25159123       0.07740475        4       0.00000000      -0.04005736       0.09206193       0.14787111
Ni       2.54618986       4.46445315       0.04898139        4       1.00000000      -0.03233237       0.07891962       0.19258881
Pt       5.14084087       4.52770850       0.03617538        4       0.00000000      -0.07401453       0.20810049      -0.07584409
Ni       7.72770130       4.46401931       0.00620830        4       1.00000000      -0.08793782       0.14568249       0.12380627
Ni      10.31691203       4.46253296      -0.00033196        4       1.00000000       0.08673278       0.13759072       0.11247745
Ni       3.83771763       6.63695862       0.02712698        4       1.00000000      -0.10092296       0.12337827       0.20877055
Ni       6.45136939       6.64581560       0.02651992        4       1.00000000       0.04060380       0.10159588       0.20144370
Ni       8.98003248       6.57483985       0.06055609        4       1.00000000      -0.10338885      -0.06167184       0.26521243
Ni      11.62551408       6.56287670      -0.01913303        4       1.00000000       0.09914694      -0.15237788       0.09074319
Ni       1.30671014       0.70450493       2.22583512        3       1.00000000       0.01451916       0.01603687       0.16413795
Ni       3.79192755       0.72540826       2.20136006        3       1.00000000      -0.18769570      -0.05879460      -0.05687748
Ni       6.45322275       0.73146265       2.20086042        3       1.00000000       0.10154671      -0.07911375      -0.01998125
Pt       9.01895209       0.71499511       2.18699141        3       0.00000000       0.11747607       0.18054774      -0.09634932
Ni       2.54841712       2.94843083       2.24891631        3       1.00000000      -0.04286334       0.05093139       0.16069380
Ni       5.13250850       2.95536275       2.19043031        3       1.00000000      -0.08587245       0.25135771      -0.00327624
Ni       7.69954187       2.92830448       2.19316985        3       1.00000000       0.02815460      -0.09873407       0.00914452
Ni      10.34093116       2.93764521       2.21430250        3       1.00000000       0.16872744      -0.02818857       0.17918473
Ni       3.81777198       5.12518054       2.15064362        3       1.00000000      -0.13607554      -0.01233722       0.07463684
Ni       6.42938417       5.14976509       2.12687836        3       1.00000000       0.02717155       0.07632827      -0.00094997
Pt       8.98284232       5.07415920       2.13746570        3       0.00000000       0.00504743      -0.09206849       0.06612610
Ni      11.62820908       5.09228134       2.12161804        3       1.00000000       0.11770562      -0.21169705       0.12224188
Ni       5.17437816       7.29408579       2.07902120        3       1.00000000       0.01688680      -0.12828993      -0.02173406
Ni       7.65599146       7.33599418       2.07416513        3       1.00000000      -0.12763496      -0.09591347       0.02094249
Pt      10.37087942       7.27438367       2.14093372        3       0.00000000       0.18353646      -0.07301603      -0.10509033
Ni      12.88304957       7.27913293       2.05914316        3       1.00000000       0.11250299      -0.21084900      -0.00809718
Ni       0.04225676       1.46715239       4.30999375        2       1.00000000       0.11273614       0.05489534      -0.09729088
Ni       2.49841935       1.46972511       4.27580087        2       1.00000000      -0.05076183       0.09681646      -0.13634026
Pt       5.14234259       1.44454867       4.20734556        2       0.00000000      -0.14921042       0.00449834       0.01506618
Ni       7.71520227       1.44088165       4.28536020        2       1.00000000       0.03894737      -0.03677678      -0.08084304
Ni       1.28066722       3.63859881       4.31136602        2       1.00000000       0.03487636       0.04868832      -0.10648705
Ni       3.77956573       3.66859541       4.25617960        2       1.00000000      -0.13615834       0.06396355      -0.20284144
Pt       6.50037005       3.64835568       4.28126779        2       0.00000000       0.06565760      -0.03398127      -0.07429209
Ni       9.05270340       3.66503855       4.25788805        2       1.00000000       0.21524896       0.01926858      -0.09304092
Ni       2.52170277       5.79090098       4.29276537        2       1.00000000      -0.07832869      -0.10046797      -0.15115695
Pt       5.13162613       5.83119480       4.26415706        2       0.00000000      -0.00100014      -0.04473404      -0.13794276
Ni       7.71038046       5.82502535       4.26412187        2       1.00000000      -0.02847722       0.02221028      -0.08020576
Ni      10.33621661       5.78587823       4.28136063        2       1.00000000       0.13408190      -0.12205898       0.00728037
Pt       3.82331189       8.02384923       4.20406858        2       0.00000000      -0.06851864      -0.03959383       0.12765160
Ni       6.41946095       8.05453263       4.19191345        2       1.00000000      -0.14182197       0.06863654      -0.18761941
Pt       8.92490419       8.00073924       4.16045970        2       0.00000000      -0.15675467      -0.02905652       0.03029986
Ni      11.59448968       7.99260410       4.21034302        2       1.00000000       0.03184174      -0.11231741       0.02537572
Pt      -0.00947278      -0.09560592       6.52058050        1       0.00000000       0.09703773      -0.04265854       0.11209792
Pt       2.53077453      -0.05116972       6.50500103        1       0.00000000      -0.09326034       0.05235470       0.16642472
Pt       5.14992526      -0.06941624       6.41533698        1       0.00000000       0.04536025       0.04118452      -0.37689321
Pt       7.69682354      -0.09256278       6.49749461        1       0.00000000      -0.07612870      -0.00813859       0.14673805
Ni       1.26413226       2.20732925       6.36163295        1       1.00000000       0.01369007       0.13846741      -0.28677737
Pt       3.81205595       2.27407433       6.37977440        1       0.00000000      -0.01326014       0.25572795      -0.22224742
Ni       6.42418532       2.19515336       6.37981920        1       1.00000000      -0.01701887       0.05595058      -0.24068738
Pt       9.00445742       2.25201224       6.31653210        1       0.00000000       0.03952236       0.13157877      -0.32935512
Ni       2.52462093       4.40094968       6.40564524        1       1.00000000      -0.06926254       0.16057847      -0.22984223
Ni       5.14019698       4.39105310       6.36390519        1       1.00000000       0.00457876       0.10129785      -0.21614885
Ni       7.67142080       4.36030714       6.42157660        1       1.00000000      -0.13844677       0.00360402      -0.09974550
Ni      10.34187459       4.35942650       6.38150599        1       1.00000000       0.29316250      -0.01406104      -0.24184009
Ni       3.83210815       6.48712771       6.42590804        1       1.00000000      -0.04858169      -0.14880280      -0.07819762
Ni       6.41011673       6.50349266       6.41199190        1       1.00000000       0.01955801      -0.04436048      -0.10113115
Pt       8.99755642       6.42657599       6.41454726        1       0.00000000       0.04983316      -0.12153202       0.10738646
Ni      11.59887477       6.48933970       6.36701678        1       1.00000000       0.05365405      -0.06226413      -0.20324576
