64
Lattice="10.182635920958127 0.023294026317333766 -0.040705273977908366 5.111491179026298 8.789993315113842 -0.08096168801217858 -0.033235717028688355 -0.05714276130640467 8.714261518692497" Properties=species:S:1:pos:R:3:tags:I:1:initial_magmoms:R:1:forces:R:3 unique_id=cdd08b297fc741d5839b93cbb5baf54f stress="-6.581656329032737e-05 -3.7983427322042977e-06 1.5249185269502957e-05 -3.7983427322042977e-06 -5.400778212204249e-05 1.1317278989860213e-05 1.5249185269502957e-05 1.1317278989860213e-05 -2.6970195155164023e-05" energy=-392.42066437380186 pbc="T T T"
Ni       0.03737798      -0.04910496       0.17798697        4       1.00000000       0.07981082      -0.09890887       0.28304540
Ni       2.50993854      -0.03711116       0.10498297        4       1.00000000      -0.09304144      -0.08619881       0.17480621
Ni       5.08041662      -0.02671183       0.14650662        4       1.00000000      -0.08461957      -0.04314480       0.27334817
Ni       7.62816772      -0.05073951       0.14488810        4       1.00000000      -0.03684066      -0.08457654       0.28462294
Ni       1.27386096       2.19428559       0.08482973        4       1.00000000       0.00023683      -0.02639620       0.23365235
Pt       3.73511312       2.16469550       0.15088973        4       0.00000000      -0.12730243      -0.04810188       0.21698117
Pt       6.37525224       2.16897304       0.05850485        4       0.00000000       0.01891289      -0.04089217      -0.06838979
Pt       8.98667338       2.25235346       0.07207500        4       0.00000000       0.04040041       0.01111867       0.22626597
Ni       2.51943200       4.41988927       0.02040835        4       1.00000000      -0.04023216       0.03952931       0.01417631
Pt       5.08877185       4.49656234       0.03672140        4       0.00000000      -0.07860472       0.12372220      -0.12367813
Ni       7.65249064       4.45103400       0.00615331        4       1.00000000      -0.05633306       0.09266491       0.09211467
Ni      10.22063998       4.44088819      -0.01357455        4       1.00000000       0.07529426       0.13806712       0.02719677
Ni       3.80597573       6.62694873       0.04130618        4       1.00000000      -0.06776420       0.09388884       0.15740288
Ni       6.39316606       6.63832194       0.03305301        4       1.00000000       0.00021671       0.04946746       0.10393574
Ni       8.89792376       6.60392865       0.06806339        4       1.00000000      -0.11279146       0.02502092       0.21252032
Ni      11.49030856       6.60114719      -0.02534184        4       1.00000000       0.03309699      -0.04403779       0.00665817
Ni       1.30005835       0.72095719       2.18793064        3       1.00000000       0.03029584      -0.01064225       0.09055659
Ni       3.75383996       0.72564955       2.17792281        3       1.00000000      -0.19128268      -0.05288134      -0.03071510
Ni       6.36951399       0.74210480       2.17018263        3       1.00000000       0.09225324      -0.00362189       0.04257493
Pt       8.92548432       0.72453816       2.18223098        3       0.00000000       0.11180515       0.11975100      -0.06929113
Ni       2.53354483       2.88905355       2.22787855        3       1.00000000       0.05554370      -0.10182228       0.18451489
Ni       5.07363562       2.95629623       2.17792312        3       1.00000000      -0.11540233       0.16202424      -0.09530568
Ni       7.61084349       2.92950804       2.18200545        3       1.00000000       0.00932273      -0.05954358      -0.01314826
Ni      10.23609754       2.91316378       2.18956940        3       1.00000000       0.11151663      -0.08660294       0.16152807
Ni       3.84823649       5.12668192       2.18235156        3       1.00000000       0.06564408       0.03347320       0.15071327
Ni       6.34011640       5.15825539       2.14524439        3       1.00000000      -0.03913624       0.11574987       0.00510850
Pt       8.85552128       5.09411168       2.13877447        3       0.00000000      -0.03122735      -0.04501937       0.03312892
Pt      11.52970877       5.08683416       2.13235967        3       0.00000000       0.10612205      -0.11103829       0.06502981
Ni       5.13318360       7.26933386       2.09899151        3       1.00000000       0.02613202      -0.10513708       0.00949170
Ni       7.57351445       7.34062552       2.08238582        3       1.00000000      -0.12422634      -0.00863654       0.00584934
Pt      10.22079495       7.36430356       2.07493448        3       0.00000000       0.06617420      -0.01529769       0.08738912
Ni      12.76544384       7.30688069       2.06533373        3       1.00000000       0.09784829      -0.12204860       0.03784111
Ni       0.04457421       1.46555317       4.29512456        2       1.00000000       0.08986702      -0.00394362      -0.04389946
Ni       2.45877896       1.46845294       4.27255616        2       1.00000000      -0.05956250       0.05283493      -0.09849360
Pt       5.08736725       1.45839092       4.20152615        2       0.00000000      -0.13555714       0.01183084       0.03687987
Ni       7.63508141       1.46023293       4.26374260        2       1.00000000       0.04348734      -0.03093186      -0.05747806
Ni       1.27085684       3.62208753       4.33070424        2       1.00000000       0.03975971      -0.02657763       0.00263206
Ni       3.76022423       3.70108833       4.25435792        2       1.00000000      -0.05463510       0.08330517      -0.17499613
Pt       6.38451774       3.71221895       4.26315561        2       0.00000000       0.00224507      -0.04045519      -0.10852820
Ni       8.94594903       3.67919030       4.24301818        2       1.00000000       0.11953566       0.01220826      -0.08466070
Ni       2.54132657       5.78882781       4.31920097        2       1.00000000      -0.00171539      -0.06791123      -0.00273017
Ni       5.08694849       5.83221114       4.27170893        2       1.00000000       0.02386793      -0.04029594      -0.14032585
Ni       7.59999406       5.84283336       4.25983049        2       1.00000000      -0.08376155       0.09640722      -0.08743654
Ni      10.21610645       5.80377861       4.28595816        2       1.00000000       0.06404565      -0.02649655       0.02260240
Pt       3.83658819       7.95079166       4.22312204        2       0.00000000      -0.01158206      -0.06962917       0.14337891
Ni       6.36090453       8.01877495       4.21528299        2       1.00000000      -0.12314238      -0.03140978      -0.19184292
Pt       8.82715658       8.01432724       4.20073253        2       0.00000000      -0.06752981      -0.03111213       0.09111509
Ni      11.46729086       7.99549169       4.21313461        2       1.00000000       0.02574088      -0.09850102       0.01629861
Pt       0.07742822      -0.07079752       6.49082449        1       0.00000000       0.16974915      -0.01343028       0.15321630
Ni       2.51569637      -0.03431159       6.45107462        1       1.00000000       0.05605092       0.03634053      -0.10499595
Pt       5.05193065      -0.04153516       6.49312375        1       0.00000000       0.04982302       0.03372499       0.05211326
Pt       7.62188202      -0.06952910       6.45829135        1       0.00000000       0.00644708      -0.06035445       0.13473393
Ni       1.25805644       2.20029611       6.40804092        1       1.00000000       0.00064768       0.14407087      -0.18417680
Pt       3.73644297       2.25061509       6.35550533        1       0.00000000      -0.01014926       0.21685054      -0.28312301
Ni       6.34664319       2.21493831       6.34652726        1       1.00000000      -0.02690717       0.06617870      -0.27268599
Pt       8.91371798       2.26521824       6.28990049        1       0.00000000       0.02983734       0.11990058      -0.38007614
Ni       2.50398595       4.40339012       6.38263266        1       1.00000000      -0.03534392       0.13442031      -0.22192473
Ni       5.07564918       4.41346764       6.32155402        1       1.00000000      -0.06863144       0.10573501      -0.26997659
Ni       7.58965439       4.37785647       6.39307912        1       1.00000000      -0.12907077      -0.03794027      -0.13669877
Ni      10.23028701       4.38041997       6.35540760        1       1.00000000       0.21390090       0.00050967      -0.22595068
Ni       3.81376617       6.47825046       6.39121882        1       1.00000000       0.05067848      -0.13581542      -0.08021835
Ni       6.34223556       6.51221915       6.36948435        1       1.00000000      -0.04618646      -0.10574195      -0.19526032
Pt       8.86852955       6.46811400       6.40832473        1       0.00000000       0.01860664      -0.08920417       0.10650599
Ni      11.47273983       6.50092093       6.34680456        1       1.00000000       0.02766229      -0.01449581      -0.19392269
