64
Lattice="10.732964898807623 0.0007356370344161037 -0.011008603178799429 5.367119529763585 9.29148973437986 -0.026640999559945536 0.0 0.0 21.973466502769437" Properties=species:S:1:pos:R:3:tags:I:1:initial_magmoms:R:1:forces:R:3 unique_id=8c635fbb9dac410692db83103d61347e energy=-402.1807998527514 stress="0.00336035453876269 -3.691308038706541e-05 -2.464285647635586e-05 -3.691308038706541e-05 0.0032761492668332993 7.518347036179942e-05 -2.464285647635586e-05 7.518347036179942e-05 -0.001291091466509851" pbc="T T T"
Pt      -0.01966113       0.02793137       0.00754213        0       0.00000000      -0.01981323       0.01493887       0.07534589
Pt       2.70752775      -0.00117281       0.06731717        1       0.00000000      -0.06277108      -0.00128502      -0.40819204
Ni       5.37069066       0.00193902       0.06536199        1       1.00000000       0.03263630      -0.00465323       0.30368514
Pt       8.03658880       0.01791601       0.07483723        1       0.00000000       0.00350348      -0.19915927      -0.23498371
Pt       1.30811709       2.31926832       0.06773215        1       0.00000000       0.04540351      -0.01518433      -0.23588500
Pt       4.04754775       2.29479400       0.06390275        1       0.00000000      -0.03595745      -0.02580860      -0.45185743
Pt       6.72406771       2.29546713       0.00000000        0       0.00000000       0.01470975      -0.04472760       0.13038446
Ni       9.38955855       2.32026722       0.05051870        1       1.00000000      -0.01948708      -0.02268919       0.35052816
Pt       2.68473538       4.65242442       0.08633792        1       0.00000000       0.03324117       0.03611066      -0.27878112
Pt       5.36446803       4.64141146       0.07546806        1       0.00000000      -0.10417752       0.03565807      -0.32817430
Pt       8.07181611       4.61967432       0.07880221        1       0.00000000       0.16399791       0.10538444      -0.27813829
Pt      10.71014041       4.63000035       0.08016571        1       0.00000000      -0.07754798       0.16821516      -0.19715057
Pt       4.00857160       6.97098794       0.09337705        1       0.00000000      -0.21227782       0.02620148      -0.20970127
Pt       6.70743004       6.97621492       0.05507118        1       0.00000000       0.01999852       0.05968486      -0.39079391
Pt       9.40989683       6.97852446       0.07306811        1       0.00000000       0.01697279      -0.17874649      -0.29440429
Pt      12.07094556       7.00047663       0.07246479        1       0.00000000       0.13074747       0.11024862      -0.23223984
Pt       1.31887505       0.76950000       2.36605696        3       0.00000000      -0.09399155      -0.07641032       0.53399356
Pt       4.03877604       0.75856945       2.31165318        2       0.00000000       0.07647126      -0.07108448       0.37443895
Pt       6.71546884       0.73982663       2.31294662        2       0.00000000       0.00346452      -0.02740691       0.35317694
Pt       9.38306854       0.75771926       2.33287114        2       0.00000000      -0.01772290       0.02392763       0.39561416
Pt       2.68816778       3.12689383       2.33219209        2       0.00000000      -0.01778261       0.02907645       0.41452533
Pt       5.36137236       3.12035459       2.33616977        2       0.00000000       0.10267951       0.01554793       0.48112850
Pt       8.06762152       3.10127525       2.30367527        2       0.00000000      -0.00334452      -0.13722761       0.28992229
Pt      10.70945627       3.11190974       2.32177933        2       0.00000000      -0.04061684       0.05171876       0.32797979
Ni       4.00749355       5.43360863       2.32042801        2       1.00000000      -0.06727382       0.09926207       0.54422159
Pt       6.70255487       5.41671526       2.32678703        2       0.00000000      -0.03969521      -0.01726627       0.45508012
Ni       9.39461905       5.41450438       2.30263362        2       1.00000000       0.08242833      -0.00439406       0.49735557
Pt      12.11468044       5.45670468       2.35068565        3       0.00000000       0.22134327       0.13752471       0.52860814
Pt       5.30286575       7.70957173       2.33378711        2       0.00000000      -0.14837470       0.00355662       0.38996856
Pt       8.06023719       7.70693070       2.32316852        2       0.00000000      -0.07378655      -0.04358908       0.49761046
Pt      10.75424953       7.71956587       2.30157305        2       0.00000000       0.05544432       0.02691191       0.31656426
Ni      13.41974833       7.71806853       2.30526519        2       1.00000000       0.02623250      -0.07221567       0.52094704
Ni      -0.01067630       1.53118661       4.65592762        5       1.00000000      -0.08226475      -0.04606407      -0.35807574
Pt       2.64693613       1.54814213       4.62865615        4       0.00000000       0.04123634       0.07626514      -0.47433522
Pt       5.37874649       1.53875384       4.64634859        4       0.00000000       0.13499781      -0.05697587      -0.35173306
Pt       8.07792748       1.54103606       4.64637250        4       0.00000000       0.04899412       0.03129284      -0.33013078
Pt       1.33617078       3.86534882       4.61523181        4       0.00000000      -0.03968029      -0.01193881      -0.42098478
Pt       3.99730792       3.90409860       4.59110296        4       0.00000000      -0.09243125       0.07655110      -0.52659431
Pt       6.70448189       3.84757579       4.64365119        4       0.00000000       0.02531195      -0.11197627      -0.32248963
Pt       9.40982262       3.83813712       4.58943580        4       0.00000000       0.09182843      -0.08298585      -0.47785303
Ni       2.68307233       6.18948230       4.60624581        4       1.00000000       0.01214800       0.06238261      -0.59397116
Pt       5.31507033       6.18450554       4.58212108        4       0.00000000      -0.08751317      -0.00242066      -0.53107229
Pt       8.04984257       6.17674037       4.58831498        4       0.00000000      -0.00847319      -0.02621498      -0.56077223
Pt      10.75825631       6.17152262       4.57680843        4       0.00000000       0.01661426      -0.05989514      -0.52085468
Pt       4.01905002       8.51215001       4.61312000        4       0.00000000      -0.00934420       0.12345444      -0.36145189
Pt       6.66114889       8.54100705       4.63063518        4       0.00000000      -0.20131828       0.07526174      -0.32068523
Pt       9.39448184       8.51161604       4.60205094        4       0.00000000       0.07970879       0.05742532      -0.43676095
Pt      12.10833428       8.47048341       4.56882116        4       0.00000000       0.13374897      -0.08665903      -0.57961147
Ni      -0.00858967      -0.00705355       6.90237326        6       1.00000000      -0.04420214       0.05906739      -0.34021094
Pt       2.65024713      -0.01011842       6.90062254        6       0.00000000       0.04865769       0.02759984       0.41431515
Pt       5.38002143       0.01542070       6.97346650        7       0.00000000       0.06753145      -0.00029141       0.01624782
Pt       8.05596892       0.01525184       6.89626161        6       0.00000000      -0.01395644      -0.03412411       0.23677182
Pt       1.29962431       2.27213168       6.87550308        6       0.00000000      -0.12335888      -0.07474901       0.23613294
Pt       4.04515471       2.30643583       6.89375708        6       0.00000000      -0.06334077       0.05512726       0.31944256
Ni       6.70654316       2.30592652       6.90503717        6       1.00000000       0.02574026      -0.01505461      -0.27177972
Pt       9.38148454       2.27512921       6.94617289        6       0.00000000       0.08408590      -0.06429819      -0.08555810
Pt       2.68250009       4.63644655       6.87363574        6       0.00000000       0.02077852       0.10079317       0.26961839
Pt       5.37411180       4.61110948       6.88787265        6       0.00000000      -0.01210685       0.08265581       0.34677385
Pt       8.03442808       4.59638371       6.89027112        6       0.00000000       0.04278908      -0.01472260       0.31266097
Pt      10.71846469       4.62207591       6.88701451        6       0.00000000      -0.07453967      -0.04039937       0.35715539
Pt       4.02485199       6.97925673       6.86450582        6       0.00000000      -0.12841594      -0.02404550       0.15666896
Pt       6.68160185       6.97986955       6.87674033        6       0.00000000      -0.02989989      -0.07125062       0.31641094
Pt       9.38560006       6.95880685       6.88332520        6       0.00000000      -0.03959319      -0.03414648       0.35692512
Pt      12.08109782       6.96439678       6.86787830        6       0.00000000       0.18161356       0.02821585       0.28502412
