64
Lattice="10.325435613161352 -0.025843246609063016 0.021562140167082865 5.140336898500963 8.94292201364139 0.006825869566253372 0.0 0.0 21.584794317877268" Properties=species:S:1:pos:R:3:tags:I:1:initial_magmoms:R:1:forces:R:3 unique_id=ce08eb9ee78c489f8ee6a600a7760ef1 stress="0.004966416534875711 -5.670414413953821e-05 0.0003313292434757477 -5.670414413953821e-05 0.005121482883790138 -0.00015614284601698998 0.0003313292434757477 -0.00015614284601698998 -0.0033404877775729865" energy=-377.57688653538867 pbc="T T T"
Ni       0.03019886       0.03286189       0.14482155        1       1.00000000       0.01471196      -0.02270262      -0.15020152
Ni       2.57434113      -0.00330567       0.16557773        2       1.00000000      -0.03836925       0.01974898      -0.25428657
Ni       5.12721898      -0.01167474       0.10823113        1       1.00000000      -0.04262400       0.12402907      -0.52181180
Pt       7.80001065      -0.10008658       0.00849930        0       0.00000000       0.09018771      -0.04551770      -0.08095809
Ni       1.25539474       2.22818784       0.02249350        0       1.00000000       0.03986988      -0.04641651       0.29558175
Pt       3.77621800       2.24096345       0.02835009        0       0.00000000       0.06831007      -0.01933075       0.11610109
Pt       6.43584019       2.26115453       0.09029132        1       0.00000000      -0.03745418       0.11948302      -0.92837609
Ni       9.05224907       2.19148787       0.11738274        1       1.00000000      -0.09870267      -0.02236763      -0.23005247
Ni       2.57775547       4.48495184       0.00096936        0       1.00000000       0.05723666      -0.01999414       0.22529466
Ni       5.10921520       4.48925187       0.13983220        1       1.00000000      -0.00094093       0.01161251      -0.04784366
Pt       7.82572837       4.49557994       0.02727070        0       0.00000000      -0.02281929       0.01953630       0.05188106
Ni      10.35846248       4.45566143       0.01109609        0       1.00000000       0.01507344       0.02042796       0.20734508
Ni       3.84247409       6.65339924       0.14696334        1       1.00000000      -0.05016174      -0.02471129      -0.06260628
Pt       6.40935567       6.74474701       0.12273731        1       0.00000000       0.02734947       0.01082370      -0.47902345
Ni       9.03210361       6.70872720       0.00743267        0       1.00000000      -0.08244808       0.00395722       0.11561631
Ni      11.60707101       6.65390999       0.00000000        0       1.00000000       0.09552614      -0.01287742       0.14106302
Ni       1.29757647       0.73435226       2.10031204        3       1.00000000       0.01095843      -0.01970252       0.10175465
Ni       3.83103300       0.75885966       2.13521669        3       1.00000000      -0.03225281       0.02595436       0.17077278
Pt       6.43343459       0.75779151       2.18698253        4       0.00000000       0.00513925       0.02378459       0.20806428
Ni       9.07764360       0.69256379       2.13471121        3       1.00000000       0.00622354      -0.04297797       0.16335188
Ni       2.60672148       2.98147477       2.14808949        3       1.00000000       0.05577673      -0.01439113       0.10269579
Ni       5.09661793       3.02356314       2.17626654        4       1.00000000      -0.08500502       0.04420165       0.15658341
Ni       7.75326173       3.01802168       2.15528610        4       1.00000000      -0.03398741       0.07155388       0.16508441
Pt      10.30952210       2.90940258       2.14143622        3       0.00000000       0.05929173       0.00215518       0.02990668
Ni       3.91411157       5.21213467       2.16378640        4       1.00000000       0.08050465      -0.02546725       0.13264486
Ni       6.42299690       5.22747551       2.16597453        4       1.00000000      -0.03820298      -0.01303132       0.17736348
Ni       8.98705200       5.18625979       2.19316165        4       1.00000000      -0.07885445      -0.06633720       0.06244557
Pt      11.69459562       5.18137612       2.09934653        3       0.00000000       0.04310707      -0.07677381      -0.00186631
Ni       5.11734624       7.42421102       2.13030861        3       1.00000000      -0.02622643      -0.04791570       0.12418340
Ni       7.71198964       7.43134245       2.14175315        3       1.00000000       0.02184116      -0.03602173       0.11199598
Pt      10.25399518       7.39442710       2.05717404        3       0.00000000       0.01099970      -0.02827969      -0.01955765
Ni      12.93980793       7.39221385       2.14870845        3       1.00000000       0.02911757       0.02029400       0.11077544
Ni       0.03295773       1.50006626       4.28179544        6       1.00000000       0.06566286      -0.10034041      -0.12034274
Pt       2.61998579       1.53486627       4.24849423        5       0.00000000      -0.02786351      -0.03842886      -0.04772903
Ni       5.14855820       1.52217516       4.29050296        6       1.00000000       0.00637220       0.05211830      -0.21061509
Pt       7.83674940       1.52440133       4.26437489        6       0.00000000       0.11457089      -0.06284140      -0.16618783
Pt       1.30727761       3.72700709       4.37521780        7       0.00000000      -0.05076886      -0.01825971      -0.00516716
Ni       3.87895137       3.75767929       4.26365042        6       1.00000000       0.05404364       0.03372823      -0.15165760
Pt       6.42926504       3.78620850       4.21179975        5       0.00000000      -0.02487357       0.08452988      -0.17524388
Ni       9.02293957       3.72986634       4.29728347        6       1.00000000      -0.04091948      -0.03128045      -0.15021485
Ni       2.61598257       5.90713547       4.28733717        6       1.00000000       0.10849596      -0.03129716      -0.08020647
Ni       5.12048141       5.92401190       4.24584086        5       1.00000000      -0.04252858      -0.01477679      -0.22014983
Ni       7.73585370       5.91544474       4.25750680        6       1.00000000      -0.06872168       0.02570079      -0.25882729
Pt      10.26875135       5.88221411       4.37868928        7       0.00000000       0.00284574      -0.00614261      -0.06584810
Pt       3.87687985       8.14311696       4.21872455        5       0.00000000       0.05794531      -0.04275790      -0.06944303
Pt       6.42612427       8.15800891       4.18605536        5       0.00000000      -0.02766632       0.02822066      -0.17403300
Pt       9.00435291       8.17741538       4.28382482        6       0.00000000      -0.04842046      -0.02438107      -0.06002803
Pt      11.63142904       8.12545378       4.34076446        6       0.00000000       0.04758873       0.03964928      -0.11164109
Pt      -0.00972745       0.04124949       6.52809894        9       0.00000000       0.06525057       0.07161590       0.00841955
Pt       2.60881485       0.05029563       6.58479432       10       0.00000000       0.00901350      -0.04057129       0.14523145
Pt       5.20933913      -0.08878028       6.55682907       10       0.00000000      -0.04062811       0.19081071       0.37144694
Ni       7.76366329      -0.01651262       6.40514707        8       1.00000000       0.02213419       0.10298839       0.37494327
Ni       1.32904203       2.29167368       6.48577297        9       1.00000000      -0.02432503      -0.08125497      -0.07142579
Ni       3.84530661       2.25665843       6.38327872        8       1.00000000       0.07851294      -0.08504879       0.11424787
Pt       6.45217742       2.22503864       6.40265276        8       0.00000000      -0.09743867      -0.01019918       0.88593088
Pt       9.11666150       2.33447773       6.52204828        9       0.00000000      -0.04235743       0.03750439       0.03659197
Ni       2.52406010       4.44732590       6.47250128        9       1.00000000       0.04935296       0.07829669      -0.13869085
Pt       5.07344725       4.43284484       6.49725390        9       0.00000000      -0.07025492       0.10270160      -0.01584284
Ni       7.79757892       4.48226365       6.37107195        8       1.00000000       0.03622327       0.03985835       0.01519366
Ni      10.34976438       4.49348564       6.51441045        9       1.00000000      -0.02319618      -0.02272079      -0.08683655
Pt       3.74480989       6.68353568       6.51984792        9       0.00000000       0.16092451      -0.13123952      -0.11651087
Pt       6.50532288       6.64201860       6.39853510        8       0.00000000      -0.21922718      -0.04136141       0.44968397
Ni       9.05502082       6.63301812       6.49348233        9       1.00000000      -0.10926315       0.02698979      -0.04827755
Ni      11.57925288       6.61713084       6.49966073        9       1.00000000       0.01633998      -0.06455666      -0.05069178
