64
Lattice="10.286735024597359 -0.012812967865883974 0.02324353663114857 5.1322711566289465 8.818628258094682 0.012182646023414505 0.0 0.0 21.504832623830865" Properties=species:S:1:pos:R:3:tags:I:1:initial_magmoms:R:1:forces:R:3 unique_id=ed64f459351c4cd88f6fa2c408e7f7c4 stress="0.005140160873231578 3.947129594117654e-05 1.0723418433215806e-05 3.947129594117654e-05 0.004836905952566894 8.483286535354405e-05 1.0723418433215806e-05 8.483286535354405e-05 -0.0023353286899545304" energy=-372.7456852153666 pbc="T T T"
Ni       0.00645080       0.02466859       0.10583969        1       1.00000000       0.08723102      -0.00124455      -0.32207261
Ni       2.56735972       0.00613547       0.14437767        1       1.00000000      -0.01480604       0.04877035      -0.24317135
Ni       5.14341975      -0.01550433       0.10051780        1       1.00000000      -0.03787985       0.21353567      -0.44654260
Ni       7.72123041      -0.05273477       0.12649483        1       1.00000000      -0.09020668      -0.11217052      -0.32963642
Ni       1.25269406       2.21526818       0.03411368        0       1.00000000      -0.04165778       0.03509325       0.37393059
Pt       3.79654323       2.22238528       0.11736148        1       0.00000000      -0.00167903      -0.01181216      -0.55640172
Pt       6.45009219       2.15462891       0.04313518        0       0.00000000       0.02953405      -0.06041330      -0.03736826
Ni       9.04627878       2.20000759       0.08600366        1       1.00000000       0.03687926       0.13974458      -0.15188216
Ni       2.56306211       4.44043796       0.00000000        0       1.00000000       0.02621954      -0.00022624       0.27136304
Ni       5.10572061       4.43332451       0.03712882        0       1.00000000      -0.02515992      -0.01217383       0.26801576
Pt       7.77851427       4.41634460       0.04047246        0       0.00000000       0.10617647       0.03180380      -0.02537526
Ni      10.32036891       4.39210031       0.02560671        0       1.00000000       0.04855347      -0.02674721       0.28214659
Ni       3.81722890       6.60893792       0.03600599        0       1.00000000      -0.06187616       0.02350962       0.33601158
Pt       6.38081908       6.65739950       0.04230248        0       0.00000000      -0.00007628       0.06986484      -0.07943706
Ni       9.00901306       6.62360688       0.09309773        1       1.00000000      -0.15211577      -0.08434705      -0.37289874
Ni      11.59315599       6.60157477       0.01382909        0       1.00000000       0.09078548      -0.02195438       0.18227586
Ni       1.30045110       0.76124247       2.07751090        2       1.00000000       0.01903523       0.15028435      -0.00275050
Ni       3.85381170       0.74284984       2.13222775        2       1.00000000       0.05143213       0.02561790       0.18152388
Ni       6.42343323       0.75539086       2.15666710        3       1.00000000      -0.05366859       0.18705056       0.26557726
Pt       9.01080921       0.76796408       2.11531869        2       0.00000000      -0.01026812       0.12968765       0.11196824
Ni       2.56073095       2.95135825       2.13655617        2       1.00000000      -0.00273107       0.06892470       0.01568748
Ni       5.13809056       2.95323349       2.16877235        3       1.00000000      -0.03465653       0.03407303       0.12974660
Ni       7.73016022       2.94952354       2.17017698        3       1.00000000       0.04905273       0.08459853       0.16329053
Ni      10.28967518       2.93107681       2.14776300        2       1.00000000       0.03211879       0.03884123       0.13016067
Ni       3.87234568       5.12879843       2.10166530        2       1.00000000       0.05633564      -0.11557963      -0.09225921
Ni       6.42383236       5.13308946       2.14258887        2       1.00000000       0.02051595      -0.04032395       0.05507867
Ni       8.98485040       5.10890898       2.18192380        3       1.00000000      -0.01962053      -0.14937866       0.25375383
Pt      11.59948818       5.07974366       2.15106580        3       0.00000000       0.03993282      -0.05207578       0.06521168
Ni       5.12157124       7.32556294       2.10563872        2       1.00000000      -0.09865044      -0.11430817      -0.01175623
Ni       7.69356147       7.33091614       2.11460248        2       1.00000000      -0.02324650      -0.13104940       0.08749147
Pt      10.27622808       7.33458713       2.06306805        2       0.00000000       0.05424526      -0.08763219      -0.00324365
Ni      12.88329808       7.31046320       2.10165331        2       1.00000000       0.09450611      -0.11483146      -0.00205621
Ni      -0.00432538       1.54371591       4.25076958        5       1.00000000      -0.05387918       0.13027807      -0.15191603
Pt       2.54215499       1.57289404       4.18158840        4       0.00000000      -0.07792097       0.02152827       0.01818209
Ni       5.16935600       1.48808026       4.23758582        4       1.00000000      -0.03687872      -0.07195378      -0.31974208
Ni       7.73292633       1.48977546       4.26827581        5       1.00000000       0.07905750      -0.07013152      -0.21365886
Ni       1.26244165       3.71222589       4.30251068        5       1.00000000      -0.07765078       0.02670407      -0.01077940
Ni       3.83359523       3.70701303       4.23335685        4       1.00000000      -0.12650604      -0.04379292      -0.32101680
Pt       6.47301940       3.62205907       4.25103695        5       0.00000000      -0.01249815      -0.05469403      -0.14263541
Ni       9.04319381       3.69248215       4.25328983        5       1.00000000       0.11636011       0.02014073      -0.27230324
Ni       2.54446274       5.81490872       4.30608524        5       1.00000000      -0.08165219      -0.13031004      -0.04707934
Pt       5.10617291       5.80476977       4.26787233        5       0.00000000      -0.00330217      -0.07373519      -0.16765568
Ni       7.74585272       5.81783728       4.25893076        5       1.00000000       0.06542445      -0.08834351      -0.34441530
Ni      10.29995584       5.78925927       4.30329924        5       1.00000000      -0.01475681      -0.07731981      -0.14134456
Pt       3.84205008       8.07791603       4.23117323        4       0.00000000      -0.04018494      -0.00059796       0.01317204
Pt       6.42644908       8.06626900       4.18440241        4       0.00000000      -0.04984219       0.03475517      -0.18536589
Pt       8.99605679       8.05357839       4.22746758        4       0.00000000      -0.00004746       0.03867818      -0.08192836
Pt      11.57971197       8.04676120       4.23839906        4       0.00000000      -0.04192337      -0.07534809       0.01352127
Pt       0.01302481      -0.02569822       6.47710851        8       0.00000000      -0.04553566       0.09451311       0.41907170
Pt       2.56687588      -0.00179353       6.50088988        8       0.00000000       0.12899401       0.02340549       0.46593918
Pt       5.16674728       0.00191474       6.47807958        8       0.00000000      -0.11352425       0.17012501       0.53811402
Pt       7.72278500      -0.04401315       6.50483262        8       0.00000000       0.06000600       0.14578949       0.45904902
Ni       1.28749356       2.27169136       6.40369720        7       1.00000000       0.05107999       0.07548767      -0.19758472
Pt       3.87871200       2.33245499       6.35902664        7       0.00000000       0.07917288       0.06185399       0.57969359
Ni       6.44673759       2.23552925       6.34913578        6       1.00000000      -0.00984140      -0.05220155       0.27140920
Pt       9.02223543       2.29816135       6.40503672        7       0.00000000      -0.04751750      -0.04287436       0.04750794
Ni       2.55010032       4.45112198       6.39230114        7       1.00000000       0.00651672      -0.01104425      -0.34013864
Ni       5.15994020       4.44059215       6.43178718        7       1.00000000       0.04312133       0.00193516      -0.15685543
Ni       7.68399650       4.39835277       6.34201018        6       1.00000000      -0.08088171       0.01028442       0.12829858
Ni      10.35668987       4.39268796       6.40258354        7       1.00000000       0.13247457      -0.01371025      -0.28017533
Ni       3.84111015       6.53691679       6.43219626        7       1.00000000      -0.06034497      -0.07604512      -0.19840305
Ni       6.41349901       6.54936607       6.35714100        7       1.00000000       0.07964253      -0.01665729       0.16008158
Pt       9.01872423       6.46905354       6.44643259        7       0.00000000      -0.04964648      -0.07765991       0.15483331
Ni      11.60467592       6.52759704       6.43205452        7       1.00000000       0.00823018      -0.02419083      -0.19225714
