64
Lattice="10.732964898807623 0.0007356370344161037 -0.011008603178799429 5.367119529763585 9.29148973437986 -0.026640999559945536 -0.00898848685627984 -0.01992786995581987 9.359285197983748" Properties=species:S:1:pos:R:3:tags:I:1:initial_magmoms:R:1:forces:R:3 unique_id=8c635fbb9dac410692db83103d61347e stress="-6.995831975156741e-05 -1.0074513839153568e-06 2.9822563518586114e-07 -1.0074513839153568e-06 -6.533131548038668e-05 4.13521358788509e-06 2.9822563518586114e-07 4.13521358788509e-06 -2.3942022149101017e-05" energy=-427.9688706027425 pbc="T T T"
Pt      -0.01966113       0.02793137       0.02800726        4       0.00000000      -0.05600440       0.05665757      -0.02998319
Pt       2.70752775      -0.00117281       0.08778231        4       0.00000000      -0.00344305      -0.01717525       0.10372746
Ni       5.37069066       0.00193902       0.08582713        4       1.00000000       0.03115882      -0.00680180       0.36293392
Pt       8.03658880       0.01791601       0.09530236        4       0.00000000       0.00623347       0.01142767       0.08201951
Pt       1.30811709       2.31926832       0.08819728        4       0.00000000      -0.05751554      -0.00553562       0.08028579
Pt       4.04754775       2.29479400       0.08436788        4       0.00000000       0.05769607      -0.06438169       0.06866455
Pt       6.72406771       2.29546713       0.02046513        4       0.00000000       0.02948864      -0.04581502      -0.01685622
Ni       9.38955855       2.32026722       0.07098383        4       1.00000000      -0.01993718      -0.03395033       0.33668834
Pt       2.68473538       4.65242442       0.10680306        4       0.00000000      -0.03704165      -0.00349695       0.10236424
Pt       5.36446803       4.64141146       0.09593320        4       0.00000000       0.00875742      -0.01409174       0.12821766
Pt       8.07181611       4.61967432       0.09926734        4       0.00000000       0.01677545      -0.04240877       0.12661173
Pt      10.71014041       4.63000035       0.10063084        4       0.00000000       0.00930009       0.02200334       0.18394217
Pt       4.00857160       6.97098794       0.11384219        4       0.00000000      -0.05860070       0.02150853       0.12436894
Pt       6.70743004       6.97621492       0.07553632        4       0.00000000      -0.03236659       0.04718214       0.08987097
Pt       9.40989683       6.97852446       0.09353324        4       0.00000000       0.02387038      -0.01244741       0.12715433
Pt      12.07094556       7.00047663       0.09292993        4       0.00000000       0.00093005       0.07174468       0.09330734
Pt       1.31887505       0.76950000       2.38652209        3       0.00000000      -0.09175603      -0.02979401       0.16155255
Pt       4.03877604       0.75856945       2.33211832        3       0.00000000       0.01193506      -0.01667341       0.08192613
Pt       6.71546884       0.73982663       2.33341175        3       0.00000000       0.04428415      -0.01511129       0.08027998
Pt       9.38306854       0.75771926       2.35333627        3       0.00000000       0.00399671      -0.01452251       0.12516104
Pt       2.68816778       3.12689383       2.35265723        3       0.00000000      -0.00657874       0.01697809       0.00638368
Pt       5.36137236       3.12035459       2.35663491        3       0.00000000       0.04759646       0.01570318       0.12544237
Pt       8.06762152       3.10127525       2.32414040        3       0.00000000      -0.02204613      -0.06440172       0.02824592
Pt      10.70945627       3.11190974       2.34224447        3       0.00000000       0.01813670       0.04837728       0.07875823
Ni       4.00749355       5.43360863       2.34089315        3       1.00000000      -0.08475332       0.10066641       0.09944091
Pt       6.70255487       5.41671526       2.34725217        3       0.00000000      -0.02258134      -0.01479556       0.10368307
Ni       9.39461905       5.41450438       2.32309875        3       1.00000000       0.06249925      -0.00490704       0.06301998
Pt      12.11468044       5.45670468       2.37115078        3       0.00000000       0.24809803       0.12347251       0.18970416
Pt       5.30286575       7.70957173       2.35425225        3       0.00000000      -0.14108720      -0.02386188       0.08332317
Pt       8.06023719       7.70693070       2.34363365        3       0.00000000      -0.03556780      -0.03626399       0.15744048
Pt      10.75424953       7.71956587       2.32203819        3       0.00000000       0.03531342      -0.03263932       0.08663898
Ni      13.41974833       7.71806853       2.32573032        3       1.00000000       0.03658906      -0.09070872       0.13339107
Ni      -0.01067630       1.53118661       4.67639275        2       1.00000000      -0.07159708      -0.01443996      -0.03853480
Pt       2.64693613       1.54814213       4.64912129        2       0.00000000       0.00813701       0.05032217      -0.13996995
Pt       5.37874649       1.53875384       4.66681372        2       0.00000000       0.06316699      -0.06431767      -0.06652510
Pt       8.07792748       1.54103606       4.66683763        2       0.00000000       0.08178873       0.00985820      -0.08224315
Pt       1.33617078       3.86534882       4.63569694        2       0.00000000      -0.02017868      -0.01042436      -0.08848727
Pt       3.99730792       3.90409860       4.61156809        2       0.00000000      -0.06786421       0.11824979      -0.19838403
Pt       6.70448189       3.84757579       4.66411633        2       0.00000000       0.01738023      -0.03627973      -0.03089094
Pt       9.40982262       3.83813712       4.60990093        2       0.00000000       0.05264609      -0.03072209      -0.15773118
Ni       2.68307233       6.18948230       4.62671095        2       1.00000000       0.02942255       0.05686467      -0.20648682
Pt       5.31507033       6.18450554       4.60258621        2       0.00000000      -0.11831341      -0.01594490      -0.17538666
Pt       8.04984257       6.17674037       4.60878011        2       0.00000000       0.02099616      -0.03515132      -0.13260390
Pt      10.75825631       6.17152262       4.59727357        2       0.00000000      -0.01681456      -0.04823939      -0.15892295
Pt       4.01905002       8.51215001       4.63358513        2       0.00000000      -0.06732271       0.04017728      -0.09329883
Pt       6.66114889       8.54100705       4.65110031        2       0.00000000      -0.10957594       0.04823415      -0.05071003
Pt       9.39448184       8.51161604       4.62251607        2       0.00000000       0.04742106       0.03226814      -0.06658571
Pt      12.10833428       8.47048341       4.58928629        2       0.00000000       0.14180464      -0.11336368      -0.23292806
Ni      -0.00858967      -0.00705355       6.92283839        1       1.00000000      -0.04278185       0.03198581      -0.36737952
Pt       2.65024713      -0.01011842       6.92108768        1       0.00000000       0.00644562       0.01956025      -0.09954572
Pt       5.38002143       0.01542070       6.99393164        1       0.00000000       0.07049872       0.06169774       0.05226196
Pt       8.05596892       0.01525184       6.91672674        1       0.00000000      -0.00661063       0.03780028      -0.06652521
Pt       1.29962431       2.27213168       6.89596821        1       0.00000000      -0.09926888      -0.07964357      -0.12832171
Pt       4.04515471       2.30643583       6.91422222        1       0.00000000      -0.00089761       0.03524654      -0.13467718
Ni       6.70654316       2.30592652       6.92550231        1       1.00000000       0.04728756      -0.01390034      -0.30712532
Pt       9.38148454       2.27512921       6.96663803        1       0.00000000       0.01140824      -0.05684122       0.04397530
Pt       2.68250009       4.63644655       6.89410088        1       0.00000000       0.00807664       0.00314633      -0.09053575
Pt       5.37411180       4.61110948       6.90833779        1       0.00000000       0.01595889       0.00485750      -0.06922540
Pt       8.03442808       4.59638371       6.91073626        1       0.00000000       0.01682365      -0.08679265      -0.05681013
Pt      10.71846469       4.62207591       6.90747964        1       0.00000000      -0.02581802      -0.01926701      -0.03332426
Pt       4.02485199       6.97925673       6.88497095        1       0.00000000       0.00486909       0.05397103      -0.06177755
Pt       6.68160185       6.97986955       6.89720547        1       0.00000000      -0.05604743       0.01204545      -0.14200659
Pt       9.38560006       6.95880685       6.90379033        1       0.00000000       0.00360003       0.01396456      -0.08898031
Pt      12.08109782       6.96439678       6.88834344        1       0.00000000       0.03197955       0.04914065      -0.09802248
