64
Lattice="10.324588342178142 -0.021061181299097134 0.011204631016001863 5.144054653050342 8.909814722974257 0.003424035362908666 0.0 0.0 21.576678900888666" Properties=species:S:1:pos:R:3:tags:I:1:initial_magmoms:R:1:forces:R:3 unique_id=7442232c48a34591a33a1feee6ae4c6f energy=-376.74504417813347 stress="0.006458293543577819 -0.00013159346894479565 -0.00010835089244031661 -0.00013159346894479565 0.006016056435669044 0.00011050490496552425 -0.00010835089244031661 0.00011050490496552425 -0.00245587745775837" pbc="T T T"
Ni       0.04643321       0.00632358       0.12954577        1       1.00000000       0.09871783      -0.00104109      -0.14735179
Ni       2.53307371       0.01360982       0.17237685        2       1.00000000      -0.03765696       0.05025484      -0.10061736
Pt       5.08588424      -0.03593599       0.09434798        1       0.00000000       0.01035659       0.28788238      -0.90387323
Pt       7.77360101      -0.13374208       0.14218662        1       0.00000000      -0.19175748       0.04662346      -0.79811265
Ni       1.29507168       2.24038621       0.06082309        1       1.00000000      -0.01450515       0.06210518       0.41213869
Pt       3.76899702       2.29473778       0.04861139        0       0.00000000       0.05756888      -0.06846612       0.15357117
Pt       6.42645982       2.26259385       0.17319681        2       0.00000000       0.04336009      -0.12280482      -0.60452563
Pt       9.14052105       2.24724249       0.10400481        1       0.00000000      -0.11237109       0.14189357      -0.58124663
Ni       2.56962296       4.48850084       0.00000000        0       1.00000000       0.02654749      -0.01327620       0.35500342
Ni       5.10221591       4.48819426       0.06496986        1       1.00000000      -0.03011467       0.08284438       0.33919800
Pt       7.77421340       4.51299956       0.05144971        1       0.00000000       0.03967925       0.05117206       0.05133894
Ni      10.37558370       4.46417782       0.03612588        0       1.00000000      -0.01000551      -0.04219566       0.28350000
Ni       3.83863736       6.61336247       0.06351889        1       1.00000000      -0.02484635      -0.04460943       0.39998996
Pt       6.38879621       6.72772160       0.12766266        1       0.00000000       0.03955328       0.01965603      -0.27056003
Ni       9.02285547       6.65351487       0.13732561        1       1.00000000      -0.16335197      -0.02760942      -0.36292295
Ni      11.61327705       6.59845784       0.02964156        0       1.00000000       0.03528879       0.06947686       0.17927122
Ni       1.33237646       0.73982063       2.16150427        4       1.00000000       0.07641596       0.02093722       0.13126547
Ni       3.83850006       0.78032610       2.18676994        4       1.00000000       0.00656162       0.05081311       0.24261111
Ni       6.42090323       0.76259519       2.20989486        4       1.00000000      -0.05975371       0.07370782       0.31398487
Pt       9.13631091       0.71706965       2.21252564        4       0.00000000       0.10693976      -0.03397403       0.23317064
Ni       2.58089756       2.96292604       2.18486853        4       1.00000000       0.05426721      -0.05025562       0.07382031
Ni       5.09882920       2.99966938       2.21810507        4       1.00000000      -0.11015646       0.05292091       0.12361472
Ni       7.75769342       3.01838399       2.20246776        4       1.00000000       0.03778606       0.06449654       0.21450469
Ni      10.36509968       2.95785660       2.24340252        4       1.00000000       0.08391053      -0.04849108       0.18165573
Ni       3.90873751       5.18223612       2.17563759        4       1.00000000       0.09299898      -0.05486929       0.06090574
Ni       6.42003431       5.21129353       2.19236660        4       1.00000000      -0.03491805      -0.06506846       0.14007906
Ni       8.99145730       5.14411530       2.21118554        4       1.00000000      -0.05699738      -0.11909032       0.17152732
Pt      11.68066406       5.09733885       2.14386937        3       0.00000000       0.03858750      -0.02963530       0.06000619
Ni       5.16975132       7.37623232       2.19661166        4       1.00000000      -0.02767824      -0.06029863       0.19061038
Ni       7.67340775       7.41554729       2.18934646        4       1.00000000      -0.04118464       0.01361333       0.24820773
Pt      10.28330495       7.35423900       2.14552537        3       0.00000000       0.05414551      -0.19226050       0.11694150
Ni      12.94371806       7.32264310       2.18672392        4       1.00000000       0.15836772      -0.14311184       0.17031987
Ni       0.04457914       1.52847156       4.31300101        5       1.00000000       0.02209973      -0.02687765      -0.14099117
Pt       2.54983812       1.57498574       4.28036498        5       0.00000000      -0.00208048      -0.02677996       0.00168798
Ni       5.12404145       1.52589980       4.28306933        5       1.00000000      -0.09032819       0.03346713      -0.34077099
Pt       7.74909020       1.52902021       4.27785814        5       0.00000000      -0.00656938      -0.06216693      -0.31416502
Ni       1.30228312       3.70363667       4.36591164        6       1.00000000       0.00233497      -0.02075015      -0.09152238
Ni       3.84428354       3.75968293       4.33784238        5       1.00000000      -0.00476686       0.02808874      -0.17420122
Pt       6.39433565       3.79753807       4.25862043        5       0.00000000      -0.04278260       0.13863720      -0.14915289
Ni       9.04089889       3.70850823       4.28306685        5       1.00000000      -0.03877956       0.01820846      -0.25834869
Ni       2.61842974       5.85574756       4.36536677        6       1.00000000       0.03853549      -0.08568563      -0.09902138
Ni       5.12334096       5.89795051       4.28291020        5       1.00000000      -0.02470668      -0.06135184      -0.25101972
Ni       7.71192900       5.91882696       4.27937657        5       1.00000000      -0.02382204       0.01010405      -0.36358246
Pt      10.33009567       5.80071076       4.36147602        6       0.00000000       0.01665440       0.00976281      -0.04488079
Pt       3.94774330       8.05296519       4.30251407        5       0.00000000       0.11515531      -0.05581887      -0.03901606
Ni       6.43461838       8.14293071       4.27534349        5       1.00000000      -0.01897477       0.01129589      -0.27182724
Pt       8.92468376       8.15195314       4.27161600        5       0.00000000      -0.09128518      -0.06689030      -0.19607008
Pt      11.62559536       8.10793893       4.27270145        5       0.00000000      -0.03167979      -0.17192733      -0.27750163
Pt       0.02092522       0.01615791       6.53270025        8       0.00000000       0.09772115       0.10843374       0.11797061
Pt       2.57623178       0.07001394       6.57667890        9       0.00000000      -0.02521212      -0.13818207       0.08150731
Pt       5.15962387       0.00182036       6.42580409        7       0.00000000      -0.05079302       0.19286861       0.97904634
Pt       7.76082693      -0.09625447       6.48512077        8       0.00000000       0.02655595       0.20503537       0.98849687
Ni       1.33347892       2.31727226       6.48508607        8       1.00000000      -0.00168009       0.05775410      -0.25933143
Ni       3.83056433       2.31588264       6.41286253        7       1.00000000       0.03219972       0.07528841      -0.03916614
Pt       6.38767737       2.32274274       6.47087110        8       0.00000000      -0.03397489      -0.15066324       0.61817795
Pt       9.11792852       2.33362151       6.42130048        7       0.00000000       0.02165461      -0.02637338       0.66874667
Ni       2.58205979       4.45923732       6.46583817        8       1.00000000       0.00930769      -0.06485916      -0.47199302
Ni       5.06275895       4.45924564       6.48078621        8       1.00000000      -0.14363529      -0.00779472      -0.37207604
Ni       7.74215137       4.44675961       6.40667527        7       1.00000000       0.06679303       0.05417455      -0.03531958
Ni      10.41858757       4.43321061       6.50986302        8       1.00000000       0.09701762      -0.04862318      -0.15531334
Ni       3.82755735       6.58230019       6.49068013        8       1.00000000      -0.02874559      -0.05695815      -0.31662020
Pt       6.38394778       6.58032661       6.39493088        7       0.00000000       0.06807694       0.12826287       0.20784155
Pt       9.05982826       6.56489574       6.57569910        9       0.00000000      -0.14818315       0.03345722       0.12240713
Ni      11.65635165       6.57161742       6.51631240        8       1.00000000       0.04813767      -0.00447647      -0.20201739
