64
Lattice="10.655289824222917 0.013712296259285757 -0.008539068688180343 5.339520109016222 9.22531239963123 -0.026212071463888754 0.0 0.0 21.86370971836472" Properties=species:S:1:pos:R:3:tags:I:1:initial_magmoms:R:1:forces:R:3 unique_id=b0efef0723104933b5fc12235d85cd3f energy=-395.5537085309039 stress="0.008023699544320386 0.00010399125122930957 -6.203958697799926e-06 0.00010399125122930957 0.007899075984720453 6.054337790287106e-05 -6.203958697799926e-06 6.054337790287106e-05 0.0003935037176587119" pbc="T T T"
Pt       0.02249535      -0.03587389       0.10508746        1       0.00000000       0.06168162      -0.04889014      -0.42705111
Pt       2.67462005      -0.06084733       0.11882449        1       0.00000000       0.17404599       0.03326163      -0.19912628
Pt       5.30696612      -0.00266562       0.14384990        1       0.00000000      -0.06040840       0.11971541      -0.10198055
Pt       7.97736366      -0.00305017       0.14884775        1       0.00000000      -0.17520929      -0.11856339      -0.30240007
Pt       1.33663503       2.30821945       0.03305527        0       0.00000000      -0.03780327       0.00603675      -0.05030754
Pt       4.02201189       2.32387255       0.14710964        1       0.00000000       0.14066917      -0.17260982      -0.27750124
Pt       6.64067654       2.35048066       0.14130756        1       0.00000000      -0.13632111      -0.00889528      -0.14639030
Pt       9.31998009       2.33394520       0.03262347        0       0.00000000       0.00938702       0.12899732       0.00120167
Pt       2.70606812       4.61140009       0.00000000        0       0.00000000      -0.05310437       0.02501003      -0.07121093
Ni       5.34278349       4.62911130       0.11055872        1       1.00000000       0.00836664      -0.06374834       0.14840072
Pt       7.94483446       4.69422708       0.00279267        0       0.00000000       0.00818096       0.03608830       0.09816745
Pt      10.63923588       4.63986082       0.09767592        1       0.00000000      -0.03557453      -0.07060528      -0.51361605
Pt       4.06125379       6.87979690       0.01585004        0       0.00000000      -0.06324713       0.05439968       0.04406881
Ni       6.67274912       6.90733999       0.11036730        1       1.00000000       0.01270521       0.05041092       0.21486322
Ni       9.31755118       6.92461707       0.11171732        1       1.00000000       0.02003881       0.01255881       0.22263598
Pt      11.97952536       6.93253335       0.11576416        1       0.00000000       0.09879377       0.06197707      -0.32057742
Pt       1.34455301       0.77797516       2.36854457        3       0.00000000      -0.01204760       0.03539670       0.28177322
Ni       4.04696715       0.78460042       2.35343712        3       1.00000000       0.15226580       0.10032432       0.43560199
Ni       6.61345155       0.77873766       2.35306106        3       1.00000000      -0.11311741       0.08721757       0.44701942
Pt       9.27663201       0.78007420       2.34136461        2       0.00000000      -0.08181263       0.06821824       0.22022211
Pt       2.69488844       3.03879626       2.35094492        3       0.00000000      -0.02399400      -0.03796525       0.23000320
Ni       5.33734760       3.02831598       2.33549193        2       1.00000000       0.00711067      -0.14225848       0.46293329
Pt       7.94409160       3.05698924       2.36476079        3       0.00000000      -0.04577464       0.00826669       0.26829616
Ni      10.65217568       3.07138818       2.31647512        2       1.00000000      -0.03495755      -0.04689037       0.36617274
Pt       4.00902216       5.35920088       2.30004693        2       0.00000000      -0.01009097      -0.09726638       0.15082195
Pt       6.63818078       5.33981539       2.28621855        2       0.00000000      -0.04279099      -0.01755048       0.17821916
Pt       9.33121488       5.38235901       2.30298509        2       0.00000000       0.00145431       0.06369640       0.29564581
Pt      12.00335861       5.39056894       2.33016658        2       0.00000000       0.04442052      -0.03252919       0.30850832
Pt       5.33214017       7.68018195       2.32524850        2       0.00000000       0.02878152      -0.04626295       0.28740617
Pt       8.02887968       7.71155101       2.33308085        2       0.00000000       0.09039932      -0.02612097       0.30039322
Pt      10.69924652       7.79431940       2.37841359        3       0.00000000       0.02080525       0.09688411       0.33507753
Ni      13.31386750       7.71107813       2.31059804        2       1.00000000       0.00207917       0.03341159       0.41633635
Pt       0.00425329       1.52920110       4.60214400        5       0.00000000      -0.05072584       0.09196579      -0.24654515
Pt       2.73368459       1.45119833       4.54943889        4       0.00000000       0.11006466      -0.08186367      -0.29321613
Ni       5.33208976       1.50569516       4.53520841        4       1.00000000      -0.01160966      -0.14303045      -0.53565324
Pt       7.88468585       1.51611193       4.54594776        4       0.00000000      -0.11549479      -0.06943264      -0.25293955
Pt       1.35276113       3.81313425       4.60116076        5       0.00000000       0.19636529      -0.05986449      -0.23981454
Pt       4.08356378       3.78971357       4.54530069        4       0.00000000       0.17366289      -0.06886135      -0.29796277
Ni       6.65038228       3.83080512       4.57548909        5       1.00000000       0.00285527       0.04150415      -0.32498942
Pt       9.26924934       3.82572734       4.60484257        5       0.00000000      -0.19509300      -0.03910893      -0.19409668
Pt       2.67650476       6.15881922       4.57904075        5       0.00000000       0.08770486      -0.12406078      -0.23629669
Pt       5.35702796       6.14292861       4.58683436        5       0.00000000       0.01122207       0.03662377      -0.17644630
Pt       7.98143653       6.17410669       4.57452608        5       0.00000000       0.00336313       0.05786645      -0.16725286
Pt      10.64632227       6.22676512       4.55454634        5       0.00000000      -0.05361980       0.12993251      -0.22891736
Pt       3.97749752       8.43512915       4.54245848        4       0.00000000      -0.07010193      -0.04384912      -0.32342489
Ni       6.68338458       8.44495912       4.56637834        5       1.00000000       0.00482334      -0.02593575      -0.34111257
Ni       9.34729468       8.47854840       4.54133239        4       1.00000000       0.08142853       0.04774979      -0.37609973
Ni      11.97290814       8.48728481       4.53166444        4       1.00000000      -0.05069684       0.09643180      -0.38854374
Pt      -0.00677560       0.01150583       6.78326718        7       0.00000000       0.12676940      -0.08333062       0.47166855
Pt       2.64039505      -0.00780572       6.75831964        7       0.00000000      -0.10632650      -0.11563686       0.31078400
Pt       5.32384755      -0.00164973       6.71819029        6       0.00000000       0.07580847       0.08832937       0.08240911
Pt       8.00467930      -0.00319232       6.77993649        7       0.00000000      -0.11815410       0.00065339       0.23573276
Ni       1.32082699       2.30210652       6.77457861        7       1.00000000       0.02646568      -0.03879473      -0.21196926
Pt       3.94946948       2.33180838       6.78596986        7       0.00000000       0.07998058       0.01233344       0.22977294
Pt       6.69476166       2.35830589       6.75552998        7       0.00000000      -0.15820237       0.09359808       0.14315530
Ni       9.32820825       2.31029052       6.76708754        7       1.00000000      -0.01905688      -0.06381113      -0.24029625
Ni       2.67097278       4.59983813       6.76656171        7       1.00000000       0.00258480      -0.00836062      -0.22281971
Pt       5.31009924       4.62779359       6.85418691        8       0.00000000      -0.03540286      -0.12077564      -0.10930659
Ni       7.99119425       4.59908249       6.76635968        7       1.00000000      -0.05683987      -0.00175744      -0.17678168
Pt      10.65435167       4.53512012       6.78207500        7       0.00000000       0.04379195       0.01752623       0.39434666
Ni       4.00002221       6.89519196       6.77044665        7       1.00000000       0.01031455       0.05974976      -0.13784041
Pt       6.64189410       6.89354385       6.86370972        8       0.00000000      -0.06874969       0.20450284       0.03760860
Pt       9.31612473       6.87696720       6.85453836        8       0.00000000       0.13415419      -0.03514605       0.06201836
Pt      12.04230235       6.88338548       6.77720558        7       0.00000000      -0.01621740       0.05313767       0.45122228
