64
Lattice="10.357148485506391 -0.03745548543230187 0.0032861678478291498 5.146136840857745 8.898145995990355 -0.07753433047040671 0.002683144812107132 -0.07464918218005534 8.817822761600473" Properties=species:S:1:pos:R:3:tags:I:1:initial_magmoms:R:1:forces:R:3 unique_id=e7385d736aeb47fcb84216e0a799d9bb stress="0.00027331237386116203 3.025718952347789e-06 -1.0593452459475743e-05 3.025718952347789e-06 0.00028223370584206514 2.3828509261638017e-05 -1.0593452459475743e-05 2.3828509261638017e-05 0.0002634307804887867" energy=-399.03082145407615 pbc="T T T"
Ni       0.00980280       0.01025804       0.17300176        4       1.00000000       0.08220676      -0.01092443       0.21933275
Ni       2.58187666      -0.01312710       0.20661532        4       1.00000000      -0.02458020      -0.03418097       0.39131185
Ni       5.16344493      -0.04736968       0.16044676        4       1.00000000      -0.05306355       0.08074099       0.27590447
Ni       7.78106981      -0.08215499       0.17834518        4       1.00000000       0.00581572      -0.17303080       0.35092102
Ni       1.25594883       2.22232378       0.08678250        4       1.00000000      -0.13423553      -0.02533619       0.23507668
Pt       3.80217033       2.21626087       0.09726896        4       0.00000000      -0.08372007      -0.01914214      -0.12782847
Pt       6.48092809       2.19286706       0.11674897        4       0.00000000       0.01801736      -0.07559660       0.18460177
Ni       9.09656561       2.18872029       0.13581130        4       1.00000000       0.09630241       0.01398804       0.14736951
Ni       2.57035856       4.45604750       0.03450772        4       1.00000000       0.08799381      -0.01007116       0.02943736
Ni       5.12650395       4.45142445       0.14484114        4       1.00000000      -0.05921416       0.02920009       0.32353176
Pt       7.83103011       4.44350880       0.07129756        4       0.00000000       0.14482285       0.02269672      -0.09652240
Ni      10.36815452       4.40505057       0.03543287        4       1.00000000       0.11758794      -0.10580920       0.10859753
Ni       3.82874157       6.66143458       0.13283134        4       1.00000000      -0.05139397      -0.09491979       0.29468947
Pt       6.42119994       6.69557285       0.13318189        4       0.00000000      -0.07695430      -0.04571618       0.05316092
Ni       9.05319685       6.65730483       0.00891525        4       1.00000000      -0.03940986      -0.01254790      -0.01744256
Ni      11.64522513       6.62986500       0.01116318        4       1.00000000       0.12371500      -0.08030910      -0.00272261
Ni       1.31377893       0.73740400       2.16890473        3       1.00000000       0.04432547       0.11987659      -0.05228429
Ni       3.84727110       0.73048048       2.19551525        3       1.00000000       0.00341600       0.03975208       0.01238557
Pt       6.45513253       0.74040795       2.26018614        3       0.00000000      -0.02961115       0.24329766      -0.02610310
Pt       9.12206112       0.72904976       2.18365382        3       0.00000000       0.02305645       0.09587551       0.12843790
Ni       2.58425971       2.93494961       2.18890885        3       1.00000000      -0.00141205       0.02898969       0.00891199
Ni       5.12477940       2.97984726       2.21206999        3       1.00000000      -0.19264116       0.05675162      -0.04847758
Ni       7.79747125       2.96577685       2.21945563        3       1.00000000       0.15759960       0.06587612      -0.07403434
Ni      10.35032469       2.91523681       2.17370210        3       1.00000000       0.07969540       0.06922853       0.01832538
Ni       3.89677335       5.16607359       2.17433072        3       1.00000000       0.05471676      -0.03754863       0.09769729
Ni       6.43875727       5.16303348       2.19482653        3       1.00000000      -0.02779119       0.11434648      -0.07213046
Ni       9.02002895       5.12152249       2.19746127        3       1.00000000      -0.02685132      -0.12699401       0.14225410
Pt      11.68378452       5.09446833       2.10684833        3       0.00000000       0.08679192      -0.05358866      -0.00562205
Ni       5.13105466       7.35780592       2.14350885        3       1.00000000      -0.12164826      -0.15929077      -0.06635049
Ni       7.73001831       7.37916184       2.14090992        3       1.00000000      -0.01391788      -0.12520119      -0.09651253
Pt      10.27955479       7.33663168       2.05087749        3       0.00000000       0.03537392      -0.13657218      -0.03984094
Ni      12.95329391       7.32957725       2.10873294        3       1.00000000      -0.00188230      -0.09658170      -0.00838515
Ni      -0.01628064       1.48054898       4.34871655        2       1.00000000       0.03134192       0.02473445      -0.10505262
Pt       2.61384172       1.49493886       4.31027875        2       0.00000000      -0.01176310      -0.01571423      -0.10399385
Ni       5.15854551       1.46946999       4.35040492        2       1.00000000      -0.05039846       0.11374567      -0.08671584
Ni       7.79987390       1.45913768       4.34912651        2       1.00000000       0.15561090       0.07076399      -0.05815946
Pt       1.27887252       3.66590430       4.38316323        2       0.00000000      -0.03393612      -0.05190145      -0.09041219
Ni       3.88098244       3.69510849       4.31671059        2       1.00000000       0.00183065       0.10783626      -0.25488541
Pt       6.47482345       3.69105657       4.23288830        2       0.00000000      -0.07977622      -0.05277391      -0.00246781
Ni       9.03219718       3.62910567       4.32072371        2       1.00000000      -0.01585664      -0.09546130      -0.29994881
Ni       2.59455800       5.85493464       4.31841728        2       1.00000000       0.05220587      -0.11579830      -0.17518495
Ni       5.13445288       5.84744012       4.27124412        2       1.00000000      -0.07704535      -0.06572610      -0.19406181
Ni       7.75375186       5.83525720       4.29105458        2       1.00000000      -0.03488226      -0.02424696      -0.27658642
Pt      10.28868687       5.80965311       4.39066331        2       0.00000000      -0.07032200      -0.04740016      -0.10859759
Pt       3.86101511       8.09103801       4.23255066        2       0.00000000      -0.04804688      -0.09779788       0.09855050
Pt       6.42747006       8.08111350       4.18135732        2       0.00000000      -0.04721489      -0.04110793      -0.03042008
Pt       9.01079180       8.09223750       4.25873259        2       0.00000000      -0.01873558       0.04062175       0.05025980
Pt      11.64317729       8.08347859       4.29043230        2       0.00000000       0.03940422      -0.09935484       0.14720393
Pt       0.02725018       0.00018824       6.59352091        1       0.00000000       0.00690711       0.07326010       0.05565539
Pt       2.60293102      -0.00111720       6.62743638        1       0.00000000      -0.00045724       0.14489949       0.24830498
Pt       5.16174386      -0.11929578       6.60922082        1       0.00000000      -0.00259910      -0.10740450       0.10284936
Pt       7.76495795      -0.08603181       6.61728336        1       0.00000000       0.03889864       0.07947674       0.16867606
Ni       1.31153350       2.23717735       6.52925677        1       1.00000000       0.07806742       0.17854313      -0.05070706
Ni       3.84565530       2.19714319       6.45210098        1       1.00000000      -0.06755763       0.06882035      -0.25804634
Pt       6.46183745       2.17795265       6.42675822        1       0.00000000       0.02157220       0.09116631      -0.38507980
Pt       9.11862891       2.26496382       6.50609367        1       0.00000000       0.13951508       0.19780394       0.05721892
Ni       2.52587146       4.37317880       6.50510189        1       1.00000000      -0.14554535      -0.02488066      -0.13280426
Pt       5.09506920       4.34984077       6.50630448        1       0.00000000      -0.09493191      -0.03397827       0.07846241
Ni       7.80314990       4.40705580       6.42118070        1       1.00000000       0.08956963       0.10391836      -0.32086444
Ni      10.36227672       4.40505953       6.52389432        1       1.00000000       0.08352012       0.19171789       0.00164259
Pt       3.78412287       6.55967449       6.50491676        1       0.00000000      -0.10683898       0.00339679       0.15839550
Pt       6.51588623       6.55675884       6.41719894        1       0.00000000       0.00232298       0.01623584      -0.27123651
Ni       9.06346189       6.54982418       6.49918583        1       1.00000000      -0.01746165      -0.07746581      -0.12097739
Ni      11.60209211       6.53536570       6.50265005        1       1.00000000      -0.04050776      -0.11318725      -0.12870713
