64
Lattice="10.358479449269936 -0.03854485261188221 -0.0005926803447743608 5.145858903087949 8.931844297228338 -0.033343613589382835 -0.0004839214750913855 -0.031157268177178447 8.841232177479876" Properties=species:S:1:pos:R:3:tags:I:1:initial_magmoms:R:1:forces:R:3 unique_id=91d1d835fee04ddd93290cc95c1c62da stress="0.0003232830841509854 1.1904255770009745e-06 2.8164793062658923e-07 1.1904255770009745e-06 0.0003263264413022812 8.744519466922714e-06 2.8164793062658923e-07 8.744519466922714e-06 0.00030480688242515847" energy=-399.7460896423097 pbc="T T T"
Ni       0.01422873       0.01095005       0.16413437        4       1.00000000       0.13585821      -0.00965685       0.15170897
Ni       2.58220776      -0.00844264       0.20144330        4       1.00000000      -0.02130426      -0.00742044       0.38837657
Ni       5.16289454      -0.04230902       0.15164067        4       1.00000000      -0.08623013       0.09821866       0.23037739
Ni       7.77946284      -0.07983945       0.17465131        4       1.00000000      -0.01341071      -0.17123136       0.31874489
Ni       1.25581383       2.23521651       0.09604199        4       1.00000000      -0.14432674       0.00852905       0.24170506
Pt       3.80142045       2.22971862       0.10961024        4       0.00000000      -0.09300414       0.01986525      -0.11826260
Pt       6.47896436       2.21435294       0.13394947        4       0.00000000      -0.00493841      -0.01207632       0.25003814
Ni       9.09564420       2.20553170       0.15116312        4       1.00000000       0.09512904       0.08202796       0.20814431
Ni       2.56906124       4.47596950       0.05806445        4       1.00000000       0.08033724       0.01870639       0.04062136
Ni       5.12609641       4.47149772       0.16324023        4       1.00000000      -0.07722668       0.06339060       0.34072107
Pt       7.83092624       4.46655762       0.09331180        4       0.00000000       0.15322263       0.07697582      -0.10827734
Ni      10.36904644       4.42455458       0.05438476        4       1.00000000       0.12465796      -0.07917525       0.11483109
Ni       3.82818314       6.69025876       0.16476745        4       1.00000000      -0.05970140      -0.07421909       0.32406476
Pt       6.42287812       6.72472729       0.16715132        4       0.00000000      -0.06536158      -0.01263110       0.02561146
Ni       9.05302662       6.68474150       0.04082557        4       1.00000000      -0.04632675       0.01246245      -0.02229026
Ni      11.64403017       6.65773724       0.04191905        4       1.00000000       0.11190539      -0.05230414       0.00819225
Ni       1.31818608       0.75044495       2.17648058        3       1.00000000       0.09158240       0.12532154      -0.08587110
Ni       3.84301279       0.74286748       2.20333212        3       1.00000000      -0.03571459       0.03896109       0.00744439
Pt       6.43105991       0.72787579       2.23541442        3       0.00000000      -0.09097874       0.15591732      -0.06038250
Pt       9.14225100       0.72184451       2.15364813        3       0.00000000       0.07561944       0.03765818       0.09349520
Ni       2.58326982       2.95836357       2.20643797        3       1.00000000      -0.00709450       0.04171578       0.00083223
Ni       5.12375248       3.00134884       2.23034934        3       1.00000000      -0.19397282       0.05413184      -0.01269765
Ni       7.79293536       3.00014479       2.21865194        3       1.00000000       0.11767718       0.11584933      -0.06787452
Ni      10.35393065       2.93694649       2.18958188        3       1.00000000       0.08201476       0.05285162       0.03052242
Ni       3.89531081       5.19685566       2.20415988        3       1.00000000       0.06551497      -0.04187856       0.09382098
Ni       6.43831492       5.19689775       2.21993617        3       1.00000000      -0.03770191       0.13844216      -0.09122301
Ni       9.01893133       5.15256001       2.22522988        3       1.00000000      -0.03436286      -0.12255948       0.14763510
Pt      11.68313196       5.12431497       2.13278980        3       0.00000000       0.08375035      -0.05970970      -0.00738942
Ni       5.13706642       7.39228593       2.18285765        3       1.00000000      -0.09061712      -0.19367815      -0.06731211
Ni       7.72687378       7.41810806       2.18345965        3       1.00000000      -0.02791142      -0.11679886      -0.08388634
Pt      10.27266269       7.36766304       2.08893726        3       0.00000000      -0.00234002      -0.18090075      -0.04179808
Ni      12.95325269       7.36397403       2.14742340        3       1.00000000       0.00141509      -0.13882227      -0.02325670
Ni       0.01354788       1.50268331       4.37148269        2       1.00000000       0.11398412       0.00146079      -0.11686227
Pt       2.61221034       1.52170362       4.32844322        2       0.00000000       0.02059969      -0.02778678      -0.12281077
Ni       5.14608473       1.49605864       4.37303695        2       1.00000000       0.00699981       0.10939024      -0.09490622
Pt       7.82156886       1.51083961       4.33547381        2       0.00000000       0.12865841       0.05287065       0.12179625
Pt       1.28182876       3.70287293       4.41485009        2       0.00000000      -0.02847935      -0.05432683      -0.09243562
Ni       3.87441058       3.72944094       4.34836913        2       1.00000000      -0.01439685       0.10592492      -0.25932000
Pt       6.44027341       3.77221916       4.26787052        2       0.00000000      -0.07129673      -0.05351218      -0.02375226
Ni       9.04509902       3.69873822       4.35346328        2       1.00000000      -0.01281786       0.00512889      -0.26353321
Ni       2.59317178       5.88932923       4.36152483        2       1.00000000       0.05313455      -0.16956828      -0.17262510
Ni       5.13092371       5.89729789       4.31359347        2       1.00000000      -0.10415550      -0.03707937      -0.20328628
Ni       7.75303993       5.88671624       4.33381345        2       1.00000000      -0.03559380       0.00887471      -0.27686932
Pt      10.28562015       5.84895519       4.43050398        2       0.00000000      -0.03925538      -0.01218031      -0.10802996
Pt       3.86886060       8.10470300       4.28181806        2       0.00000000      -0.02193109      -0.13095245       0.04350707
Pt       6.43180045       8.13279674       4.23255872        2       0.00000000      -0.05550616      -0.04106392      -0.05421342
Pt       9.00825512       8.14289706       4.30948693        2       0.00000000       0.01737750       0.04822872       0.02057863
Pt      11.63597450       8.09913719       4.34379570        2       0.00000000       0.04261731      -0.10146683       0.09275232
Pt       0.02269585       0.02593759       6.60710751        1       0.00000000      -0.01789004       0.03351494      -0.00237961
Pt       2.60100580       0.02561463       6.64079416        1       0.00000000      -0.00613715       0.10359873       0.22872373
Pt       5.15922070      -0.09331726       6.62083763        1       0.00000000      -0.00446316      -0.14869611       0.06562297
Pt       7.76029831      -0.06982106       6.64807186        1       0.00000000       0.03832726       0.08244347       0.17114542
Ni       1.31428914       2.27177919       6.55980704        1       1.00000000       0.11151794       0.14552489      -0.05090556
Ni       3.83959373       2.23386687       6.48242417        1       1.00000000      -0.08930340       0.05782255      -0.25156431
Pt       6.44176099       2.22488486       6.48768342        1       0.00000000       0.02163456       0.06535985      -0.35015796
Pt       9.13360643       2.31083648       6.57802164        1       0.00000000       0.14165000       0.20397835       0.12081038
Ni       2.52321488       4.41989449       6.54571619        1       1.00000000      -0.16590550      -0.05781064      -0.12638110
Pt       5.08771380       4.40105664       6.54974822        1       0.00000000      -0.12267781      -0.05623391       0.09206971
Ni       7.80037764       4.45267135       6.46325976        1       1.00000000       0.08576500       0.08871129      -0.31312073
Ni      10.36370655       4.45253510       6.56139234        1       1.00000000       0.11253984       0.18298859       0.00184956
Pt       3.78181993       6.60973894       6.56174180        1       0.00000000      -0.13640337       0.00309454       0.17983189
Pt       6.51406550       6.61164701       6.46950507        1       0.00000000       0.00321401      -0.01028690      -0.24450363
Ni       9.06326223       6.60496191       6.54715367        1       1.00000000      -0.00611239      -0.10951514      -0.11988684
Ni      11.59881287       6.58639492       6.55338826        1       1.00000000      -0.05185432      -0.15639920      -0.11750977
