64
Lattice="10.225421456206437 -0.013086890473434944 -0.007025717138738293 5.101377148496679 8.85542350436104 0.03255401310448067 0.0 0.0 21.599026025316654" Properties=species:S:1:pos:R:3:tags:I:1:initial_magmoms:R:1:forces:R:3 unique_id=fd1d4a8de053474083a45d0df518d2bc energy=-371.8304273979698 stress="0.00421400918111579 -1.1129240802714616e-05 6.0631220308811595e-05 -1.1129240802714616e-05 0.004359276530094153 0.00027531592102351374 6.0631220308811595e-05 0.00027531592102351374 -0.0023378462888371428" pbc="T T T"
Ni       0.06159457       0.02712393       0.16754953        2       1.00000000       0.14538708       0.12814108      -0.62785103
Ni       2.54003774      -0.02768351       0.21982450        2       1.00000000       0.01282030      -0.04614933      -0.20616455
Ni       5.07284539      -0.03641933       0.08393137        1       1.00000000      -0.09867603       0.01379546       0.08904326
Pt       7.69250782      -0.05996609       0.00000000        0       0.00000000       0.06766719      -0.00206571      -0.59513983
Ni       1.23608366       2.23535278       0.13504262        1       1.00000000      -0.00762821       0.06039346       0.38634653
Pt       3.75984458       2.22647462       0.23039478        2       0.00000000      -0.02948117       0.05960983      -0.66781209
Pt       6.42369142       2.30851190       0.06122741        1       0.00000000      -0.03177250       0.21947790      -0.39183241
Ni       8.99693636       2.26881446       0.08903953        1       1.00000000      -0.00330690       0.12207299       0.16748238
Ni       2.51644063       4.45654202       0.13949009        1       1.00000000      -0.07653139       0.00384942       0.39761910
Ni       5.08392695       4.47008619       0.19692548        2       1.00000000      -0.17188218      -0.01924664      -0.28613714
Ni       7.71860938       4.45893581       0.10604125        1       1.00000000       0.22911820       0.10384494       0.10403073
Ni      10.22590291       4.41474157       0.12687941        1       1.00000000      -0.00303730       0.11081126       0.41445667
Ni       3.83901694       6.58791515       0.09766719        1       1.00000000      -0.03195123      -0.10508621       0.03896170
Ni       6.40914614       6.64120484       0.09619448        1       1.00000000       0.14650778       0.03303269       0.03904963
Ni       8.91614493       6.61879382       0.18323058        2       1.00000000      -0.14491577      -0.14273464      -0.06919678
Ni      11.47165828       6.57686649       0.09267947        1       1.00000000      -0.09247222      -0.12639581       0.18898362
Ni       1.32445973       0.78626758       2.17700652        3       1.00000000       0.10951115       0.16707998      -0.00497237
Ni       3.77795871       0.71710598       2.22486553        3       1.00000000      -0.02492198      -0.10866387       0.18699746
Pt       6.34523933       0.76299617       2.21580315        3       0.00000000      -0.01493678       0.04976252       0.03471073
Pt       9.02797683       0.84204723       2.19787030        3       0.00000000       0.05584831       0.06290277       0.06322936
Ni       2.51471090       3.00354457       2.24112925        3       1.00000000      -0.10591292       0.16862217       0.06809605
Ni       5.06332796       2.99450564       2.26060453        4       1.00000000      -0.06929420       0.01356603       0.28639957
Ni       7.71706542       2.99795709       2.22551549        3       1.00000000       0.11438382       0.01745183       0.08131764
Ni      10.24678984       3.00732327       2.20336926        3       1.00000000       0.07339447       0.12426086      -0.00721792
Ni       3.80380460       5.10329875       2.24243020        3       1.00000000      -0.02360118      -0.16632828       0.11553448
Pt       6.44053406       5.14440176       2.18969329        3       0.00000000       0.14577604      -0.00406676       0.01153439
Ni       8.96174629       5.11686377       2.23464871        3       1.00000000       0.13260767      -0.15660490       0.09613858
Ni      11.47665829       5.10052761       2.20566143        3       1.00000000      -0.12018539      -0.10136062      -0.04757597
Pt       5.14497935       7.36405294       2.17590910        3       0.00000000      -0.08049162      -0.04957757      -0.00341830
Ni       7.67149265       7.39240190       2.22583728        3       1.00000000      -0.00743886      -0.04525962       0.12019096
Pt      10.12810168       7.31253466       2.25970789        4       0.00000000      -0.02401496      -0.09200453       0.06906679
Pt      12.74452933       7.25345942       2.24876436        3       0.00000000      -0.03242012      -0.19448829       0.02178835
Ni      -0.00092746       1.53111603       4.40524502        6       1.00000000       0.04489740       0.01604169      -0.07754120
Pt       2.50730976       1.51408160       4.28880680        5       0.00000000      -0.03306425      -0.00710084      -0.06916270
Pt       5.09645952       1.43979963       4.39142850        6       0.00000000      -0.07252599      -0.07287514      -0.05023279
Pt       7.73559558       1.52204732       4.45009079        7       0.00000000       0.13340047       0.00871218      -0.12155109
Pt       1.22834607       3.78161040       4.39684887        6       0.00000000      -0.02587202       0.02935307       0.00095413
Ni       3.81211385       3.77008419       4.35825577        6       1.00000000      -0.03482413       0.08348482      -0.22161675
Pt       6.41011222       3.76463421       4.39682035        6       0.00000000      -0.01397866       0.06677697      -0.05406725
Ni       8.96043871       3.74495605       4.40350794        6       1.00000000       0.02085544       0.18250113      -0.07898705
Ni       2.53037409       5.89295612       4.44905428        6       1.00000000      -0.07689940      -0.07383645       0.00695604
Ni       5.07197551       5.89688020       4.40788550        6       1.00000000      -0.01312382      -0.09207731      -0.21007738
Ni       7.71337819       5.90139294       4.40120444        6       1.00000000       0.20084258      -0.05148625      -0.16402920
Ni      10.21026724       5.91727870       4.40717799        6       1.00000000      -0.04806856       0.01093950      -0.09819366
Pt       3.77768840       8.05137594       4.45538909        7       0.00000000       0.02301313      -0.06801172      -0.09327581
Pt       6.42084479       8.05006528       4.38321628        6       0.00000000       0.10221314      -0.16565788       0.00546794
Ni       8.96285905       8.08134614       4.40568995        6       1.00000000      -0.02554618      -0.06719402      -0.09249469
Ni      11.45309561       8.05769952       4.46029906        7       1.00000000      -0.12350973      -0.17853702      -0.06887644
Pt      -0.06461620       0.05418595       6.59539925       10       0.00000000      -0.16365023       0.16967216       0.32284448
Pt       2.57484399      -0.00487767       6.59902603       10       0.00000000       0.14494907      -0.03944389       0.26946644
Ni       5.16450579      -0.01634179       6.52127845        9       1.00000000      -0.00047145      -0.09241862      -0.08916695
Ni       7.60570608      -0.01260114       6.43422957        8       1.00000000      -0.09825177      -0.07863328       0.58516098
Ni       1.22428871       2.28264818       6.55057694       10       1.00000000      -0.04313038      -0.01731492      -0.15775223
Pt       3.81030068       2.28524007       6.52065475        9       0.00000000       0.04905725       0.27800978       0.83192694
Ni       6.42167717       2.22139855       6.47273393        9       1.00000000      -0.06248737       0.08533055       0.53614150
Ni       8.94672499       2.28024261       6.54275791        9       1.00000000       0.06082082       0.11513051      -0.09976462
Ni       2.50465646       4.49817931       6.54515482        9       1.00000000       0.01611360       0.06296606      -0.24787033
Pt       5.10290064       4.53406494       6.58208387       10       0.00000000      -0.15372082      -0.12528519       0.23839788
Ni       7.69033587       4.41960787       6.54743369        9       1.00000000       0.10557238      -0.07777177      -0.14242071
Ni      10.22522582       4.41478079       6.54588671        9       1.00000000      -0.02166772      -0.01897323      -0.26137329
Ni       3.77409017       6.64769146       6.56162477       10       1.00000000      -0.13127522       0.02563749      -0.04490525
Ni       6.37703214       6.64200532       6.55650851       10       1.00000000       0.09402763       0.06493365      -0.05041523
Pt       8.98757479       6.57632586       6.54327199        9       0.00000000       0.07955945      -0.01894678      -0.02711904
Ni      11.52205882       6.64741533       6.52536219        9       1.00000000       0.02859626      -0.05256769      -0.35008226
