64
Lattice="10.803706506926279 0.000658409899500159 0.0011335082343506674 5.402423453162211 9.356975397836473 -0.0011171589909401967 0.0 0.0 22.015337481365265" Properties=species:S:1:pos:R:3:tags:I:1:initial_magmoms:R:1:forces:R:3 unique_id=43857a1391bc489daa0b821a33838094 energy=-407.13543425343863 stress="0.0024365802939533433 -7.400699684554454e-06 -1.935510166017273e-06 -7.400699684554454e-06 0.002414437076530397 1.0440669549211728e-05 -1.935510166017273e-06 1.0440669549211728e-05 -0.002036999083311933" pbc="T T T"
Pt      -0.00129777      -0.00110055       0.07139457        1       0.00000000      -0.03228392      -0.01249383      -0.20253785
Pt       2.70106612      -0.00010024       0.07302479        1       0.00000000      -0.01361712       0.00784450      -0.30710868
Pt       5.40152535       0.00009285       0.07361687        1       0.00000000       0.02077603       0.00083501      -0.29695179
Pt       8.10438085      -0.00067170       0.07143334        1       0.00000000       0.02595914      -0.02213844      -0.20933438
Pt       1.35342854       2.34243293       0.06742625        1       0.00000000      -0.01945470      -0.02855176      -0.27070887
Pt       4.04873557       2.34257417       0.06724241        1       0.00000000       0.01151114      -0.01901599      -0.28334374
Pt       6.75248303       2.33959125       0.07258224        1       0.00000000       0.00269553      -0.00677999      -0.30385813
Pt       9.45346317       2.34022437       0.07105890        1       0.00000000       0.00603373      -0.02776970      -0.28213679
Pt       2.70111922       4.67825966       0.00000000        0       0.00000000       0.00506426       0.01374569       0.03206949
Pt       5.39806712       4.67928431       0.06736996        1       0.00000000       0.01662754       0.01308551      -0.27148535
Pt       8.10284531       4.67886149       0.07405180        1       0.00000000      -0.00312633      -0.00981911      -0.28523214
Pt      10.80854918       4.67956720       0.06889389        1       0.00000000      -0.01900126      -0.00151697      -0.25836176
Pt       4.05045090       7.01563568       0.06587426        1       0.00000000       0.01066481       0.04705818      -0.17982502
Pt       6.75338702       7.01761406       0.07031846        1       0.00000000      -0.03697033       0.01052879      -0.28242799
Pt       9.45350125       7.01843530       0.07342420        1       0.00000000       0.01089560      -0.00258521      -0.29459238
Pt      12.15552522       7.01396966       0.06581795        1       0.00000000       0.01599216       0.03416843      -0.24802061
Pt       1.34820480       0.77905919       2.37816481        2       0.00000000       0.00300972       0.02137309       0.53736569
Pt       4.05167665       0.78043768       2.37604246        2       0.00000000      -0.01074790       0.02575447       0.55275056
Pt       6.75489239       0.77817034       2.38184624        2       0.00000000       0.00515834      -0.00668510       0.54320296
Pt       9.45361474       0.76805204       2.40462941        2       0.00000000       0.00194292      -0.03246350       0.59888849
Pt       2.70110141       3.12395237       2.38010911        2       0.00000000      -0.00194162       0.06781871       0.53022336
Pt       5.40270643       3.11886536       2.37486353        2       0.00000000      -0.03005941       0.01930543       0.56255301
Pt       8.10471173       3.11617251       2.38203295        2       0.00000000       0.01199193      -0.02092625       0.57158506
Pt      10.80249230       3.11595103       2.37830681        2       0.00000000       0.02035723      -0.00517465       0.57402412
Pt       4.04777027       5.45803667       2.38197937        2       0.00000000      -0.05352942      -0.02482092       0.51286118
Pt       6.75001933       5.46035058       2.37843068        2       0.00000000      -0.04378354       0.01942828       0.56498543
Pt       9.45463796       5.45773168       2.37726854        2       0.00000000       0.02903342      -0.00497759       0.54789172
Pt      12.16082858       5.45856267       2.38325666        2       0.00000000       0.06759796      -0.01175820       0.53450114
Pt       5.39154318       7.80249066       2.40041136        2       0.00000000      -0.04056711      -0.00986990       0.59309539
Pt       8.10019263       7.79760744       2.37871718        2       0.00000000      -0.02731752       0.00102825       0.55849350
Pt      10.80881911       7.79716697       2.37849648        2       0.00000000       0.04570717      -0.02295484       0.56534930
Pt      13.51537734       7.80374042       2.40035639        2       0.00000000       0.02354286      -0.02789076       0.60879975
Pt      -0.01493550       1.53245673       4.70586757        3       0.00000000      -0.01650140      -0.02227038      -0.52870229
Pt       2.69627609       1.55850883       4.70805566        3       0.00000000      -0.04861632      -0.02873148      -0.54130242
Pt       5.40592837       1.55922632       4.70801582        3       0.00000000       0.03055822       0.00436915      -0.54485960
Pt       8.12068207       1.52951186       4.70543446        3       0.00000000       0.03608354      -0.05951021      -0.51208222
Pt       1.36339266       3.90507378       4.73277720        3       0.00000000       0.10019336       0.07126993      -0.39323201
Pt       4.04020866       3.91109796       4.73297910        3       0.00000000      -0.09843281       0.11889676      -0.37263395
Pt       6.74927234       3.89808988       4.70733543        3       0.00000000      -0.03720477       0.00133655      -0.57094856
Pt       9.45766573       3.89202933       4.70680033        3       0.00000000       0.03745873      -0.05421006      -0.56187672
Pt       2.71737396       6.25266558       4.72849759        3       0.00000000       0.02023797      -0.05569803      -0.39303413
Pt       5.38284494       6.26608060       4.70633543        3       0.00000000      -0.04206934       0.06800354      -0.52510984
Pt       8.09816700       6.24039761       4.70369348        3       0.00000000      -0.04888033       0.01639698      -0.54886538
Pt      10.81175752       6.23956996       4.70701370        3       0.00000000       0.03784838       0.03171094      -0.55858695
Ni       4.05111576       8.57587208       4.72104298        3       1.00000000      -0.01564208      -0.01099427      -0.52832123
Pt       6.71868053       8.57636174       4.70294221        3       0.00000000      -0.08032478       0.00403542      -0.51410372
Pt       9.45441978       8.57691052       4.70429434        3       0.00000000       0.01082885       0.00400695      -0.55711335
Pt      12.19219724       8.57331542       4.70587316        3       0.00000000       0.10636606      -0.04111451      -0.52834547
Pt      -0.00846491      -0.00670479       6.98711336        4       0.00000000      -0.13180537      -0.07241522       0.18676326
Pt       2.69915738       0.00408362       7.00555062        4       0.00000000      -0.01589260       0.05220700       0.25080236
Pt       5.40469037      -0.00178072       7.00499022        4       0.00000000       0.01528444      -0.01620646       0.24467578
Pt       8.11258525      -0.01034762       6.98802783        4       0.00000000       0.13358730      -0.15028180       0.19787910
Pt       1.36551230       2.36350537       7.00266919        4       0.00000000       0.00095902       0.01195069       0.20287277
Pt       4.03586051       2.36583108       7.00518921        4       0.00000000      -0.02735120       0.01254320       0.24811652
Pt       6.75096546       2.33892746       7.00464934        4       0.00000000      -0.03693463       0.02914207       0.25497238
Pt       9.45804265       2.33909787       7.00480843        4       0.00000000       0.05963559       0.05755010       0.28441147
Ni       2.70220839       4.67692482       7.01533748        4       1.00000000      -0.00448680       0.00105073      -0.44014229
Pt       5.37004077       4.68056850       7.00258763        4       0.00000000      -0.02396270       0.04194634       0.19969749
Pt       8.10384833       4.67806649       7.00834197        4       0.00000000       0.01337990       0.00689278       0.30986676
Pt      10.83671159       4.67840209       7.00687855        4       0.00000000       0.01532396       0.01689034       0.26310416
Pt       4.03747489       6.99999445       6.98587562        4       0.00000000      -0.01141637       0.12601757       0.14569060
Pt       6.74724181       7.01460868       7.00439382        4       0.00000000      -0.03741226      -0.05082994       0.27926865
Pt       9.45940175       7.01371627       7.00877417        4       0.00000000       0.06453015      -0.04998889       0.31377459
Pt      12.17288240       6.98993059       7.00218133        4       0.00000000      -0.00750301      -0.04774742       0.22464956
