64
Lattice="10.228465016225314 0.027255623357565015 -0.045134941225141674 5.137836570336286 8.799414946841328 -0.0997662474453416 0.0 0.0 21.531347430188156" Properties=species:S:1:pos:R:3:tags:I:1:initial_magmoms:R:1:forces:R:3 unique_id=b7702d5a15ee483b8e8cd566f60082a4 energy=-371.1953661232295 stress="0.005257526070226557 3.312648399181893e-05 -0.0001259800539371854 3.312648399181893e-05 0.004494923131871281 -0.00021992633129294564 -0.0001259800539371854 -0.00021992633129294564 -0.0011809917349427344" pbc="T T T"
Ni       0.03353713      -0.05017117       0.20756999        2       1.00000000       0.11774155      -0.02758973      -0.15146311
Ni       2.49626723      -0.02973368       0.21384029        2       1.00000000      -0.03159444      -0.01253067      -0.10302848
Pt       5.10373785      -0.05720564       0.14888289        1       0.00000000      -0.11931446       0.04383048      -0.98908969
Ni       7.69085779      -0.04299896       0.16335495        2       1.00000000      -0.05707297      -0.05157491      -0.23942584
Ni       1.27484398       2.20546421       0.11318906        1       1.00000000      -0.02083691       0.01187849       0.36432187
Pt       3.73206400       2.21930357       0.17749530        2       0.00000000       0.04365103       0.00049211      -0.51764252
Pt       6.42657785       2.22389886       0.07999347        1       0.00000000      -0.04601463      -0.00432522      -0.28088284
Pt       9.03709813       2.25784348       0.09351827        1       0.00000000       0.06259206       0.08779729      -0.58626779
Ni       2.51121855       4.43456041       0.07484824        1       1.00000000      -0.02697336       0.04261417       0.41427252
Pt       5.10673333       4.51671544       0.05632911        1       0.00000000      -0.11051609       0.08458982       0.05405248
Ni       7.69234735       4.45888210       0.02404185        0       1.00000000      -0.01065184       0.03389104       0.09598407
Ni      10.28243877       4.44472337       0.02027590        0       1.00000000       0.11727537       0.06184617       0.31715489
Ni       3.82240169       6.62955403       0.05358618        1       1.00000000      -0.00296814       0.06939818       0.35168425
Ni       6.42067625       6.64094981       0.04765080        0       1.00000000      -0.02116959       0.06942306       0.33253481
Ni       8.93272392       6.57151158       0.08384818        1       1.00000000      -0.07551487       0.03597492      -0.19473505
Ni      11.56171324       6.56185314       0.00000000        0       1.00000000       0.04594345      -0.01712612       0.25775712
Ni       1.29807194       0.72431826       2.22303372        4       1.00000000       0.01587810       0.08759226       0.22838980
Ni       3.76160127       0.73534986       2.21574866        4       1.00000000      -0.21540291      -0.02753025       0.11109465
Ni       6.41192486       0.74316145       2.21462646        4       1.00000000       0.10322328      -0.02192942       0.15043275
Pt       8.96770457       0.72592303       2.20696426        4       0.00000000       0.10573257       0.05640916       0.00236795
Ni       2.51314404       2.94293542       2.25322022        5       1.00000000       0.00607611       0.03720973       0.21941192
Ni       5.09452138       2.96353686       2.19765631        4       1.00000000      -0.11709033       0.17908268       0.07793756
Ni       7.65352301       2.93667217       2.20785219        4       1.00000000      -0.06229038      -0.08125906       0.16672756
Ni      10.30325624       2.94288523       2.20517543        4       1.00000000       0.18280149      -0.05805196       0.26925461
Ni       3.81299904       5.12506013       2.19594278        4       1.00000000      -0.04130710      -0.03973320       0.19609016
Ni       6.37758054       5.15877233       2.16336829        4       1.00000000      -0.05735587       0.07912639       0.09752055
Pt       8.93182675       5.07469416       2.15360666        4       0.00000000      -0.02705564      -0.14997395       0.04751792
Ni      11.56402975       5.09497849       2.13262346        3       1.00000000       0.13146412      -0.20222712       0.20540951
Ni       5.15521063       7.27161386       2.11284404        3       1.00000000       0.00501283      -0.14245585       0.04590138
Ni       7.60935160       7.33102578       2.09332632        3       1.00000000      -0.14159029      -0.05291102       0.08474216
Pt      10.31562185       7.27400940       2.15727089        4       0.00000000       0.17761276      -0.10870472      -0.06507108
Ni      12.81773779       7.28037631       2.07494388        3       1.00000000       0.14479325      -0.18878476       0.02996629
Ni       0.04150417       1.46356410       4.32577692        7       1.00000000       0.16244289       0.01729614      -0.13960546
Ni       2.47569486       1.47870311       4.28515594        7       1.00000000      -0.09054734       0.07421306      -0.22319061
Pt       5.10987998       1.46652220       4.21546679        6       0.00000000      -0.10678892      -0.02551998      -0.13996606
Ni       7.66721414       1.45801800       4.28945152        7       1.00000000       0.03153981      -0.05581506      -0.24669589
Ni       1.27653698       3.63442945       4.32990139        7       1.00000000       0.05867295      -0.00895872      -0.10758837
Ni       3.77446626       3.70595373       4.26839739        7       1.00000000      -0.10164434       0.13301926      -0.28563061
Pt       6.41391639       3.71304921       4.28582484        7       0.00000000       0.01797648      -0.02556232      -0.09832768
Ni       8.98842201       3.67796062       4.26510493        7       1.00000000       0.14639307       0.03126157      -0.13352590
Ni       2.54013998       5.77821046       4.30718707        7       1.00000000      -0.05691205      -0.13542281      -0.18958937
Ni       5.10591094       5.82886235       4.28973786        7       1.00000000       0.00781579      -0.01808280      -0.20774824
Ni       7.63654583       5.83880115       4.27372420        7       1.00000000      -0.10208821       0.08786345      -0.15967433
Ni      10.27954058       5.78987745       4.29036293        7       1.00000000       0.14213794      -0.07747026      -0.03043224
Pt       3.84588240       7.94559434       4.22385587        6       0.00000000       0.01112278      -0.08626736       0.06644866
Ni       6.37713842       8.01173407       4.21065045        6       1.00000000      -0.12734743      -0.02721596      -0.27834384
Pt       8.87312880       7.99978006       4.17363162        6       0.00000000      -0.14683632       0.05958951      -0.07131118
Ni      11.53869928       7.99350339       4.21915591        6       1.00000000       0.06662050      -0.12084637      -0.08415239
Pt      -0.01461722      -0.09099387       6.53134743       10       0.00000000       0.03002051       0.10213514       0.19826261
Pt       2.50943595      -0.03434506       6.51583053       10       0.00000000       0.00041086       0.10816717       0.26936507
Pt       5.11090672      -0.05234224       6.41436988        9       0.00000000       0.06219288       0.00367293       1.03113385
Pt       7.64765079      -0.07386762       6.48691300       10       0.00000000      -0.06964809       0.13040996       0.33253422
Ni       1.25335926       2.21492398       6.44174723        9       1.00000000       0.02893741       0.08566364      -0.25007333
Pt       3.78482181       2.28970982       6.38570234        9       0.00000000      -0.06430092       0.15458504       0.48777053
Ni       6.38099701       2.21598240       6.37571033        9       1.00000000       0.00834556       0.03667236       0.21243520
Pt       8.94694630       2.27080480       6.31930371        8       0.00000000      -0.01103460      -0.08397495       0.58899262
Ni       2.51251794       4.40538046       6.41488504        9       1.00000000       0.03700261       0.03251379      -0.42583259
Ni       5.10495825       4.41657518       6.34989749        8       1.00000000      -0.11954221       0.08456532       0.05142299
Ni       7.61669243       4.37200757       6.42071426        9       1.00000000      -0.08278112      -0.03713315      -0.07308753
Ni      10.28252295       4.36980260       6.38632611        9       1.00000000       0.14362013      -0.02872016      -0.31073184
Ni       3.82677533       6.47118713       6.41500904        9       1.00000000       0.00142351      -0.15796757      -0.31024514
Ni       6.36000042       6.49433566       6.39240895        9       1.00000000      -0.02953653      -0.01589859      -0.32220732
Pt       8.94259813       6.42971515       6.41906338        9       0.00000000       0.06542773      -0.06728168       0.14270650
Ni      11.53459434       6.49704161       6.36690086        9       1.00000000       0.01182653       0.03606140      -0.28603269
