64
Lattice="10.15013288714948 0.015670727612745853 -0.004239318952211269 5.088637691783166 8.814995434482583 -0.003923284373436447 0.0 0.0 21.434471187859344" Properties=species:S:1:pos:R:3:tags:I:1:initial_magmoms:R:1:forces:R:3 unique_id=fcc6b023e45542c5a628d47ee73bd541 stress="0.0048880080371967545 4.993966355554066e-05 0.0001833046758015634 4.993966355554066e-05 0.004753785148709503 5.64305971974852e-05 0.0001833046758015634 5.64305971974852e-05 -0.001499662098745632" energy=-370.82683181375234 pbc="T T T"
Ni       0.04251578      -0.00637166       0.01145904        0       1.00000000       0.06545191       0.00740150       0.19118673
Ni       2.49533427       0.00572246       0.07730770        1       1.00000000       0.04212558       0.16102279      -0.27493020
Pt       5.09202962      -0.04153618       0.12169640        1       0.00000000      -0.10976545      -0.06290476      -0.59992012
Ni       7.61004774       0.00477014       0.07941832        1       1.00000000      -0.02693689      -0.04298455      -0.21538645
Ni       1.26547322       2.21823445       0.03532028        0       1.00000000      -0.04613924       0.06289140       0.30106547
Pt       3.77752091       2.26513030       0.11242288        1       0.00000000      -0.03133410      -0.04562956      -0.51402186
Ni       6.35029825       2.24854808       0.03632757        0       1.00000000      -0.00397585       0.01299031       0.23869293
Pt       8.88771729       2.27282876       0.07072153        1       0.00000000       0.03497670       0.20488866      -0.71503011
Ni       2.49682979       4.41411176       0.03038586        0       1.00000000      -0.04886667       0.01863370       0.34399453
Ni       5.12513309       4.41551088       0.02666233        0       1.00000000       0.00191964       0.03861987       0.27331704
Ni       7.59678835       4.44778129       0.02965619        0       1.00000000       0.08976491       0.04647146       0.30490800
Ni      10.17732721       4.44930648       0.03672280        0       1.00000000      -0.03063098       0.01227644       0.38662892
Pt       3.82740374       6.59292123       0.01696484        0       0.00000000      -0.02189912       0.00755716       0.04990842
Ni       6.36814440       6.59836085       0.00000000        0       1.00000000      -0.02796021      -0.03359905       0.17946334
Ni       8.89372553       6.56519974       0.10300796        1       1.00000000       0.14203595      -0.11092688      -0.29228443
Ni      11.41267552       6.57856814       0.12248417        1       1.00000000      -0.02012239      -0.04346586      -0.09144337
Ni       1.29171287       0.77070798       2.09383149        2       1.00000000      -0.03057477       0.16029462      -0.00438376
Ni       3.77324558       0.74782460       2.14391696        2       1.00000000      -0.17517589      -0.00040724       0.11556319
Ni       6.35265720       0.74656750       2.12971138        2       1.00000000       0.05706014       0.01738145       0.02358464
Pt       8.86699634       0.68987774       2.14115208        2       0.00000000       0.06860109      -0.08148456      -0.12703228
Ni       2.50620567       2.96648168       2.16660922        3       1.00000000      -0.05690989       0.08556331       0.18770745
Ni       5.09248865       2.98376445       2.10477989        2       1.00000000       0.01935973       0.10769665      -0.05205522
Ni       7.59281401       2.98606288       2.12472014        2       1.00000000       0.02604385       0.02174056       0.11389842
Ni      10.19448355       3.00596497       2.12577603        2       1.00000000       0.05272829       0.09476246       0.10796972
Ni       3.82033575       5.11189047       2.10919180        2       1.00000000       0.01461291      -0.11826038      -0.00781755
Ni       6.32801587       5.12951958       2.06387055        2       1.00000000      -0.02642094       0.03016494      -0.04246899
Ni       8.92160658       5.11492926       2.09339593        2       1.00000000       0.06308590      -0.10299611       0.09014623
Ni      11.40967295       5.13603936       2.09217952        2       1.00000000      -0.03306493      -0.08001066       0.06233440
Ni       5.08522827       7.31467467       2.14159856        2       1.00000000      -0.04129703      -0.14028731       0.19241408
Pt       7.61406870       7.36693231       2.08073785        2       0.00000000      -0.03613691       0.01522104      -0.10536940
Ni      10.19279206       7.30845330       2.16880379        3       1.00000000       0.04232344      -0.09833248       0.33303296
Ni      12.66576036       7.33439228       2.11439556        2       1.00000000      -0.10582497      -0.07487995       0.07991518
Pt       0.06780354       1.46813515       4.22491467        5       0.00000000       0.04666841       0.03929819       0.12190252
Ni       2.53291285       1.48536135       4.19621474        5       1.00000000       0.11438647      -0.00320158      -0.31003047
Pt       5.06113315       1.45093959       4.11946708        4       0.00000000       0.02047997      -0.10890128       0.09900190
Ni       7.60970754       1.46412875       4.22205110        5       1.00000000      -0.02620144      -0.04021981      -0.22038148
Ni       1.27660635       3.67704924       4.24996320        5       1.00000000       0.02765341       0.05062345      -0.10956353
Ni       3.78211113       3.69902003       4.19857510        5       1.00000000      -0.01423490      -0.02552593      -0.28912460
Pt       6.33832641       3.68179587       4.24087786        5       0.00000000      -0.02435132      -0.07454851      -0.01774131
Ni       8.92951304       3.71563587       4.20102660        5       1.00000000       0.15389251       0.05979044      -0.28960574
Pt       2.56848036       5.85056968       4.16968095        5       0.00000000      -0.07192539       0.01058768      -0.00096312
Ni       5.07361467       5.90404159       4.24817929        5       1.00000000       0.03051431      -0.01733597      -0.24897953
Pt       7.61638288       5.89436477       4.21452640        5       0.00000000       0.09713051       0.02643894       0.10507925
Ni      10.16825215       5.86304317       4.20117303        5       1.00000000       0.04339736      -0.00417159      -0.22741606
Ni       3.84491473       8.05064981       4.24156359        5       1.00000000       0.03636962      -0.05419879      -0.11717127
Ni       6.31937243       8.06621967       4.23312213        5       1.00000000      -0.02331607      -0.05667290      -0.15692115
Ni       8.88962450       8.08093169       4.20838088        5       1.00000000       0.03097127      -0.02134114      -0.19742391
Ni      11.44292749       8.06540220       4.17677866        5       1.00000000       0.02139090      -0.08198844      -0.26749121
Ni      -0.00324620      -0.03966070       6.36913246        7       1.00000000      -0.09161438      -0.04218972      -0.16126776
Pt       2.42810306       0.00960777       6.36729675        7       0.00000000       0.13908372       0.01017178       0.06993743
Pt       5.07706790       0.01875966       6.32378906        6       0.00000000      -0.04777603      -0.20375734       0.74940507
Pt       7.68601949      -0.00150524       6.35861100        7       0.00000000      -0.02268366      -0.04425438       0.18543873
Ni       1.26014423       2.25016807       6.37776907        7       1.00000000       0.02343524       0.12659954      -0.09857968
Pt       3.78369866       2.31842554       6.31528043        6       0.00000000      -0.10050333       0.03947960       0.52895227
Ni       6.34971532       2.25745719       6.38545934        7       1.00000000       0.02112563       0.01455562      -0.03987957
Pt       8.89012762       2.30023459       6.31110890        6       0.00000000      -0.17435690       0.00678522       0.76057001
Ni       2.54531721       4.40189363       6.37001234        7       1.00000000       0.08933815      -0.00583803      -0.21857257
Ni       5.09163191       4.46291972       6.37887174        7       1.00000000      -0.11304994       0.08678094      -0.24448681
Ni       7.56648341       4.41166551       6.39700011        7       1.00000000      -0.10706267      -0.00461740      -0.07473228
Ni      10.18492570       4.38717253       6.35977603        7       1.00000000       0.06576684      -0.00573279      -0.23564632
Ni       3.88487024       6.57701774       6.29140838        6       1.00000000       0.02027885      -0.04526856       0.03255227
Ni       6.28547907       6.58646469       6.37174324        7       1.00000000      -0.05272306       0.01501126      -0.21548354
Pt       8.84975419       6.52584879       6.43447119        7       0.00000000       0.04248700       0.10508667       0.36766558
Pt      11.47314719       6.52823059       6.41446864        7       0.00000000      -0.00162491       0.17914588       0.18736898
