64
Lattice="10.27546957967501 -0.0005458022797615825 -0.0003720764982918106 5.1372621111977885 8.839803724583142 0.010599023751645759 -0.00030379918869881335 0.010168253968369631 8.74779306813997" Properties=species:S:1:pos:R:3:tags:I:1:initial_magmoms:R:1:forces:R:3 unique_id=1d4c34ad02c74d099086435e0edb4c8b stress="0.00015260372648145254 1.7252306910424013e-06 8.778118548140383e-07 1.7252306910424013e-06 0.00015643653455438278 -6.312690606588636e-06 8.778118548140383e-07 -6.312690606588636e-06 0.00015477224844633042" energy=-395.1671278735553 pbc="T T T"
Ni       0.01190877       0.01623363       0.18792531        4       1.00000000       0.07379681       0.04971184       0.29669961
Ni       2.56337835       0.00025174       0.21649915        4       1.00000000       0.01517030      -0.00420134       0.35846545
Ni       5.13735535      -0.00499332       0.15876789        4       1.00000000      -0.00257217       0.13555238       0.22656501
Ni       7.71144183      -0.00640849       0.15086575        4       1.00000000       0.00537780       0.08530356       0.26950447
Ni       1.25268446       2.22221542       0.19783571        4       1.00000000      -0.09886767       0.08560034       0.29545782
Pt       3.80830691       2.23068132       0.19009259        4       0.00000000      -0.05582175       0.04511131       0.16464353
Pt       6.47483446       2.23066869       0.11204794        4       0.00000000       0.07798852       0.07572700      -0.02888048
Ni       9.02596172       2.25167396       0.14872076        4       1.00000000       0.12627082       0.18892088       0.12928746
Ni       2.56308837       4.44806357       0.08146092        4       1.00000000      -0.02597625       0.06234621       0.02736232
Ni       5.12360867       4.44306061       0.10831493        4       1.00000000      -0.01971776       0.00188416       0.21131854
Ni       7.74236745       4.42740462       0.11487730        4       1.00000000       0.12740245       0.03187475       0.19499810
Ni      10.26145087       4.41186405       0.08759986        4       1.00000000      -0.07273941      -0.02558189       0.05502470
Ni       3.84607216       6.61190890       0.08031619        4       1.00000000       0.04017752      -0.07562957       0.00883660
Pt       6.42014732       6.61940928       0.11305891        4       0.00000000      -0.00855130      -0.02557973      -0.18845751
Ni       8.98945328       6.60990872       0.16310082        4       1.00000000      -0.09570808      -0.11492587       0.15049590
Ni      11.56140654       6.61532138       0.05388576        4       1.00000000      -0.02664271      -0.08369037      -0.13776565
Ni       1.30038514       0.75996090       2.15300455        3       1.00000000       0.00336264       0.08791605       0.01297805
Ni       3.84969768       0.75074709       2.20147668        3       1.00000000       0.09375067       0.03300882       0.02387553
Ni       6.40063825       0.77972699       2.23703349        3       1.00000000      -0.01927055       0.09685661       0.15180880
Pt       9.01724831       0.82657559       2.18173428        3       0.00000000      -0.07932783       0.07471874       0.08399500
Ni       2.56310432       2.96018689       2.20741289        3       1.00000000       0.03125259       0.09301691      -0.05305813
Ni       5.13963422       2.96622624       2.24026170        3       1.00000000      -0.03729338       0.00065212       0.02971489
Ni       7.72023059       2.99606523       2.21231795        3       1.00000000       0.08246940       0.11779563      -0.00041257
Ni      10.26729470       2.95694750       2.20704559        3       1.00000000      -0.03422358       0.06385133       0.13705286
Ni       3.88561439       5.11248634       2.17589473        3       1.00000000       0.03677577      -0.14400607      -0.11617057
Ni       6.43681266       5.13926968       2.19614120        3       1.00000000       0.04731486      -0.03422724      -0.04128486
Ni       8.94837057       5.11879851       2.20656440        3       1.00000000      -0.06753382      -0.07574035       0.06962745
Pt      11.54652169       5.06811838       2.20771362        3       0.00000000      -0.02367188      -0.04599950      -0.02633204
Ni       5.15613791       7.34730554       2.18010359        3       1.00000000      -0.03398362      -0.10236803      -0.07642466
Ni       7.68789870       7.35086917       2.18957085        3       1.00000000       0.00833889      -0.15803421       0.00965218
Pt      10.24300155       7.36452988       2.15056626        3       0.00000000      -0.01719168      -0.07979734       0.03335592
Pt      12.86725944       7.33484635       2.15639520        3       0.00000000       0.07437943      -0.09653412      -0.04271422
Ni      -0.02265798       1.54317729       4.32655725        2       1.00000000      -0.01073290       0.16552293       0.01083230
Pt       2.56314020       1.56686698       4.22998191        2       0.00000000      -0.00865706       0.07262775       0.12742613
Ni       5.18467352       1.48098217       4.29636863        2       1.00000000       0.02103315      -0.05301022      -0.15952029
Ni       7.68938612       1.48638317       4.32453187        2       1.00000000       0.00444160      -0.06246338      -0.09539341
Ni       1.25848484       3.73842393       4.35533564        2       1.00000000      -0.05734175      -0.00572005      -0.00438532
Ni       3.82629275       3.72393580       4.30456587        2       1.00000000      -0.11350089      -0.00200979      -0.24692685
Pt       6.46583494       3.64275761       4.32256275        2       0.00000000       0.03898716      -0.01634486      -0.08488121
Ni       9.02391909       3.71847985       4.31422660        2       1.00000000       0.11123320       0.05858634      -0.21138958
Ni       2.51954442       5.85298329       4.39993245        2       1.00000000      -0.10890628      -0.04791303      -0.09320373
Pt       5.09398621       5.83368149       4.34326597        2       0.00000000      -0.03098063      -0.01026327      -0.19593461
Ni       7.73987237       5.84368316       4.32619268        2       1.00000000       0.09535077      -0.09359504      -0.22712204
Ni      10.30268940       5.84014800       4.36816174        2       1.00000000      -0.00343103      -0.04472636      -0.09892781
Pt       3.79346619       8.10855216       4.33767036        2       0.00000000      -0.00906029      -0.00177223       0.14923312
Pt       6.42554102       8.08869540       4.25859614        2       0.00000000      -0.04129570       0.04321071       0.00199910
Pt       9.03771563       8.07746848       4.30198001        2       0.00000000      -0.00682724      -0.07675665       0.07341577
Ni      11.55825720       8.09110190       4.33798395        2       1.00000000      -0.01688192      -0.07741471      -0.11511756
Pt      -0.01322953      -0.05591434       6.55669247        1       0.00000000       0.03524164      -0.08603429       0.14475600
Pt       2.56922633      -0.02425986       6.56734579        1       0.00000000      -0.06517308      -0.00703217       0.21908046
Pt       5.16726725      -0.00398104       6.50780757        1       0.00000000       0.06329443      -0.05935077       0.05979156
Pt       7.68029940      -0.03906650       6.52906061        1       0.00000000      -0.05037074      -0.12328235       0.10001874
Pt       1.27360675       2.32706905       6.51179071        1       0.00000000       0.05117527       0.04980375       0.17971057
Pt       3.92043994       2.33487861       6.42292014        1       0.00000000       0.05279922       0.20720854      -0.29116755
Ni       6.42618949       2.25008275       6.41677076        1       1.00000000      -0.01971395      -0.01452497      -0.21068518
Pt       8.92863725       2.31334712       6.46955107        1       0.00000000      -0.02583416       0.10562801      -0.02481572
Ni       2.56874206       4.50414814       6.46462826        1       1.00000000       0.04063455       0.10601653      -0.21600610
Ni       5.15290059       4.46737434       6.50502589        1       1.00000000       0.07334775       0.13042910      -0.04878369
Ni       7.66012250       4.43093770       6.48532149        1       1.00000000      -0.23336022       0.00015058      -0.11013506
Ni      10.30629349       4.45473583       6.46518452        1       1.00000000       0.15088063       0.00982628      -0.22049389
Ni       3.82786800       6.55960994       6.50127736        1       1.00000000      -0.05332637      -0.13700106      -0.13699430
Ni       6.40393617       6.56520496       6.43051625        1       1.00000000       0.01214170      -0.09059521      -0.30175127
Pt       9.00349859       6.49605847       6.51702385        1       0.00000000      -0.03284048      -0.11366372       0.07146043
Ni      11.58805702       6.56797292       6.46743913        1       1.00000000       0.01293856      -0.08906940      -0.27330849
