64
Lattice="10.285840562330856 -0.010164734819292089 0.03668102743598701 5.134117362589188 8.840921373029868 -0.022900688808488057 0.0 0.0 21.58070158493994" Properties=species:S:1:pos:R:3:tags:I:1:initial_magmoms:R:1:forces:R:3 unique_id=06d0956ed1e747afa8e69ec4f14bae3c energy=-374.15908342870125 stress="0.005574892210213328 -5.048343039620572e-06 0.00020182068107497982 -5.048343039620572e-06 0.00512577682168988 -8.255113333592019e-05 0.00020182068107497982 -8.255113333592019e-05 -0.0017215176733804162" pbc="T T T"
Ni       0.01538350      -0.00221915       0.14843616        1       1.00000000       0.10886684       0.07275142      -0.13199004
Ni       2.54510905       0.01197488       0.17699572        2       1.00000000      -0.06605992       0.09000015      -0.04109449
Pt       5.13669994      -0.05647896       0.12131186        1       0.00000000      -0.01974503       0.18389630      -1.00460304
Ni       7.74046642      -0.06837237       0.18517007        2       1.00000000      -0.08219184      -0.04443458      -0.23829084
Ni       1.28619812       2.21553631       0.07218047        1       1.00000000      -0.00806484       0.01711796       0.38481859
Pt       3.74820333       2.20923278       0.15235293        2       0.00000000       0.05573344       0.00263324      -0.33729260
Pt       6.44715203       2.18004723       0.08897336        1       0.00000000       0.00381216      -0.05729560      -0.16008691
Pt       9.10213839       2.19904571       0.11129944        1       0.00000000       0.01701910       0.12433305      -0.53363284
Ni       2.52790831       4.44765462       0.02050581        0       1.00000000      -0.01162275      -0.01413681       0.20758368
Pt       5.05790651       4.47893014       0.06156587        1       0.00000000      -0.03643700       0.06146113      -0.04960271
Pt       7.76010084       4.46208307       0.00000000        0       0.00000000      -0.07704903       0.00261907      -0.22877661
Ni      10.34635087       4.43649429       0.04608930        0       1.00000000       0.07750907      -0.01230780       0.25679626
Ni       3.79970389       6.66214541       0.05435980        1       1.00000000      -0.03498577       0.04994978       0.32823851
Pt       6.41881533       6.72972742       0.05817090        1       0.00000000      -0.03880030       0.02111807       0.01039413
Ni       9.02119522       6.62136499       0.03720167        0       1.00000000       0.01974390       0.00711917       0.10239784
Ni      11.60298098       6.58820856       0.04752977        0       1.00000000       0.07373816       0.04612055       0.25155192
Ni       1.32444679       0.73819503       2.19918659        3       1.00000000       0.06700508       0.06956356       0.23013901
Ni       3.82112057       0.75624036       2.24038354        3       1.00000000      -0.06124524       0.10385695       0.29051092
Ni       6.43682455       0.75865888       2.24397823        3       1.00000000      -0.05857061       0.14013304       0.29268050
Pt       9.02804573       0.71617564       2.24248004        3       0.00000000       0.06899237       0.14931892      -0.00578501
Ni       2.56484915       2.90674411       2.25175741        4       1.00000000       0.03989290      -0.13997682       0.29317524
Ni       5.12485203       2.93068082       2.24070047        3       1.00000000      -0.09684457      -0.03914037       0.18327280
Ni       7.70016960       2.91538096       2.23840668        3       1.00000000      -0.03817303      -0.04887135       0.11801110
Ni      10.34234348       2.90487679       2.25628990        4       1.00000000       0.14738170      -0.11422815       0.27735720
Ni       3.86755745       5.14687111       2.19564801        3       1.00000000       0.06697945      -0.10495889       0.11874789
Ni       6.40694539       5.15078223       2.19649385        3       1.00000000       0.01663598      -0.05981095       0.02805388
Pt       8.96732892       5.09797318       2.27184043        4       0.00000000      -0.13316379      -0.21702549      -0.02350566
Pt      11.65423645       5.07826325       2.21242288        3       0.00000000       0.08650095      -0.16772178       0.11269019
Ni       5.15556912       7.34213943       2.16224933        3       1.00000000       0.05949217      -0.07764076       0.10680213
Ni       7.66575539       7.38557775       2.18234737        3       1.00000000      -0.13366227       0.01626178       0.14951846
Pt      10.28776914       7.32815545       2.18353849        3       0.00000000       0.01288425      -0.05829502      -0.23919528
Ni      12.89576735       7.32147282       2.15055516        3       1.00000000       0.10362177      -0.09397574       0.04391016
Ni       0.07717667       1.50290543       4.30280849        5       1.00000000       0.19262897       0.06556057      -0.15018650
Ni       2.54297772       1.49400377       4.28952977        5       1.00000000      -0.07377668       0.05241971      -0.21814131
Ni       5.14127008       1.47493619       4.29423098        5       1.00000000      -0.12605417      -0.03443234      -0.38918106
Ni       7.72719991       1.46961123       4.33467119        5       1.00000000       0.01304631      -0.08041639      -0.24031143
Ni       1.29975640       3.65306406       4.35333544        6       1.00000000       0.02585275      -0.05782726      -0.00977244
Ni       3.81937030       3.66837344       4.28381104        5       1.00000000      -0.15971187      -0.04940636      -0.30456542
Pt       6.46755661       3.61668025       4.31904629        5       0.00000000      -0.00276817      -0.07002116      -0.19954588
Ni       9.05244638       3.67977088       4.33598745        5       1.00000000       0.16580800      -0.07392167      -0.12004279
Ni       2.56620807       5.81069886       4.35713444        6       1.00000000      -0.01237660      -0.17863371      -0.00255906
Pt       5.15666008       5.84614766       4.31645240        5       0.00000000       0.02944283      -0.07529696      -0.14430879
Ni       7.73209859       5.85658353       4.37042668        6       1.00000000      -0.05292896      -0.01713315      -0.08287344
Ni      10.29689304       5.80654212       4.41130841        6       1.00000000       0.03639749      -0.05735964       0.07206835
Pt       3.90375490       8.08030657       4.27624593        5       0.00000000       0.04283749       0.05094164       0.00839310
Ni       6.43765635       8.09829641       4.27471609        5       1.00000000      -0.07386732       0.10803579      -0.30573384
Pt       8.91700824       8.06984746       4.27207409        5       0.00000000      -0.08418334       0.06306594       0.00607178
Pt      11.60157553       8.04815451       4.28348161        5       0.00000000       0.00490326      -0.07292820       0.00728797
Pt       0.03567184      -0.05751264       6.51922856        8       0.00000000       0.08969492       0.06293205       0.31284874
Pt       2.56788814      -0.06146747       6.53188022        8       0.00000000      -0.03107374       0.05920404       0.23501620
Pt       5.15314735      -0.05846906       6.45176716        8       0.00000000      -0.05065735       0.18590728       1.08269125
Pt       7.72795281      -0.07228200       6.58070158        9       0.00000000      -0.04429465       0.14223863       0.43952793
Ni       1.30189222       2.24508838       6.44537823        7       1.00000000      -0.01948149       0.14258721      -0.33305795
Pt       3.85173378       2.28455551       6.38112646        7       0.00000000      -0.00224952       0.03302506       0.30811996
Ni       6.44646488       2.21426771       6.41857104        7       1.00000000      -0.01205363      -0.01842159       0.15385862
Pt       9.03452273       2.27803631       6.38539403        7       0.00000000      -0.01873265       0.04282451       0.50850404
Ni       2.54947638       4.43145145       6.44165336        7       1.00000000      -0.02117644       0.01151505      -0.41462464
Ni       5.16316221       4.41888788       6.41463419        7       1.00000000      -0.02354121      -0.01007158       0.08142499
Ni       7.72949716       4.43478743       6.38387427        7       1.00000000       0.04726870       0.05144019       0.11022148
Ni      10.33044498       4.42850951       6.46635898        8       1.00000000       0.02284797      -0.00542502      -0.40886044
Ni       3.85226027       6.53329759       6.47627476        8       1.00000000      -0.06283324      -0.13215587      -0.23956899
Ni       6.45480708       6.54633508       6.39805464        7       1.00000000       0.09624170       0.02156948       0.06269104
Ni       9.01445434       6.51781071       6.46835364        8       1.00000000      -0.00266797      -0.07504675      -0.31625009
Ni      11.58137917       6.51588138       6.48927112        8       1.00000000      -0.02173469       0.00679644      -0.30193575
