64
Lattice="10.258235305359252 0.005390081793962111 -0.036357302762153904 5.133785600441675 8.833554239171988 -0.09364128894598735 0.0 0.0 21.56209656548566" Properties=species:S:1:pos:R:3:tags:I:1:initial_magmoms:R:1:forces:R:3 unique_id=ce466460a7b4473c98e2010d81935e87 energy=-373.10137239097486 stress="0.005222173451678234 4.429362413349806e-05 -0.00015873968715740612 4.429362413349806e-05 0.004583288233198618 -0.00019344698951793233 -0.00015873968715740612 -0.00019344698951793233 -0.0016318147712426328" pbc="T T T"
Ni       0.03262465      -0.04820648       0.20678221        2       1.00000000       0.12327927      -0.02301776      -0.09952713
Ni       2.50645240      -0.03375275       0.21333844        2       1.00000000      -0.04515618      -0.01559538      -0.03427577
Pt       5.11935039      -0.05921711       0.14449255        1       0.00000000      -0.11694111       0.06606868      -0.97571894
Ni       7.71207241      -0.05484344       0.16864410        2       1.00000000      -0.06315364      -0.05246166      -0.23001833
Ni       1.27458205       2.20847274       0.11109090        1       1.00000000      -0.03036683       0.00195562       0.38636927
Pt       3.74344897       2.21826574       0.17937199        2       0.00000000       0.04979369      -0.01771510      -0.50673557
Pt       6.44060629       2.22405729       0.08725939        1       0.00000000      -0.04480355      -0.01488041      -0.23623337
Pt       9.05505763       2.24861725       0.09853428        1       0.00000000       0.07016171       0.08389617      -0.57687607
Ni       2.53203847       4.44187169       0.04277884        0       1.00000000       0.02212153       0.02469369       0.20766436
Pt       5.11875757       4.52433426       0.06060338        1       0.00000000      -0.08592497       0.06090853      -0.00723372
Ni       7.70188441       4.46258113       0.02957753        0       1.00000000      -0.01160088       0.04147752       0.10716075
Ni      10.28811879       4.44007316       0.00986181        0       1.00000000       0.06556451       0.04479282       0.22878092
Ni       3.82734998       6.65453473       0.05664767        1       1.00000000      -0.01271016       0.09297122       0.35055664
Ni       6.42392532       6.66060698       0.05826864        1       1.00000000      -0.01163519       0.08600971       0.34983998
Ni       8.94373931       6.59048383       0.09064825        1       1.00000000      -0.09889472       0.04699420      -0.17050490
Ni      11.57705103       6.58754156       0.00000000        0       1.00000000       0.03967218       0.01962497       0.24279925
Ni       1.30160357       0.72362108       2.23197729        4       1.00000000       0.01624726       0.06120222       0.21394847
Ni       3.77468461       0.73281752       2.22730736        4       1.00000000      -0.20482619      -0.06030992       0.12874955
Ni       6.43001994       0.73928157       2.22784284        4       1.00000000       0.09086187       0.01036271       0.15173427
Pt       8.99252285       0.71935959       2.21256726        4       0.00000000       0.10642297       0.08882713      -0.01755546
Ni       2.54030105       2.89870494       2.26775705        5       1.00000000       0.02586198      -0.16804615       0.27269196
Ni       5.10916143       2.95772112       2.21231676        4       1.00000000      -0.06857220       0.11983351       0.11488667
Ni       7.67344473       2.92798832       2.21811382        4       1.00000000      -0.03957184      -0.08667565       0.13668439
Ni      10.30422196       2.91000277       2.22523675        4       1.00000000       0.14408486      -0.13340535       0.29120683
Ni       3.85283861       5.13886328       2.18453257        4       1.00000000       0.02445431      -0.05393226       0.11150043
Ni       6.39407957       5.16229172       2.15980543        4       1.00000000      -0.00805638       0.03622889       0.04936952
Pt       8.91092280       5.09159834       2.16953936        4       0.00000000       0.00602385      -0.14603419       0.05462218
Pt      11.61003180       5.08031614       2.16345133        4       0.00000000       0.08268295      -0.19272577       0.12415169
Ni       5.15556182       7.31815435       2.11426138        3       1.00000000       0.01936642      -0.07773894       0.00490104
Ni       7.61794348       7.36125715       2.10936600        3       1.00000000      -0.15751001      -0.01472933       0.08417711
Pt      10.29441661       7.33343053       2.17671693        4       0.00000000       0.09502924       0.00356682      -0.02553730
Ni      12.84585121       7.32685940       2.09145319        3       1.00000000       0.12483174      -0.09540420       0.02092331
Ni       0.04240809       1.47699204       4.34685417        7       1.00000000       0.15786041       0.04220404      -0.16183955
Ni       2.48553530       1.47706464       4.31129026        7       1.00000000      -0.10250577       0.05130693      -0.21107709
Pt       5.12052441       1.45349288       4.24001163        6       0.00000000      -0.10482218      -0.03761311      -0.15953087
Ni       7.68997150       1.44814481       4.31776452        7       1.00000000       0.03553562      -0.06537266      -0.27005296
Ni       1.27132630       3.63554826       4.37455698        8       1.00000000       0.03764534      -0.05296649      -0.02170660
Ni       3.76958594       3.67971673       4.29753963        7       1.00000000      -0.15737508       0.05289849      -0.31099677
Pt       6.47420300       3.65997847       4.31481546        7       0.00000000       0.08610072      -0.04274615      -0.12784840
Ni       9.01537439       3.67365737       4.29553148        7       1.00000000       0.21164579       0.02944843      -0.16423727
Ni       2.52222039       5.81739218       4.36436879        8       1.00000000      -0.03158185      -0.09424604      -0.02229465
Pt       5.11290648       5.85119700       4.30614019        7       0.00000000       0.03796403      -0.00440929      -0.09939500
Ni       7.68046206       5.84274917       4.30505856        7       1.00000000      -0.03607570       0.01083605      -0.14012874
Ni      10.28618921       5.80658911       4.33026689        7       1.00000000       0.09542280      -0.05817613      -0.01603025
Pt       3.81010462       8.05146336       4.24807368        6       0.00000000      -0.05577844       0.05109001       0.00814054
Ni       6.39123680       8.07707494       4.23695945        6       1.00000000      -0.15946204       0.09912616      -0.30230306
Pt       8.88275731       8.02705341       4.21195879        6       0.00000000      -0.19091771       0.06016690      -0.06306988
Ni      11.54857348       8.01811867       4.25112279        7       1.00000000       0.00556435      -0.10888619      -0.10378039
Pt      -0.01074411      -0.08351846       6.56209657       11       0.00000000       0.02958833       0.11340292       0.18582223
Pt       2.52125380      -0.03969168       6.54773006       10       0.00000000       0.01412994       0.11393730       0.24997529
Pt       5.12956327      -0.06151631       6.44703982        9       0.00000000       0.05040307       0.00381395       0.98225190
Pt       7.66932081      -0.08678989       6.53133358       10       0.00000000      -0.09580612       0.14218170       0.34890250
Ni       1.25798725       2.22338083       6.47125514       10       1.00000000       0.02123340       0.09834346      -0.28879624
Pt       3.79432769       2.28731462       6.42092989        9       0.00000000      -0.06422978       0.12259403       0.43744861
Ni       6.39948990       2.20663066       6.41708331        9       1.00000000       0.00124439       0.00999955       0.21253594
Pt       8.97407791       2.26293034       6.35679213        9       0.00000000      -0.00830442      -0.08488058       0.50962446
Ni       2.51079852       4.41653048       6.44843323        9       1.00000000       0.04157638       0.01975322      -0.37976917
Ni       5.11848673       4.40840105       6.40291880        9       1.00000000      -0.06617121       0.00979120       0.11759869
Ni       7.64259473       4.37585238       6.46074282       10       1.00000000      -0.06944820      -0.03180837      -0.08417974
Ni      10.30323374       4.37379937       6.42242223        9       1.00000000       0.13209946      -0.03380060      -0.31874358
Ni       3.81407570       6.51104776       6.46709359       10       1.00000000      -0.03798688      -0.13146792      -0.23314494
Ni       6.38172186       6.52669803       6.45521068       10       1.00000000       0.03312671      -0.00636542      -0.17949106
Pt       8.96199208       6.44700073       6.45779280       10       0.00000000       0.08570411      -0.06001879       0.11599264
Ni      11.55496452       6.50936477       6.40820358        9       1.00000000      -0.00311596       0.04512105      -0.26237862
