64
Lattice="10.418972052830908 0.03337206239924257 0.027840406392649328 5.238387080229881 9.054202331704673 -0.043379839935024984 0.0 0.0 21.70105401805783" Properties=species:S:1:pos:R:3:tags:I:1:initial_magmoms:R:1:forces:R:3 unique_id=bbb3c606d5ea49b186089fb93aecbef8 stress="0.0044267503063916535 0.00016504906394098316 0.0004268349442004019 0.00016504906394098316 0.004382304979260699 -0.00044458666113802097 0.0004268349442004019 -0.00044458666113802097 -0.003505943520410804" energy=-382.38539134479055 pbc="T T T"
Ni      -0.05500778      -0.02102031       0.12635359        1       1.00000000      -0.17612257      -0.06628861      -0.17003497
Ni       2.63821734      -0.02771371       0.03191452        0       1.00000000       0.08275974      -0.00019727       0.26883548
Ni       5.23664416      -0.02763021       0.12119908        1       1.00000000       0.13273216       0.06416542      -0.26783233
Ni       7.84500832      -0.02658644       0.08664157        1       1.00000000      -0.02213631      -0.08760542       0.53254789
Pt       1.28234998       2.26703576       0.06608234        1       0.00000000       0.20673804       0.09034082      -1.07448318
Pt       3.92297180       2.30085874       0.10552211        1       0.00000000       0.02416567       0.15948390      -0.83465997
Pt       6.56099969       2.19411943       0.09827347        1       0.00000000      -0.09453638      -0.13548769      -0.28048916
Ni       9.12323944       2.24619753       0.04490801        0       1.00000000       0.02488929      -0.12197906       0.30718826
Ni       2.62932525       4.55095077       0.08279793        1       1.00000000       0.01149822      -0.09444212      -0.36076235
Ni       5.24152827       4.53695550       0.09043584        1       1.00000000       0.21231080      -0.04854493      -0.14889747
Pt       7.90131078       4.55431493       0.09680955        1       0.00000000      -0.03590439       0.09729717      -0.19866279
Ni      10.44831789       4.58742423       0.00680903        0       1.00000000       0.02807345       0.07360834       0.24000580
Ni       3.90431997       6.81903270       0.10339800        1       1.00000000      -0.02351495       0.13060249      -0.07185148
Pt       6.52307142       6.84485168       0.13327092        1       0.00000000      -0.03824673      -0.03250560      -0.38743501
Ni       9.16770287       6.81592021       0.00780306        0       1.00000000      -0.03527934      -0.05187184       0.36388621
Ni      11.76355960       6.82668938       0.00000000        0       1.00000000       0.13025684       0.05567059       0.38949328
Pt       1.28007432       0.65714642       2.14179541        2       0.00000000       0.00430341      -0.17483256       0.16193456
Pt       3.97184701       0.76271037       2.21106094        3       0.00000000       0.02626055      -0.09109675       0.18829529
Ni       6.56118890       0.73746947       2.22570302        3       1.00000000       0.07396449      -0.06616757       0.14427827
Ni       9.07069740       0.73385090       2.17198936        3       1.00000000      -0.12992470       0.00058661      -0.02876763
Ni       2.62050651       3.02029169       2.18655172        3       1.00000000      -0.03613217       0.00021228       0.32075120
Ni       5.24850150       3.01747621       2.21655439        3       1.00000000       0.06683107       0.02158654       0.26106469
Pt       7.76932731       3.01089056       2.31800013        4       0.00000000      -0.02532897      -0.04128584       0.17490821
Pt      10.35833071       3.05639243       2.18851778        3       0.00000000      -0.24447391       0.05420439       0.06169010
Pt       3.98268254       5.29081334       2.09073033        2       0.00000000       0.07659018      -0.00077002       0.07218362
Ni       6.57324897       5.28984077       2.20243094        3       1.00000000       0.10032897      -0.03133149       0.28384332
Ni       9.10909266       5.32383082       2.23672477        3       1.00000000      -0.07408567       0.06153804       0.18403088
Pt      11.73287820       5.31232731       2.11614228        2       0.00000000       0.03219638      -0.06136636       0.05019338
Ni       5.19963211       7.53894189       2.14117323        2       1.00000000      -0.10528782       0.01492707       0.17597475
Ni       7.85834556       7.48730053       2.18423405        3       1.00000000       0.09860850      -0.10455116       0.18632965
Pt      10.44770372       7.52764933       2.09662395        2       0.00000000      -0.02235826       0.01703863       0.02956570
Ni      13.07000773       7.61139661       2.12979080        2       1.00000000      -0.03734283       0.06749192      -0.03617290
Pt      -0.11598014       1.53049500       4.37674772        6       0.00000000      -0.17550705       0.05508136      -0.21641976
Pt       2.62784791       1.47856323       4.36647251        6       0.00000000      -0.09389443      -0.11775518      -0.20478448
Ni       5.28168560       1.50680286       4.36724510        6       1.00000000       0.03562310       0.06446557      -0.32626290
Ni       7.79862654       1.53393619       4.38607775        6       1.00000000      -0.06225650       0.03643142      -0.16826354
Pt       1.24239116       3.80406383       4.37539244        6       0.00000000      -0.07684707       0.08984878      -0.22398526
Pt       3.99707170       3.71147798       4.30198542        5       0.00000000       0.04192036       0.05153183      -0.21577830
Ni       6.57952908       3.74133438       4.38919452        6       1.00000000      -0.01371814       0.01301273      -0.20934552
Ni       9.10139292       3.81232639       4.38489434        6       1.00000000      -0.05013562       0.04130461      -0.20604470
Pt       2.58758378       6.03425917       4.35944697        6       0.00000000       0.01928275      -0.01151211      -0.11544670
Pt       5.33124208       5.97061016       4.30777016        5       0.00000000       0.03006739      -0.10333978      -0.14160783
Ni       7.90200326       5.96427116       4.33551863        5       1.00000000       0.07567739      -0.09871768      -0.29547249
Ni      10.38984102       6.01127354       4.43578007        6       1.00000000      -0.03951738      -0.00556709      -0.05016937
Pt       3.91528897       8.29920391       4.27367020        5       0.00000000       0.00106965       0.00368901      -0.18052773
Pt       6.56473247       8.24962541       4.32028543        5       0.00000000      -0.05349490       0.14010258      -0.16283665
Pt       9.15915862       8.19257894       4.39567909        6       0.00000000      -0.02449579      -0.01509601      -0.07025830
Pt      11.74847950       8.36442674       4.35719615        6       0.00000000      -0.08271422       0.04498659      -0.05811917
Pt      -0.03791461       0.00601114       6.69242922        9       0.00000000       0.03878559      -0.02144793       0.07477635
Ni       2.63066196      -0.04326143       6.62737100        8       1.00000000      -0.03522234       0.09963715      -0.11154742
Pt       5.22516192      -0.11783235       6.70105402        9       0.00000000       0.01135314       0.23527487       0.04612033
Ni       7.81645500      -0.00426809       6.63441105        8       1.00000000      -0.00631612      -0.00825363      -0.28304522
Pt       1.25364799       2.25409055       6.55536070        8       0.00000000       0.02476387       0.04495426       1.00827555
Pt       3.93412737       2.18998760       6.55375601        8       0.00000000       0.11505434      -0.01188536       0.80758696
Pt       6.61159058       2.19029601       6.49477275        7       0.00000000      -0.15125554       0.03226677       0.40472744
Ni       9.12961473       2.26062340       6.61642746        8       1.00000000       0.00862467       0.03612899      -0.19316992
Pt       2.54986617       4.53868290       6.66662075        9       0.00000000       0.06529542      -0.14258488       0.24938783
Pt       5.26531717       4.50634969       6.62595562        8       0.00000000       0.17971056      -0.01508377       0.27279328
Pt       7.96095526       4.51002782       6.48659489        7       0.00000000      -0.15503462       0.02918752       0.26394548
Ni      10.42630807       4.57088611       6.59560032        8       1.00000000       0.01591168       0.08021976      -0.24886754
Pt       3.86464522       6.81366116       6.66506355        9       0.00000000       0.15466325       0.01815416       0.05420190
Pt       6.64588972       6.80218001       6.55521103        8       0.00000000      -0.02062873      -0.09890233       0.45907764
Ni       9.19884900       6.74881051       6.57694938        8       1.00000000       0.04654725      -0.09050973      -0.24420292
Ni      11.70203170       6.77082006       6.60250614        8       1.00000000      -0.05514471      -0.07405242      -0.25168833
