64
Lattice="10.324284123311498 0.008332876054641924 -0.007046819587102392 5.1693585440056555 8.876556468350637 -0.024917704902429425 0.0 0.0 21.559078901518824" Properties=species:S:1:pos:R:3:tags:I:1:initial_magmoms:R:1:forces:R:3 unique_id=9464ae68b84f4266995e2e1efa31735a stress="0.005580574084668852 0.00018840630384609733 2.9820705710966538e-05 0.00018840630384609733 0.005760641863669393 -8.287669733749681e-05 2.9820705710966538e-05 -8.287669733749681e-05 -0.0017119299329339376" energy=-374.71126713018543 pbc="T T T"
Ni      -0.00116147       0.02356697       0.13777691        1       1.00000000       0.10145307      -0.03191344      -0.19599594
Ni       2.57714055       0.00688362       0.16952654        2       1.00000000      -0.02598487       0.03359553      -0.12813551
Ni       5.15865926      -0.00660012       0.12323581        1       1.00000000      -0.00808962       0.21177509      -0.36506830
Ni       7.74905178      -0.04167449       0.14081778        1       1.00000000      -0.10213446      -0.11932045      -0.21867281
Ni       1.25938736       2.22520773       0.06103874        1       1.00000000      -0.05495763       0.02330099       0.45229242
Pt       3.80971207       2.23362807       0.14674690        1       0.00000000       0.00734378       0.01507797      -0.53104150
Pt       6.47741838       2.17845545       0.14692128        1       0.00000000       0.00538315      -0.04510567      -0.46225575
Ni       9.07880056       2.22555352       0.09692645        1       1.00000000       0.05879156       0.10933586      -0.04910200
Ni       2.57806046       4.46367775       0.01970522        0       1.00000000       0.07378076      -0.00425134       0.27817976
Ni       5.13355256       4.45991914       0.13180914        1       1.00000000      -0.05232888       0.03297098       0.07370325
Pt       7.82356524       4.45315918       0.05133647        1       0.00000000       0.01601488       0.00606774       0.00556322
Ni      10.36003643       4.43854595       0.01750086        0       1.00000000       0.06364617      -0.06955485       0.29981159
Ni       3.83967757       6.65413888       0.05239373        1       1.00000000      -0.02540424      -0.02450574       0.44205440
Pt       6.42515973       6.70297817       0.12717463        1       0.00000000      -0.05942566       0.03128324      -0.53049569
Ni       9.06103950       6.67435805       0.01198846        0       1.00000000      -0.11953472      -0.03270645       0.09447332
Ni      11.64290242       6.65923166       0.00000000        0       1.00000000       0.12670945      -0.00494159       0.20498794
Ni       1.29804105       0.75723454       2.11480975        4       1.00000000      -0.01049606       0.12242112      -0.06546874
Ni       3.86249458       0.75154140       2.16675575        5       1.00000000       0.05690978       0.02831411       0.18222666
Ni       6.44488649       0.75620894       2.19573859        5       1.00000000      -0.03839392       0.15362080       0.27550371
Pt       9.04161382       0.77843702       2.13867729        4       0.00000000      -0.00345261       0.08434045       0.14488180
Ni       2.57256992       2.96291474       2.17226452        5       1.00000000       0.00631042       0.09633593       0.02979648
Ni       5.14151477       2.97721446       2.19731568        5       1.00000000      -0.15191508       0.04472607       0.17650263
Ni       7.77052009       2.97942170       2.19348223        5       1.00000000       0.12445229       0.08539424       0.19961978
Ni      10.32974894       2.95801717       2.15376488        5       1.00000000       0.06219544       0.02959896       0.10401315
Ni       3.90385865       5.17153810       2.15867399        5       1.00000000       0.08176784      -0.05434814       0.09190947
Ni       6.44053911       5.17958973       2.16984122        5       1.00000000      -0.03927078       0.03819520       0.11867947
Ni       9.01785648       5.15569020       2.17492469        5       1.00000000      -0.02999784      -0.13752644       0.19427447
Pt      11.66622238       5.12269876       2.11401562        4       0.00000000       0.07651744      -0.06083959       0.03944332
Ni       5.13495490       7.35935314       2.13909680        4       1.00000000      -0.19481331      -0.17167824       0.00432264
Ni       7.74472583       7.38822356       2.13264756        4       1.00000000       0.05687712      -0.09676132       0.02147223
Pt      10.31291840       7.40024214       2.04444645        3       0.00000000       0.03553229      -0.15160283      -0.11003755
Ni      12.93962052       7.37241514       2.09272580        4       1.00000000       0.08470435      -0.11719811      -0.02148733
Ni      -0.01360342       1.53047663       4.29674589        7       1.00000000      -0.05842808       0.07531066      -0.18490382
Pt       2.53243555       1.56720855       4.20529295        6       0.00000000      -0.04587296       0.01742277      -0.00368251
Ni       5.16179762       1.50378398       4.26265621        7       1.00000000      -0.05324452       0.08939852      -0.35090232
Ni       7.76850603       1.50284501       4.27486823        7       1.00000000       0.06590268       0.01671850      -0.25295199
Ni       1.28920119       3.68559358       4.34062083        7       1.00000000       0.00146634      -0.01907656      -0.06335559
Ni       3.85393319       3.74614522       4.26078401        7       1.00000000      -0.02961643       0.06833089      -0.31603538
Pt       6.46614622       3.72442635       4.19796613        6       0.00000000      -0.05063202       0.00199225       0.04359113
Ni       9.04089249       3.67306092       4.27387362        7       1.00000000      -0.00463432      -0.15018117      -0.33198801
Ni       2.60913609       5.84556597       4.33273104        7       1.00000000       0.04345904      -0.16317962      -0.08221118
Ni       5.12983160       5.87466125       4.24974377        6       1.00000000      -0.07040875      -0.09147507      -0.37451336
Ni       7.75813967       5.86673358       4.26892068        7       1.00000000       0.03183138      -0.03599933      -0.35249062
Pt      10.32539143       5.80749057       4.36259590        8       0.00000000       0.06011688      -0.01143729      -0.05289431
Pt       3.87695396       8.06732462       4.25249261        7       0.00000000       0.00506286      -0.08235193       0.05805136
Pt       6.43656529       8.09959401       4.16317489        6       0.00000000      -0.08140401       0.02340011      -0.22532533
Pt       9.01818724       8.11914554       4.24786211        6       0.00000000      -0.05814183       0.05270328      -0.01862792
Pt      11.63999183       8.14015483       4.23102168        6       0.00000000       0.02810739      -0.00007314      -0.03715817
Pt       0.00448478       0.00123634       6.53175223       10       0.00000000       0.04400324       0.11606371       0.23371540
Pt       2.56915434      -0.01184710       6.55907890       11       0.00000000       0.02744011       0.00660640       0.37515494
Pt       5.15642126      -0.09889815       6.54032874       10       0.00000000       0.00435424       0.14740594       0.51433290
Pt       7.74923013      -0.08760258       6.55025118       11       0.00000000       0.00226739       0.17527149       0.37025451
Ni       1.27811040       2.27662523       6.46095586       10       1.00000000       0.00370546       0.13023284      -0.26231643
Pt       3.80184824       2.26948595       6.41196685        9       0.00000000       0.14664354      -0.01788009       0.53103701
Pt       6.47509460       2.23088764       6.39755041        9       0.00000000      -0.06774689      -0.07977333       0.59002960
Pt       9.10086868       2.31782015       6.44678270        9       0.00000000      -0.05863325      -0.03413093       0.04171072
Ni       2.51501574       4.46459788       6.44095580        9       1.00000000      -0.12112403       0.01073149      -0.35869613
Pt       5.08371883       4.48069375       6.46612226       10       0.00000000      -0.06403255      -0.00646755       0.02948193
Ni       7.79420502       4.45625602       6.37566074        9       1.00000000       0.07820840       0.07049765      -0.03078447
Ni      10.35983216       4.44803256       6.46822496       10       1.00000000       0.10124971      -0.02347844      -0.17401194
Ni       3.82421879       6.60284406       6.45343756       10       1.00000000      -0.07448579      -0.03332263      -0.24763598
Pt       6.49584090       6.59108727       6.38943418        9       0.00000000       0.03003316      -0.09367666       0.42693192
Ni       9.06100429       6.57228273       6.46451538       10       1.00000000      -0.01786921      -0.12654848      -0.08916818
Ni      11.62912682       6.56998989       6.46812731       10       1.00000000       0.06023273      -0.05713436      -0.16058842
