64
Lattice="10.189459032461986 -0.027298662508636013 0.02003099992787898 5.071088181009174 8.774815933948226 0.0008965663201561322 0.016355242953676623 -0.00859741308894583 8.698186677925404" Properties=species:S:1:pos:R:3:tags:I:1:initial_magmoms:R:1:forces:R:3 unique_id=259feb2ecf5f4557afa44f5bd571246a stress="9.791497670080113e-05 4.116405431093651e-06 -1.8794726226514377e-05 4.116405431093651e-06 0.0001035912560021432 -1.0365584841907338e-05 -1.8794726226514377e-05 -1.0365584841907338e-05 0.00010847295317680666" energy=-392.4569752547452 pbc="T T T"
Ni       0.01125013       0.01216204       0.17573797        4       1.00000000       0.05169730       0.01222953       0.20362706
Ni       2.54131251      -0.01067252       0.21998864        4       1.00000000       0.01291956      -0.02606021       0.35757929
Ni       5.09772358      -0.02584689       0.17254858        4       1.00000000       0.00382971       0.09018947       0.21571824
Ni       7.64265425      -0.06291544       0.19336869        4       1.00000000      -0.05401027      -0.09110532       0.29717680
Ni       1.23065002       2.20421621       0.11355364        4       1.00000000      -0.09062647       0.04843408       0.18102029
Pt       3.76394748       2.20302425       0.18945336        4       0.00000000      -0.06737231       0.01650844       0.22566677
Pt       6.41924579       2.19226616       0.11735434        4       0.00000000       0.10005947       0.03072834      -0.02355139
Ni       8.95218989       2.20596233       0.16643772        4       1.00000000       0.10144486       0.13257208       0.11959958
Ni       2.52945869       4.41570250       0.07119509        4       1.00000000      -0.01133768       0.05687774      -0.00829099
Ni       5.06727258       4.40124210       0.11315273        4       1.00000000      -0.02979442       0.00043325       0.19780650
Ni       7.67258348       4.38144695       0.12349765        4       1.00000000       0.14016948       0.02583122       0.17760597
Ni      10.17157285       4.35615987       0.09771315        4       1.00000000      -0.01639455       0.00011032       0.06061651
Ni       3.77363512       6.57265092       0.10718809        4       1.00000000      -0.03487861      -0.01358315       0.15091955
Pt       6.34626216       6.56576642       0.10762346        4       0.00000000      -0.02096402      -0.02183013      -0.16994137
Ni       8.90773174       6.54591340       0.17588726        4       1.00000000      -0.03367488      -0.07286297       0.22057363
Ni      11.46933926       6.55375339       0.07918579        4       1.00000000       0.06556298      -0.04949636      -0.06824268
Ni       1.28417515       0.72927351       2.16315577        3       1.00000000      -0.04560921       0.01552904       0.02181861
Ni       3.81805315       0.72799425       2.19973338        3       1.00000000       0.06205057       0.03890571       0.02714516
Ni       6.36152381       0.73828861       2.23770863        3       1.00000000      -0.01158098       0.11108062       0.15724497
Pt       8.92145603       0.75178685       2.17954050        3       0.00000000      -0.03366268       0.12321071       0.01933689
Ni       2.52738073       2.92996619       2.20693597        3       1.00000000      -0.00282092       0.04223160      -0.05909800
Ni       5.08947750       2.93316988       2.23555539        3       1.00000000      -0.06979601      -0.00172855       0.00193920
Ni       7.65874306       2.94789337       2.21126322        3       1.00000000       0.09812368       0.08436839      -0.00440335
Ni      10.18467638       2.90510943       2.20705975        3       1.00000000       0.04035909       0.05839833       0.10472906
Ni       3.83460309       5.10320284       2.16150459        3       1.00000000       0.03028897      -0.04404239      -0.08941917
Ni       6.37389825       5.09108177       2.18284255        3       1.00000000       0.06176828      -0.02263210      -0.08684467
Ni       8.87023043       5.06568702       2.20352405        3       1.00000000       0.00966516      -0.02677686       0.08645046
Pt      11.47823608       5.04323945       2.21034481        3       0.00000000       0.04243994      -0.04981878      -0.00336414
Ni       5.08596016       7.29308054       2.17961948        3       1.00000000       0.01251852      -0.02958993      -0.06084212
Ni       7.59189170       7.29278587       2.20244015        3       1.00000000      -0.08529670      -0.10987704       0.07495524
Pt      10.19384685       7.29845309       2.15839532        3       0.00000000       0.03904820      -0.02937288       0.03936819
Ni      12.74086741       7.26712118       2.17612041        3       1.00000000       0.07349026      -0.11237247      -0.01781257
Ni      -0.00599506       1.51200498       4.30075374        2       1.00000000      -0.08915826       0.10956412      -0.04320953
Pt       2.49033867       1.51406264       4.23018334        2       0.00000000      -0.00771341       0.02326676       0.12919070
Ni       5.13213820       1.44409942       4.27946164        2       1.00000000      -0.04343549      -0.04830430      -0.12622499
Ni       7.63580288       1.44460432       4.31638732        2       1.00000000       0.01445457      -0.04174556      -0.03300966
Ni       1.24569952       3.68725723       4.35181100        2       1.00000000      -0.04566435       0.00900902      -0.02647646
Ni       3.78726538       3.69056445       4.27569531        2       1.00000000      -0.11535201       0.02482907      -0.22975055
Pt       6.40662110       3.60342150       4.30362825        2       0.00000000       0.02962868      -0.05949132      -0.05681561
Ni       8.95316072       3.66435808       4.29755970        2       1.00000000       0.09292093       0.05734672      -0.19067751
Ni       2.49918624       5.81242165       4.35230757        2       1.00000000      -0.04664845      -0.03289415      -0.08181775
Pt       5.08136605       5.81956044       4.30429916        2       0.00000000       0.00098476      -0.00562949      -0.16368831
Ni       7.65310670       5.80199561       4.29751000        2       1.00000000       0.08103975      -0.08182036      -0.20782318
Ni      10.21051950       5.77400834       4.34760912        2       1.00000000      -0.00904470      -0.02531568      -0.06998458
Pt       3.77315502       8.03179285       4.25738695        2       0.00000000      -0.05726934      -0.03758595       0.14043806
Ni       6.35195145       8.02181037       4.27188607        2       1.00000000      -0.07788500       0.02031332      -0.15680836
Pt       8.89118704       7.99423405       4.26774764        2       0.00000000      -0.06022372      -0.07715622       0.13035323
Ni      11.45289686       8.00056423       4.30342956        2       1.00000000      -0.02890527      -0.05326863      -0.06531245
Pt       0.01404537      -0.03854303       6.48029331        1       0.00000000       0.08597919      -0.06853095       0.04081976
Pt       2.53824893      -0.02204232       6.51229153        1       0.00000000      -0.12321339       0.01981295       0.22549917
Pt       5.12550232      -0.01897121       6.47682874        1       0.00000000       0.09772864      -0.02560663       0.01042442
Pt       7.64185455      -0.06983093       6.50482946        1       0.00000000      -0.10014589      -0.08292221       0.12598726
Ni       1.27199072       2.25806296       6.43936951        1       1.00000000       0.02314035       0.10016879      -0.11213937
Pt       3.83734212       2.30812398       6.38657437        1       0.00000000       0.00151792       0.23028131      -0.32385274
Ni       6.38155092       2.21324588       6.38466589        1       1.00000000      -0.00916717      -0.01522075      -0.21647981
Pt       8.92895306       2.26981601       6.44622474        1       0.00000000      -0.00614095       0.11598015      -0.00034445
Ni       2.51729125       4.42934060       6.42148940        1       1.00000000      -0.01956998       0.07544748      -0.20919403
Ni       5.10521355       4.42002650       6.46382833        1       1.00000000       0.02373075       0.13288301      -0.06142917
Ni       7.59748041       4.36395475       6.45452710        1       1.00000000      -0.18960684      -0.02947556      -0.08607847
Ni      10.25507634       4.35840326       6.43680884        1       1.00000000       0.21943493      -0.02832251      -0.16780376
Ni       3.79217336       6.50001038       6.45778167        1       1.00000000      -0.05275286      -0.14352942      -0.08122540
Ni       6.34517333       6.51252875       6.37781684        1       1.00000000       0.03702477      -0.01730950      -0.30070674
Pt       8.92203253       6.42006104       6.48343854        1       0.00000000       0.02291833      -0.18373412       0.09146479
Ni      11.48583338       6.48342800       6.43827332        1       1.00000000       0.01377722      -0.04752909      -0.23241203
