64
Lattice="10.298192684730983 -0.008135292195695651 0.0864201773020598 5.142050972656867 8.894953303806025 0.04217626344386011 0.07056177929030007 -0.0009746997527354771 8.848460373216366" Properties=species:S:1:pos:R:3:tags:I:1:initial_magmoms:R:1:forces:R:3 unique_id=852a50c9556544d3bfc3f4e36ec9eff1 stress="-0.011062607715430425 6.815741461881987e-05 7.508555895808426e-06 6.815741461881987e-05 -0.01111105278524218 -9.467143359667695e-06 7.508555895808426e-06 -9.467143359667695e-06 -0.009390109928912704" energy=-400.52394536790916 pbc="T T T"
Pt      -0.02654236      -0.04122886       0.15353162        4       0.00000000       0.04260226       0.02115373      -0.02395430
Ni       2.60568217      -0.07439358       0.14355783        4       1.00000000       0.02728192      -0.09600516       0.16606922
Ni       5.13007173      -0.03961032       0.15372132        4       1.00000000      -0.03131400      -0.04960947       0.14977636
Ni       7.74828973      -0.00455314       0.14799545        4       1.00000000       0.10650195       0.01565352       0.04672870
Pt       1.29276769       2.18473433       0.15140658        4       0.00000000       0.05529178      -0.06859050      -0.04279742
Pt       3.89541661       2.13233074       0.13840604        4       0.00000000       0.09251756      -0.11875438      -0.15483017
Pt       6.51847257       2.12558329       0.10515303        4       0.00000000       0.11337712      -0.03828243      -0.17835041
Ni       9.00940655       2.19643722       0.23595530        4       1.00000000       0.07206376      -0.00248873       0.12169001
Ni       2.58333753       4.47322519       0.19289681        4       1.00000000       0.00292158       0.02394231       0.23419225
Pt       5.10552011       4.54053424       0.09963813        4       0.00000000      -0.01024775       0.05026671      -0.06296202
Pt       7.71849429       4.50610000       0.17395622        4       0.00000000       0.01658094       0.05454692      -0.02220515
Pt      10.28528637       4.47252125       0.22908062        4       0.00000000      -0.00786348       0.02856971      -0.02001407
Ni       3.85265809       6.67698857       0.11520285        4       1.00000000      -0.02775119       0.00275011       0.12227753
Ni       6.47756916       6.70210015       0.14340538        4       1.00000000       0.14516620       0.06317735       0.07544387
Ni       8.98174817       6.73182211       0.26093035        4       1.00000000       0.02537578       0.06455440       0.21509087
Pt      11.58584999       6.75588559       0.19347936        4       0.00000000      -0.02535469       0.05362334      -0.19929444
Ni       1.35374628       0.68879142       2.30548709        3       1.00000000       0.08994119      -0.07133134       0.14449501
Ni       3.88442572       0.64486798       2.30439899        3       1.00000000       0.01983138      -0.07519085       0.06081831
Ni       6.43373427       0.72229327       2.33074304        3       1.00000000      -0.07187896      -0.01068220       0.04636090
Ni       8.98119488       0.75673886       2.32372137        3       1.00000000      -0.07506639       0.01949817       0.09542277
Pt       2.62568704       2.90834409       2.31515488        3       0.00000000       0.00414778      -0.01257689       0.09702735
Pt       5.22913179       2.93867061       2.33939093        3       0.00000000       0.03403963       0.00724645      -0.12253722
Ni       7.73660864       2.94732547       2.31926379        3       1.00000000       0.00286387      -0.00515870       0.02413148
Pt      10.19728920       2.89381154       2.39528343        3       0.00000000       0.03567162       0.00667210       0.10064789
Ni       3.88431720       5.19870109       2.29495573        3       1.00000000       0.01384975      -0.00043913       0.14834928
Ni       6.50890614       5.20039934       2.31199702        3       1.00000000       0.10070232      -0.01301473       0.10198294
Ni       8.97070532       5.24896323       2.37475574        3       1.00000000      -0.02969834       0.06808300       0.13955551
Pt      11.56265920       5.24387242       2.39163984        3       0.00000000      -0.04900684       0.00293192       0.10906131
Pt       5.25893540       7.37868298       2.29290678        3       0.00000000       0.03612745      -0.04262672       0.10098446
Ni       7.78896075       7.41563442       2.31619027        3       1.00000000       0.05966861       0.00173529       0.14996484
Ni      10.23672653       7.45366059       2.35612855        3       1.00000000      -0.02974515       0.03997168       0.09410686
Pt      12.87143296       7.48796814       2.35577063        3       0.00000000       0.03951065       0.02634078       0.01322840
Ni       0.02446686       1.45609459       4.37517411        2       1.00000000      -0.00658941      -0.07566998      -0.03610191
Ni       2.64030689       1.38306009       4.37975538        2       1.00000000       0.04863510      -0.14749921      -0.10538860
Ni       5.20251305       1.39860144       4.40508617        2       1.00000000       0.00031553      -0.08337985      -0.18560211
Ni       7.72617060       1.46495648       4.42182920        2       1.00000000      -0.04558279      -0.00589727      -0.18909609
Pt       1.32539896       3.71207243       4.41388138        2       0.00000000       0.05670556       0.05612940      -0.04714543
Ni       3.91499104       3.69044536       4.42103349        2       1.00000000       0.04612254      -0.00808413      -0.08085996
Pt       6.53142952       3.66552230       4.48840767        2       0.00000000       0.00714288      -0.00501620      -0.10196997
Ni       9.01117255       3.71817680       4.45605112        2       1.00000000      -0.00720247       0.06245592      -0.02659430
Ni       2.60966069       5.94262334       4.39350724        2       1.00000000       0.03476100       0.00032985      -0.11081728
Pt       5.20474714       5.92905779       4.48534449        2       0.00000000       0.02355177       0.02963219      -0.00955447
Ni       7.78939473       5.95475444       4.42372853        2       1.00000000       0.02551784       0.09531975      -0.09792599
Ni      10.26772423       5.99583056       4.44389888        2       1.00000000      -0.15888660       0.16530430      -0.07144308
Pt       3.81965032       8.20407679       4.44720217        2       0.00000000      -0.11579662      -0.03725243      -0.02660565
Ni       6.55245506       8.16547297       4.43093326        2       1.00000000       0.15125797      -0.04853974      -0.06359797
Ni       9.04139795       8.16713537       4.43003569        2       1.00000000       0.00769199      -0.00237793      -0.08429233
Ni      11.54063405       8.20710921       4.46440144        2       1.00000000      -0.13507946       0.06814278      -0.17310473
Pt       0.07136535      -0.10114122       6.48430371        1       0.00000000       0.05075370      -0.04782633       0.09631341
Ni       2.63247745      -0.01691121       6.53498993        1       1.00000000      -0.02431054       0.05163140      -0.15908262
Ni       5.21843556       0.01800497       6.55193315        1       1.00000000      -0.00475765       0.01951062      -0.17488000
Ni       7.72483182       0.01868747       6.60916254        1       1.00000000      -0.15952757       0.07838573      -0.05982160
Pt       1.35397958       2.15911306       6.48090301        1       0.00000000      -0.04434718      -0.03249978       0.09459010
Pt       3.99304718       2.15863724       6.44892484        1       0.00000000      -0.03303761      -0.01139401      -0.10575164
Ni       6.47075763       2.18387725       6.51640364        1       1.00000000      -0.06148279      -0.13029504      -0.20389087
Pt       8.94450757       2.19109085       6.60611415        1       0.00000000      -0.05734517      -0.01620318       0.05442374
Pt       2.72090399       4.49916313       6.58955022        1       0.00000000       0.02123991       0.02292133       0.18678378
Ni       5.23962130       4.45320024       6.52789604        1       1.00000000       0.05833384      -0.09084999      -0.05571825
Ni       7.71067868       4.45909234       6.54796312        1       1.00000000      -0.08461380       0.06060542      -0.06022766
Pt      10.26120736       4.48040074       6.55775772        1       0.00000000      -0.13667370       0.08529368       0.09682119
Ni       3.92172631       6.66861826       6.59784014        1       1.00000000      -0.04524117       0.00479833       0.01507636
Ni       6.46818207       6.63473706       6.60252995        1       1.00000000      -0.04848742      -0.10491620      -0.03503701
Pt       8.95521346       6.74490986       6.60194574        1       0.00000000      -0.08728569       0.09066407       0.12674105
Pt      11.64999567       6.76638046       6.51347551        1       0.00000000      -0.05389030       0.01061025      -0.13670103
