64
Lattice="10.310972428310862 -0.02710505064193802 -0.013583103633077895 5.132012551728647 8.89362996170661 -0.06258803161503564 0.0 0.0 21.604591792610762" Properties=species:S:1:pos:R:3:tags:I:1:initial_magmoms:R:1:forces:R:3 unique_id=18d82c4ccc494763924c73e01b6d1bd5 energy=-375.8428149374483 stress="0.005342714834214911 -2.6691510855905273e-05 5.019209071013832e-06 -2.6691510855905273e-05 0.00557999040285841 -0.0004387462894509456 5.019209071013832e-06 -0.0004387462894509456 -0.0017895315378264297" pbc="T T T"
Ni       0.01949594       0.02771306       0.19800408        2       1.00000000       0.06152895       0.04789746      -0.03595195
Ni       2.56559666      -0.00817452       0.20023857        2       1.00000000      -0.08838504       0.01743413      -0.09704039
Ni       5.12402378      -0.03386808       0.14928519        1       1.00000000      -0.04460088       0.19046877      -0.43680243
Pt       7.78570585      -0.09449976       0.07081062        1       0.00000000       0.13345994      -0.04482023      -0.13653336
Ni       1.24315320       2.22158683       0.09082094        1       1.00000000      -0.08550392      -0.00652753       0.48578539
Pt       3.77321389       2.22012492       0.08918351        1       0.00000000      -0.01955688       0.00201462       0.00357315
Pt       6.43059931       2.22905993       0.11641360        1       0.00000000      -0.02520997       0.05159959      -0.69781308
Ni       9.06675098       2.19494505       0.14623985        1       1.00000000       0.02216419      -0.01352542       0.13675767
Ni       2.55867813       4.45222117       0.03729030        0       1.00000000       0.07276623      -0.02202330       0.22395569
Ni       5.10354537       4.45475520       0.14344742        1       1.00000000      -0.04476470       0.03389599       0.04698246
Pt       7.80268490       4.45284054       0.06433718        1       0.00000000       0.05955949       0.04651735      -0.01024678
Ni      10.32541938       4.40839382       0.02380444        0       1.00000000       0.03643034      -0.10823961       0.25846397
Ni       3.83334911       6.62746451       0.13902368        1       1.00000000      -0.03821225      -0.12042439       0.04881988
Pt       6.39632714       6.69854011       0.13701530        1       0.00000000      -0.03777189       0.01996808      -0.49480455
Ni       9.01741734       6.66065965       0.00725455        0       1.00000000      -0.13220791      -0.00480623       0.06431229
Ni      11.58222931       6.61190596       0.00000000        0       1.00000000       0.12558763      -0.07295102       0.11213878
Ni       1.26516439       0.74745433       2.15808350        5       1.00000000      -0.06612791       0.11922895       0.02311043
Ni       3.82594607       0.73896893       2.18207166        5       1.00000000      -0.03394102       0.03924292       0.15798011
Pt       6.45920857       0.76343919       2.26867993        6       0.00000000       0.03927485       0.20460477       0.07790900
Ni       9.06721910       0.73504312       2.18848531        5       1.00000000       0.08710275       0.13726532       0.16090915
Ni       2.56842336       2.93818775       2.18177950        5       1.00000000      -0.01354770      -0.02802828       0.12584035
Ni       5.09835840       2.99015500       2.20526862        5       1.00000000      -0.20775956       0.09200121       0.13225155
Ni       7.78278724       2.95921558       2.20565282        5       1.00000000       0.21440868       0.00288659       0.12382277
Ni      10.28379711       2.88950092       2.15798343        5       1.00000000       0.05860161      -0.07781783       0.07176077
Ni       3.88432468       5.17131239       2.17251555        5       1.00000000       0.09954422      -0.04304397       0.15738075
Ni       6.41138764       5.16896232       2.18953342        5       1.00000000      -0.06207259       0.06026635       0.15671023
Ni       8.98195132       5.12725558       2.18867495        5       1.00000000      -0.05588366      -0.16033573       0.20591917
Pt      11.63016157       5.10140773       2.09194194        4       0.00000000       0.03455571      -0.14891018      -0.01841809
Ni       5.10077304       7.38758007       2.14092890        4       1.00000000      -0.12526939      -0.07997114       0.02054811
Ni       7.69581329       7.38745306       2.14128993        4       1.00000000      -0.00900270      -0.08209016       0.04233584
Pt      10.24114041       7.35182527       2.04912181        3       0.00000000       0.05376586      -0.10817875      -0.07403923
Ni      12.91057710       7.34215621       2.12576469        4       1.00000000       0.03600576      -0.10823066       0.09855440
Ni      -0.03463133       1.48731911       4.30744093        8       1.00000000      -0.02933773      -0.00905726      -0.36688628
Pt       2.59536967       1.50515327       4.29391489        8       0.00000000      -0.06219951      -0.02147250      -0.11765735
Ni       5.13330118       1.48303430       4.32531310        8       1.00000000      -0.04571253       0.15018837      -0.22919117
Ni       7.77324381       1.47308096       4.31972160        8       1.00000000       0.22567086       0.09759843      -0.27043188
Pt       1.26837249       3.67157103       4.37671477        9       0.00000000      -0.04573575      -0.06459476      -0.05087670
Ni       3.86017222       3.70613967       4.30352310        8       1.00000000       0.05199200       0.11731583      -0.28085436
Pt       6.44515996       3.69895601       4.22056719        7       0.00000000      -0.03329844      -0.00035463      -0.09077816
Ni       8.99065592       3.64051419       4.29922110        8       1.00000000      -0.02913396      -0.11481289      -0.34556550
Ni       2.58538400       5.86687029       4.31058632        8       1.00000000       0.13739912      -0.10536367      -0.21751788
Ni       5.10521481       5.86445540       4.26443610        8       1.00000000      -0.10405220      -0.01901945      -0.36165821
Ni       7.71557747       5.84797614       4.27767425        8       1.00000000      -0.06164433      -0.02386440      -0.34101701
Pt      10.24623523       5.82778652       4.37411089        9       0.00000000      -0.03721458      -0.04757772      -0.09084162
Pt       3.84176974       8.13674227       4.21374512        7       0.00000000       0.03264935       0.05410096      -0.06732220
Pt       6.39348231       8.09519516       4.17683582        7       0.00000000      -0.06489599       0.01022547      -0.16605156
Pt       8.97717017       8.10486862       4.25563027        8       0.00000000      -0.08681490      -0.00227463      -0.05679439
Pt      11.60706297       8.10232845       4.31431311        8       0.00000000       0.07240951      -0.05993619      -0.00234157
Pt      -0.02108036       0.01125931       6.57264048       12       0.00000000       0.04437611       0.05726175       0.14937430
Pt       2.58796408       0.01537064       6.60459179       12       0.00000000       0.01320846       0.01488797       0.37214832
Pt       5.17969861      -0.10539640       6.58326523       12       0.00000000      -0.02588888       0.08549364       0.57417266
Ni       7.73152435      -0.05353618       6.44884957       10       1.00000000       0.07757513       0.15035621       0.31394368
Ni       1.29568484       2.24624378       6.51770656       11       1.00000000       0.01607414       0.02047518      -0.13195221
Ni       3.82970817       2.21049270       6.43162177       10       1.00000000       0.03261630      -0.06700469       0.08754764
Pt       6.44539958       2.16359588       6.40404582       10       0.00000000       0.02809718      -0.03227796       0.66158294
Pt       9.05707109       2.25981446       6.47364391       11       0.00000000       0.03999525       0.08742173      -0.01737726
Ni       2.51162472       4.39128602       6.49368232       11       1.00000000      -0.03895135       0.03316552      -0.19138687
Pt       5.06686509       4.36888656       6.48861926       11       0.00000000      -0.09659011       0.08297837       0.06401902
Ni       7.76441218       4.41870204       6.39904202       10       1.00000000       0.07419494       0.06483354      -0.04221237
Ni      10.30983663       4.41920313       6.49933685       11       1.00000000       0.02309464       0.04190280      -0.09670745
Pt       3.73470084       6.61549844       6.49305941       11       0.00000000       0.11619300      -0.11210204      -0.02418439
Pt       6.48102525       6.57372022       6.40474203       10       0.00000000      -0.16475770      -0.04330871       0.45691023
Ni       9.02562414       6.56970754       6.48215257       11       1.00000000      -0.08538751      -0.02384263      -0.01595193
Ni      11.55469293       6.56816213       6.48113233       11       1.00000000      -0.01886877      -0.15670926      -0.03831252
