64
Lattice="10.470753790003942 0.017420180810556973 0.09254862326619973 5.250463214122436 9.136618513324368 0.06742648147411803 0.07556563446641996 0.01994245697519127 9.07141506193082" Properties=species:S:1:pos:R:3:tags:I:1:initial_magmoms:R:1:forces:R:3 unique_id=16a86c80036e442486c830dcc1f873d8 stress="-0.0009696543520359285 -6.562414479516209e-06 -2.2840771047361638e-06 -6.562414479516209e-06 -0.000983794294498866 -4.842254768447135e-06 -2.2840771047361638e-06 -4.842254768447135e-06 -0.0007635926075200902" energy=-410.33305011984265 pbc="T T T"
Pt      -0.04187453       0.05401588       0.03329070        4       0.00000000      -0.09251772       0.09208224      -0.15763606
Ni       2.65815243       0.00543889       0.15455149        4       1.00000000       0.12342329      -0.01969901       0.38541695
Ni       5.24722129      -0.01182147       0.17398202        4       1.00000000       0.14516472      -0.16121693       0.20322606
Ni       7.83362020       0.02520097       0.20392094        4       1.00000000      -0.08624050       0.02578695       0.30671574
Pt       1.30278857       2.29723934       0.02375801        4       0.00000000       0.00626326       0.07973338      -0.21394325
Ni       3.94382503       2.26954768       0.17109446        4       1.00000000       0.06420044       0.03935099       0.27694595
Pt       6.58347442       2.22358577       0.21782205        4       0.00000000       0.12274802      -0.14983118       0.08322371
Ni       9.16447071       2.31666585       0.15242851        4       1.00000000      -0.02669072       0.14765003       0.19778735
Pt       2.55638225       4.59912026       0.15548052        4       0.00000000      -0.12191410       0.16356699       0.18217404
Pt       5.29514993       4.52316721       0.20751660        4       0.00000000       0.12216465      -0.10932715       0.22047364
Ni       7.91582322       4.57597708       0.21222706        4       1.00000000       0.23904862      -0.06161025       0.27848723
Ni      10.44396681       4.60850074       0.17056118        4       1.00000000      -0.19258826       0.13688593       0.21176653
Pt       3.89327429       6.89011310       0.14636601        4       0.00000000       0.00011283       0.05181960       0.05240284
Pt       6.65655923       6.83624700       0.18710013        4       0.00000000       0.21678198      -0.02024930       0.18211971
Ni       9.21765998       6.84476652       0.15973584        4       1.00000000       0.22553037      -0.10535845       0.13286532
Ni      11.75144424       6.87664139       0.24759768        4       1.00000000      -0.11360127       0.03849109       0.20606903
Pt       1.29350547       0.77919624       2.30042439        3       0.00000000      -0.11147087       0.08663097      -0.03537903
Pt       4.02424571       0.78271133       2.23444256        3       0.00000000       0.07922392      -0.08173036       0.02920154
Ni       6.59147151       0.78426862       2.34096959        3       1.00000000       0.15511540       0.04513796       0.07492816
Ni       9.14418820       0.81226368       2.36037224        3       1.00000000      -0.10780917       0.26956401      -0.02130303
Pt       2.65120701       3.05797298       2.30877575        3       0.00000000      -0.08500590       0.09385516      -0.04559115
Ni       5.29404786       3.04950782       2.34257856        3       1.00000000       0.12692224       0.00460779       0.06859756
Pt       7.84536556       3.07714313       2.42099650        3       0.00000000      -0.09738239      -0.01211722       0.13877633
Pt      10.43290727       3.12359346       2.38114364        3       0.00000000      -0.06397190       0.03433160      -0.11170299
Pt       3.96933216       5.32673666       2.35654628        3       0.00000000      -0.06895187       0.05301650      -0.17702343
Ni       6.61791481       5.30257974       2.36410386        3       1.00000000       0.19301266      -0.11940409       0.04679357
Ni       9.18816862       5.33657220       2.37028899        3       1.00000000      -0.01400027      -0.07789863       0.06669105
Ni      11.76220811       5.35787042       2.39020734        3       1.00000000      -0.14161155      -0.02929475       0.06813700
Pt       5.25696144       7.62902613       2.36055543        3       0.00000000       0.04984443       0.08452782      -0.23072727
Pt       7.93424384       7.53695843       2.37679406        3       0.00000000      -0.10337642      -0.16289649       0.11559905
Pt      10.51680545       7.56267129       2.34961534        3       0.00000000       0.00435397      -0.18442406       0.05791097
Pt      13.06495996       7.71740085       2.40654008        3       0.00000000       0.02113306       0.14757111      -0.05588165
Ni      -0.01421791       1.56258712       4.56204108        2       1.00000000      -0.23693811       0.18785979      -0.01185010
Pt       2.61788571       1.54445054       4.55625863        2       0.00000000       0.07749243      -0.02310458       0.00862786
Pt       5.38368721       1.52129891       4.48325805        2       0.00000000       0.20200502      -0.08397330      -0.12198774
Ni       7.93045944       1.57789151       4.56690954        2       1.00000000       0.16835917       0.24067346      -0.12996738
Pt       1.20482563       3.82829190       4.55712610        2       0.00000000      -0.21915897       0.05553151      -0.04877237
Pt       4.01379691       3.79312015       4.51633542        2       0.00000000       0.07567112      -0.05985355       0.09951500
Ni       6.65431355       3.82790198       4.55624826        2       1.00000000       0.24266598       0.03133709      -0.06711949
Ni       9.17579279       3.82819689       4.60747130        2       1.00000000      -0.22974975      -0.02207351      -0.13923391
Pt       2.57221231       6.13624585       4.50557217        2       0.00000000      -0.19898194       0.02521814      -0.02983119
Pt       5.37315094       6.06571057       4.51562633        2       0.00000000       0.17922333      -0.09324967       0.02900321
Ni       7.94721270       6.05277169       4.58516421        2       1.00000000       0.22522162      -0.27566063      -0.19869068
Ni      10.47378028       6.08722512       4.62294981        2       1.00000000      -0.26131168      -0.18917544      -0.11226687
Pt       3.93839033       8.50563098       4.53637083        2       0.00000000      -0.11415424       0.17879448      -0.06231832
Pt       6.58088052       8.40879255       4.60264171        2       0.00000000       0.01597703       0.00461796       0.05154722
Pt       9.26214326       8.28938594       4.62920111        2       0.00000000       0.04525649      -0.07611600       0.09656507
Ni      11.83102561       8.40562484       4.63216013        2       1.00000000      -0.02058438       0.04380555      -0.01420523
Ni       0.04832816       0.06274152       6.66860429        1       1.00000000      -0.04251758       0.17061492      -0.37532074
Pt       2.62228219       0.02422162       6.82009691        1       0.00000000      -0.17481190       0.05666479       0.21317587
Pt       5.27748750      -0.01100234       6.82328026        1       0.00000000      -0.04230440       0.06232394       0.09230081
Pt       7.95326178       0.07777847       6.82306695        1       0.00000000       0.06010381       0.02288881       0.12420425
Ni       1.29308759       2.29211237       6.68598262        1       1.00000000      -0.37140409      -0.06034576      -0.38127576
Pt       3.94544309       2.28707046       6.83064147        1       0.00000000      -0.03895711      -0.00983712       0.10652628
Pt       6.66822850       2.32016859       6.72807642        1       0.00000000       0.10525001       0.05414002      -0.14770850
Ni       9.26673572       2.31329218       6.80851908        1       1.00000000       0.21897174       0.00180577      -0.26879952
Pt       2.58931694       4.54966410       6.73035626        1       0.00000000      -0.14184491      -0.09026340      -0.23866965
Pt       5.32406990       4.57411038       6.75151611        1       0.00000000       0.02066911      -0.01103757      -0.15380424
Pt       8.03967871       4.59056425       6.77709736        1       0.00000000       0.18942127      -0.05112471      -0.00735899
Ni      10.50413343       4.57968841       6.84386790        1       1.00000000      -0.04959627      -0.12082049      -0.10924189
Pt       3.99469012       6.89668101       6.73038051        1       0.00000000      -0.02713027      -0.01014959      -0.40789322
Pt       6.66612449       6.87247432       6.76162004        1       0.00000000       0.08219123      -0.09742270      -0.27160133
Ni       9.23076189       6.84424123       6.84659058        1       1.00000000      -0.04776135      -0.07628426      -0.12761431
Pt      11.74619587       6.84220935       6.87625071        1       0.00000000      -0.15918334      -0.08533619       0.06694444
