64
Lattice="10.491540844886396 -0.004806623809512153 0.004908347836672409 5.241607764117723 9.09467504755916 -0.01914888265493542 0.0 0.0 21.79384444307498" Properties=species:S:1:pos:R:3:tags:I:1:initial_magmoms:R:1:forces:R:3 unique_id=9aa572faf4724ff7ad581df680725109 stress="0.004692524637948605 -0.00017814844062134571 -0.00019365828241334408 -0.00017814844062134571 0.005407271101628789 -0.0002954240451562683 -0.00019365828241334408 -0.0002954240451562683 -0.0022364772939956756" energy=-385.3675727012051 pbc="T T T"
Ni      -0.01881479       0.02647474       0.06803658        1       1.00000000      -0.07765771      -0.07793205       0.22910214
Ni       2.61724262      -0.00007363       0.16984685        2       1.00000000       0.01863272      -0.10176928      -0.22478148
Pt       5.29226880       0.03472373       0.01686345        0       0.00000000       0.07710823      -0.06225160      -0.10113244
Ni       7.88288962       0.03115046       0.15707398        2       1.00000000      -0.00204097       0.06505312      -0.13613911
Pt       1.29233517       2.23316803       0.00000000        0       0.00000000      -0.09322743       0.07856194       0.02382961
Ni       3.92663227       2.27474820       0.17172390        2       1.00000000      -0.00519679       0.00457499      -0.12192539
Ni       6.60102199       2.27141944       0.15711318        2       1.00000000       0.09654384      -0.01797078       0.04294839
Ni       9.15965270       2.26886570       0.07665521        1       1.00000000      -0.02531653      -0.00942534       0.39825977
Ni       2.60606601       4.54532897       0.15408501        2       1.00000000      -0.07051027       0.03711773      -0.11885137
Pt       5.26951064       4.47660409       0.11899967        1       0.00000000       0.10962861       0.19832403      -0.66131015
Ni       7.87844827       4.51054656       0.09128320        1       1.00000000      -0.03515594       0.02720846       0.34979108
Pt      10.47966210       4.51259788       0.10083369        1       0.00000000       0.03311391      -0.02345772       0.24865600
Pt       3.86510774       6.85865759       0.08678760        1       0.00000000       0.11336687      -0.07162687      -1.11275499
Pt       6.56325876       6.82996891       0.11516205        1       0.00000000      -0.13157719      -0.20533761      -0.86130656
Pt       9.19674303       6.79358436       0.01079771        0       0.00000000       0.06875643      -0.01516589       0.01624578
Ni      11.79587473       6.80195367       0.14514218        1       1.00000000      -0.05621825      -0.04443062      -0.03598281
Pt       1.28332069       0.78447663       2.27550229        4       0.00000000       0.07284323      -0.03398634       0.16312113
Pt       3.92977714       0.74145403       2.26107391        4       0.00000000       0.00197561      -0.09678030       0.26704883
Pt       6.58968343       0.77030751       2.30721880        4       0.00000000       0.00972924       0.11364455       0.31502541
Pt       9.19907168       0.84147126       2.24829527        3       0.00000000       0.02283630       0.11026411       0.06834025
Pt       2.55800392       3.07890042       2.26612376        4       0.00000000      -0.07179157       0.01111800       0.11605301
Pt       5.28503500       3.05863160       2.33786609        4       0.00000000       0.01602667      -0.08025158       0.35840015
Pt       7.93673930       3.13369945       2.31383194        4       0.00000000       0.04094305       0.05468823       0.03882296
Ni      10.47569198       3.07609668       2.30427706        4       1.00000000       0.00248124       0.10025802       0.10357161
Pt       3.90520967       5.28180466       2.29026408        4       0.00000000      -0.13331253       0.02091797       0.26067380
Ni       6.60961547       5.27788225       2.30038133        4       1.00000000       0.11304706      -0.02584724       0.20918875
Ni       9.19900100       5.26454330       2.33507039        4       1.00000000       0.08880127      -0.00723611       0.24671817
Ni      11.74471565       5.26428638       2.27202471        4       1.00000000      -0.08152071      -0.07216949       0.17649125
Pt       5.23749547       7.57177909       2.28192907        4       0.00000000      -0.04054322       0.09269790       0.27884850
Pt       7.89041940       7.46488710       2.33222831        4       0.00000000       0.12118258      -0.04059040       0.27572439
Pt      10.49820786       7.45964577       2.33313190        4       0.00000000      -0.06320353      -0.09029319       0.19285839
Pt      13.06488294       7.56348681       2.27249589        4       0.00000000      -0.07314708       0.02367634       0.25785673
Ni      -0.06058397       1.55388258       4.55525812        7       1.00000000      -0.15584632       0.07720789      -0.10478832
Pt       2.60173263       1.55803609       4.53289205        6       0.00000000       0.03263499       0.10599402      -0.16242294
Pt       5.32700503       1.52447870       4.54830491        6       0.00000000       0.08072688       0.08911936      -0.07706430
Ni       7.91484530       1.57128080       4.52472235        6       1.00000000       0.07936538       0.18636867      -0.11989976
Pt       1.15105399       3.78297679       4.50009958        6       0.00000000      -0.17143040      -0.01246000      -0.16837684
Ni       3.92724419       3.77031254       4.51133001        6       1.00000000      -0.07594389       0.03817270      -0.23163307
Ni       6.64881936       3.78086453       4.50229348        6       1.00000000       0.22447814      -0.01430320      -0.14676648
Ni       9.13957862       3.78983607       4.53689684        6       1.00000000      -0.11250452      -0.02806967      -0.01553061
Pt       2.53168182       6.03996274       4.47428020        6       0.00000000      -0.10095397      -0.01197403      -0.22730547
Pt       5.32229087       5.96379410       4.43812375        5       0.00000000       0.01832417      -0.04484414      -0.38557526
Ni       7.92678661       5.95413137       4.49859474        6       1.00000000       0.11971671      -0.22062030      -0.24592159
Ni      10.42858525       5.99907078       4.51079453        6       1.00000000      -0.13615089      -0.09019717      -0.17066879
Pt       3.89528250       8.43597233       4.49538843        6       0.00000000      -0.05973300       0.10671341      -0.15205902
Pt       6.54518516       8.35209245       4.51725135        6       0.00000000      -0.08920050       0.09161222      -0.16926466
Pt       9.23444542       8.23498208       4.57252768        7       0.00000000      -0.02790016      -0.03013895      -0.15978144
Ni      11.80095245       8.32929322       4.52623778        6       1.00000000       0.07540884       0.00392642      -0.19303544
Ni       0.00401802       0.05020066       6.71982719        9       1.00000000       0.06312819       0.06561101      -0.30617518
Pt       2.61581717      -0.01122099       6.79384444       10       0.00000000      -0.02039590      -0.07603195       0.25931263
Ni       5.25959662      -0.01815102       6.63549188        8       1.00000000       0.07394314       0.05276419       0.31425196
Pt       7.88945889       0.03758034       6.75614022       10       0.00000000      -0.10079536       0.06076314      -0.03884598
Ni       1.23208449       2.24761422       6.61956705        8       1.00000000      -0.07754241      -0.01880763       0.11870576
Pt       3.93730645       2.23474040       6.77566711       10       0.00000000       0.05315004       0.12156079       0.25123744
Pt       6.67849481       2.30168727       6.74206107        9       0.00000000       0.15583503       0.08448370      -0.02248541
Ni       9.22799848       2.27982800       6.68363487        9       1.00000000       0.08120190       0.07727545      -0.58431687
Pt       2.53684084       4.49298506       6.74252409        9       0.00000000      -0.02214468      -0.05285856       0.00614263
Pt       5.29107442       4.50216670       6.61909527        8       0.00000000      -0.06058716      -0.16581243       0.67826038
Ni       7.94632194       4.52098631       6.66353531        9       1.00000000       0.13647601       0.02566920      -0.46924182
Ni      10.41949744       4.50887234       6.63435550        8       1.00000000      -0.11989666       0.04182551      -0.23934746
Pt       3.95423656       6.83952801       6.63224971        8       0.00000000      -0.01358796      -0.06678451       0.83431639
Pt       6.65256783       6.76062388       6.63457733        8       0.00000000       0.25454721      -0.03425680       0.66508533
Ni       9.18310847       6.74156450       6.61067256        8       1.00000000      -0.07570955      -0.21085920       0.14627385
Pt      11.68008338       6.81367652       6.71211012        9       0.00000000      -0.07521047      -0.01263211      -0.14647148
