64
Lattice="10.243994739546169 0.0188802541268177 -0.0415469665178984 5.138348149476812 8.872654962489635 -0.017152768059590803 0.0 0.0 21.46781567379651" Properties=species:S:1:pos:R:3:tags:I:1:initial_magmoms:R:1:forces:R:3 unique_id=c9d53cd1481a4f8c98fe7012a1c6029e energy=-371.72245458665117 stress="0.005431840829906969 7.572199283108692e-05 -0.00023840870855356216 7.572199283108692e-05 0.005153792633041264 0.00012418456095040584 -0.00023840870855356216 0.00012418456095040584 -0.0020659253657707" pbc="T T T"
Pt      -0.01312588       0.04370760       0.12900426        1       0.00000000       0.09677332      -0.03023887      -0.19795697
Pt       2.57901675       0.02641269       0.20598394        2       0.00000000      -0.04228408      -0.02836598      -0.40753868
Pt       5.10035422       0.06433758       0.05907498        1       0.00000000      -0.07452280      -0.07569911      -0.19118321
Pt       7.68211910       0.10549016       0.03041485        0       0.00000000      -0.00094365      -0.09778827      -0.30431330
Pt       1.22065912       2.26665549       0.12078321        1       0.00000000      -0.09599325       0.05639692       0.05675463
Ni       3.84302160       2.21538075       0.09184923        1       1.00000000      -0.09670806       0.04787175       0.00638906
Ni       6.43996081       2.25295507       0.06992507        1       1.00000000       0.14016645       0.07834708       0.14301082
Ni       8.93235971       2.30319546       0.09221710        1       1.00000000      -0.06726453       0.08002999       0.29061344
Pt       2.55375699       4.40155061       0.11182519        1       0.00000000      -0.00900694      -0.02860672      -0.08379187
Pt       5.18769197       4.35397006       0.00000000        0       0.00000000       0.05107116       0.13870829      -0.35827861
Ni       7.74118464       4.39488922       0.06488680        1       1.00000000      -0.02336661      -0.06816488       0.14481244
Ni      10.19100262       4.43557822       0.06223422        1       1.00000000       0.00152368      -0.02572607       0.02910127
Pt       3.85186822       6.64430754       0.10899319        1       0.00000000       0.08476932      -0.06913781      -0.21113407
Pt       6.49620740       6.61732452       0.04691307        0       0.00000000       0.04944748       0.00057642      -0.21223735
Ni       8.97430153       6.63283988       0.16764721        2       1.00000000      -0.05150272       0.11525798      -0.35168530
Pt      11.44899599       6.63389628       0.08666593        1       0.00000000      -0.02203913       0.13088999      -0.09655903
Ni       1.26628242       0.75578043       2.31486962        4       1.00000000      -0.07470633       0.01090522       0.34440321
Ni       3.79493352       0.73688665       2.30340594        4       1.00000000      -0.08786245      -0.03710413       0.34327399
Pt       6.43940386       0.75827683       2.27115423        4       0.00000000       0.18033991      -0.01968264      -0.07623769
Ni       8.99791686       0.80191295       2.23641789        3       1.00000000       0.15163498       0.14100277       0.13942677
Ni       2.51229194       2.93635186       2.26713529        4       1.00000000      -0.17952826      -0.11107411       0.19632909
Pt       5.07002633       2.93473882       2.24148488        3       0.00000000      -0.11536715       0.06523048      -0.13127779
Ni       7.72676336       2.94954934       2.20493162        3       1.00000000       0.05847007      -0.04266085       0.20221217
Ni      10.24112312       2.94442874       2.23499085        3       1.00000000       0.05320150      -0.13427873       0.26856150
Ni       3.80090058       5.20441252       2.26799389        4       1.00000000      -0.07913871       0.10686148       0.21894737
Pt       6.39288736       5.20853175       2.32171995        4       0.00000000      -0.11257541       0.00669219       0.04225670
Pt       9.00048711       5.14102967       2.16519701        3       0.00000000      -0.01258447      -0.12054706      -0.02549723
Ni      11.55519205       5.16060835       2.22332407        3       1.00000000       0.12237361      -0.14192203       0.20339332
Ni       5.13807463       7.42904778       2.25366912        4       1.00000000       0.11897605       0.08366156       0.10173031
Ni       7.69941874       7.43754586       2.28116085        4       1.00000000      -0.04287455       0.04698519       0.29291840
Ni      10.21880003       7.41392691       2.21144501        3       1.00000000      -0.06269130       0.08845165       0.21697861
Ni      12.82149585       7.37711267       2.20822163        3       1.00000000       0.00730455      -0.06736039       0.11775727
Ni      -0.00000939       1.51474284       4.36215726        6       1.00000000       0.01134819       0.04207401      -0.13549190
Ni       2.51892515       1.49234069       4.30325778        5       1.00000000      -0.10436577      -0.01296653      -0.22728146
Ni       5.09323345       1.49993790       4.39446947        6       1.00000000      -0.02492342       0.02330668       0.02911514
Ni       7.69426233       1.55609935       4.36970305        6       1.00000000       0.11262376       0.11129142      -0.02761755
Ni       1.25102378       3.65035083       4.36131906        6       1.00000000      -0.10490365      -0.15361093      -0.19128229
Pt       3.79677923       3.70532318       4.38685969        6       0.00000000      -0.08336127      -0.00538571      -0.02709471
Ni       6.43461419       3.69245156       4.39611962        6       1.00000000       0.10507738      -0.07314210       0.02858468
Ni       8.94143830       3.65924610       4.36093028        6       1.00000000       0.01034146      -0.10743205      -0.03314878
Ni       2.57450302       5.90328560       4.35709495        6       1.00000000       0.08464171       0.02458330      -0.23295987
Ni       5.12974971       5.92207590       4.37440885        6       1.00000000      -0.02951621       0.02755350      -0.14085247
Ni       7.64525390       5.92385531       4.36582860        6       1.00000000       0.06155229       0.00244011       0.00763715
Pt      10.26034908       5.85334431       4.31597344        5       0.00000000       0.02670810      -0.16425007       0.03766720
Pt       3.90221460       8.14160885       4.33186135        5       0.00000000       0.05370547       0.08843042      -0.19483883
Ni       6.41572854       8.13493873       4.29511931        5       1.00000000       0.08497469       0.02302957      -0.27450936
Ni       8.93186753       8.16166912       4.28014318        5       1.00000000      -0.07891789      -0.05872896      -0.22045417
Pt      11.50688263       8.15994923       4.36451328        6       0.00000000      -0.00452077      -0.09105226      -0.03500458
Ni      -0.03951045       0.02145425       6.40096599        8       1.00000000       0.07416264       0.16090684       0.11232190
Pt       2.50985632       0.06473186       6.36555448        8       0.00000000      -0.06327024       0.03439320       0.46130101
Ni       5.11269167       0.05373760       6.37602360        8       1.00000000      -0.15765459       0.12576862       0.38591109
Ni       7.67813906       0.04659988       6.36848017        8       1.00000000       0.12774708       0.16853360       0.37368747
Ni       1.23765577       2.25693449       6.36956812        8       1.00000000      -0.04543616       0.01656528      -0.07681784
Ni       3.84498356       2.24320472       6.45397446        9       1.00000000       0.01417002      -0.01209773      -0.18169850
Ni       6.39356213       2.24178978       6.42519845        8       1.00000000       0.03225281       0.00331486      -0.37934126
Ni       8.93787696       2.24568941       6.41272091        8       1.00000000       0.03104185      -0.06273406      -0.43282330
Ni       2.52703423       4.44493827       6.39260594        8       1.00000000      -0.12874977       0.06001018       0.12899535
Ni       5.13228123       4.45044067       6.35097920        8       1.00000000       0.08825961       0.05801038       0.33444666
Ni       7.65161066       4.40209644       6.42117707        8       1.00000000       0.00979380      -0.07248538      -0.34253892
Ni      10.23921456       4.39620535       6.43114901        8       1.00000000       0.02027887      -0.15097273      -0.21350812
Ni       3.83697195       6.63764375       6.37606722        8       1.00000000       0.01446471      -0.12536215       0.04396312
Ni       6.35034864       6.63843897       6.33509696        7       1.00000000      -0.02404876       0.04600011       0.10359173
Pt       8.94310248       6.61941308       6.46781567        9       0.00000000      -0.11344902       0.11363781       0.29269631
Ni      11.55746363       6.65222217       6.37766235        8       1.00000000       0.13488143      -0.13914053       0.31616585
