64
Lattice="10.410675833270856 0.013098628019384512 0.017833548666610563 5.216681661254938 8.947925501142018 -0.0005270898542165986 0.014561031512095613 -0.008903760543468702 8.891031784372865" Properties=species:S:1:pos:R:3:tags:I:1:initial_magmoms:R:1:forces:R:3 unique_id=78b42978c6224097bd00b36444819197 stress="1.6017946946736417e-05 1.6323785454180415e-06 -5.2622601100816175e-06 1.6323785454180415e-06 1.736116614898392e-05 1.906224396631063e-05 -5.2622601100816175e-06 1.906224396631063e-05 3.387970905312926e-05" energy=-402.3987647786937 pbc="T T T"
Ni      -0.03067429      -0.00499273       0.18105087        4       1.00000000      -0.16292069       0.00329341       0.43060703
Ni       2.62223511      -0.01448129       0.10572984        4       1.00000000       0.13258254      -0.04760101       0.30802528
Ni       5.20946708      -0.01611508       0.15305173        4       1.00000000      -0.00729409       0.06819951       0.28085659
Ni       7.83075025      -0.02915084       0.11467977        4       1.00000000       0.10963518      -0.18722264       0.27535177
Pt       1.28689181       2.20412180       0.13969633        4       0.00000000      -0.06898753      -0.08696219       0.13067461
Pt       3.90377897       2.22950279       0.19133220        4       0.00000000      -0.00251357       0.00016447       0.06352711
Pt       6.52047764       2.16435941       0.15301916        4       0.00000000       0.09361473      -0.18107095       0.11524293
Ni       9.11980430       2.21704631       0.14797587        4       1.00000000       0.00324801      -0.16715052       0.21269543
Ni       2.61580080       4.50296059       0.13292315        4       1.00000000       0.06913439      -0.01380355       0.19226387
Ni       5.20330544       4.48704208       0.15926855        4       1.00000000       0.14105254      -0.06463844       0.28489532
Pt       7.85777853       4.49713650       0.04112053        4       0.00000000       0.09277514      -0.01284157      -0.18594985
Ni      10.43196106       4.51328929       0.06517781        4       1.00000000       0.07421464       0.08484214       0.10017621
Ni       3.88825887       6.73475388       0.16859904        4       1.00000000      -0.05935870       0.14119574       0.31907205
Pt       6.49925519       6.77405718       0.20416755        4       0.00000000      -0.03183526       0.06761209       0.09900445
Ni       9.14385608       6.74573829       0.06915517        4       1.00000000       0.03506466       0.10286086       0.08842611
Ni      11.73414496       6.73564185       0.07450993        4       1.00000000       0.11956030       0.09259366       0.03699077
Ni       1.32706506       0.71099778       2.23497731        3       1.00000000       0.09841933      -0.00783909      -0.08194663
Ni       3.88638104       0.76758175       2.26638804        3       1.00000000      -0.09845184       0.11961974       0.17529778
Ni       6.51583595       0.73437185       2.26407945        3       1.00000000       0.03517378      -0.01961174       0.15750178
Ni       9.11094618       0.70785526       2.22011814        3       1.00000000      -0.04009814      -0.12907908      -0.13349184
Ni       2.63905459       2.94959323       2.27353436        3       1.00000000       0.03814122      -0.10616664       0.16768228
Ni       5.18836561       2.96257191       2.27800397        3       1.00000000      -0.05718070      -0.16323893       0.16968391
Pt       7.79914612       2.91630607       2.29331682        3       0.00000000      -0.02296585      -0.12263200      -0.13160857
Pt      10.40947863       2.91297139       2.29562276        3       0.00000000       0.06019708      -0.11174255      -0.06740204
Pt       3.94796858       5.21047544       2.19653978        3       0.00000000      -0.03370641      -0.04128467       0.05503410
Ni       6.50781389       5.23050207       2.24201837        3       1.00000000       0.07305406      -0.01008413       0.00726383
Pt       9.07763642       5.27415469       2.30253994        3       0.00000000      -0.06994761       0.03373885       0.09517356
Pt      11.75332800       5.25709414       2.20857405        3       0.00000000      -0.05464269       0.08870785      -0.06263005
Ni       5.20689404       7.49566663       2.21539203        3       1.00000000      -0.09070592       0.13011903      -0.01592951
Ni       7.80604274       7.50142376       2.23704287        3       1.00000000       0.03485433       0.15284495       0.00542167
Pt      10.42344294       7.53777272       2.16660703        3       0.00000000      -0.02323308       0.02866020      -0.07063021
Ni      13.04980436       7.50520669       2.21233282        3       1.00000000       0.01718594       0.10216096      -0.10091320
Ni      -0.00880832       1.50117356       4.39690699        2       1.00000000      -0.07375541       0.06034132      -0.08797349
Ni       2.62898004       1.50252416       4.36690933        2       1.00000000       0.06835485       0.11234103      -0.36361934
Ni       5.19946235       1.50099051       4.37028238        2       1.00000000      -0.05046690      -0.00741530      -0.34423258
Ni       7.83241853       1.49469008       4.41227930        2       1.00000000       0.02227564      -0.00434146      -0.13967494
Pt       1.31028993       3.74131044       4.38758699        2       0.00000000       0.09524975       0.06142191       0.02849576
Ni       3.90539136       3.69627993       4.38608147        2       1.00000000      -0.02039960      -0.08398831      -0.19690525
Pt       6.53831416       3.71404912       4.38314134        2       0.00000000      -0.11923233       0.00251070       0.06781139
Ni       9.12770195       3.75127959       4.46147674        2       1.00000000       0.04851467       0.09393721      -0.04233110
Ni       2.59706479       5.95720918       4.41710549        2       1.00000000      -0.01494294       0.04851363      -0.12639588
Pt       5.21017560       5.95413883       4.35703914        2       0.00000000       0.02112453       0.11575957       0.07815797
Ni       7.86742054       5.94385707       4.43540940        2       1.00000000       0.06437522       0.01222386      -0.05891715
Ni      10.40788970       5.95490549       4.48425818        2       1.00000000      -0.02143100       0.02874515       0.03087315
Pt       3.90127826       8.25588707       4.32817058        2       0.00000000      -0.00822132       0.03953783      -0.13274224
Pt       6.54487156       8.26767798       4.32738707        2       0.00000000      -0.03050275       0.09582356      -0.06355891
Pt       9.11333955       8.20209624       4.41317366        2       0.00000000      -0.01276364       0.01009675      -0.05872312
Pt      11.74067327       8.20543775       4.41697658        2       0.00000000      -0.01323510       0.00092171      -0.05448197
Pt      -0.00039897      -0.00549903       6.64198549        1       0.00000000      -0.03445808      -0.02493203       0.19756241
Ni       2.62845082      -0.02500745       6.60942230        1       1.00000000       0.03963660      -0.05154692      -0.15124673
Pt       5.20983763      -0.10410052       6.66473505        1       0.00000000      -0.07992010      -0.26986354       0.20083374
Ni       7.80245424      -0.00449053       6.62202890        1       1.00000000      -0.03386061       0.01900176      -0.14619113
Pt       1.30411235       2.21323914       6.52044877        1       0.00000000       0.02845061       0.00027678      -0.27666130
Pt       3.90108331       2.18911229       6.49622222        1       0.00000000      -0.00487706      -0.07613152      -0.16146068
Pt       6.54782194       2.18190341       6.53167667        1       0.00000000      -0.05700986      -0.13869156      -0.25999744
Pt       9.11323151       2.30059650       6.58440965        1       0.00000000       0.00210238       0.11952559       0.02259762
Pt       2.53952004       4.51834324       6.61445945        1       0.00000000      -0.13403759       0.03468415       0.09051886
Pt       5.24032776       4.47206376       6.63762735        1       0.00000000      -0.02323476       0.06700096       0.10324986
Ni       7.87556424       4.49365093       6.51241451        1       1.00000000       0.13118883       0.05795422      -0.42550403
Ni      10.38434449       4.53450149       6.59448037        1       1.00000000      -0.15901897       0.19669839      -0.25732828
Pt       3.83742878       6.75125234       6.64582444        1       0.00000000      -0.12798210       0.07613646       0.14961137
Pt       6.64153501       6.70523848       6.55570826        1       0.00000000       0.14929861       0.03817687      -0.05632581
Ni       9.15490108       6.66513426       6.60111700        1       1.00000000       0.13447292      -0.24695316      -0.24107503
Ni      11.68979785       6.69769010       6.61271918        1       1.00000000      -0.18976027      -0.13140933      -0.24473228
