64
Lattice="10.693317637297064 -0.003145964554984681 0.017050388568046724 5.34393433342451 9.242603210694963 -4.8948023315510634e-05 0.013921583969299505 -0.00808377889117044 9.25148008160977" Properties=species:S:1:pos:R:3:tags:I:1:initial_magmoms:R:1:forces:R:3 unique_id=84bfc2f205704c40a5baec025533aa47 stress="0.004582233280720958 1.816677741909931e-05 -9.33402127170042e-06 1.816677741909931e-05 0.004593156491398985 1.811700368379757e-05 -9.33402127170042e-06 1.811700368379757e-05 0.0034658055122366027" energy=-422.7403550113785 pbc="T T T"
Pt      -0.03421907      -0.00070297       0.15028390        4       0.00000000      -0.01788690      -0.05141028       0.04251264
Pt       2.68332860      -0.02484535       0.11690016        4       0.00000000       0.00877664       0.00305523       0.01519411
Pt       5.36363530      -0.02354470       0.09173999        4       0.00000000      -0.00104045       0.01537550      -0.08041122
Ni       8.02152531      -0.00363397       0.13188707        4       1.00000000       0.00272093      -0.00931308       0.19093713
Pt       1.33615753       2.32545763       0.14640138        4       0.00000000      -0.02992218      -0.04897913       0.00548806
Pt       4.01426619       2.37899188       0.09881295        4       0.00000000       0.00460128       0.05514515      -0.04365495
Pt       6.68311008       2.30940517       0.02788626        4       0.00000000      -0.00675375      -0.00724134      -0.12485859
Pt       9.34973697       2.27235557       0.15949922        4       0.00000000      -0.00496294      -0.05171729       0.01213197
Ni       2.68611308       4.61841184       0.12780786        4       1.00000000       0.00458544      -0.01796837       0.21798499
Ni       5.33578451       4.61943865       0.11688795        4       1.00000000       0.01834292       0.00026979       0.20508330
Pt       8.00999557       4.63497741       0.10806770        4       0.00000000      -0.01328322      -0.01036044       0.00720198
Pt      10.70128003       4.63338896       0.13094079        4       0.00000000      -0.01452159      -0.02120434       0.00508162
Pt       4.00111542       6.88938067       0.10131942        4       0.00000000       0.01516528      -0.06433892      -0.01032133
Pt       6.68550410       6.90966440       0.10540822        4       0.00000000       0.00830425      -0.00242186       0.04690313
Ni       9.35997999       6.93195191       0.06918038        4       1.00000000       0.00939922       0.01950364       0.16275198
Pt      12.03277260       6.93006126       0.12022899        4       0.00000000       0.00644975       0.00830864       0.04185087
Ni       1.29346326       0.78779215       2.36627780        3       1.00000000      -0.12441389       0.04944091       0.12948357
Pt       3.99952691       0.76688965       2.40082936        3       0.00000000       0.04938531       0.01878798       0.00457612
Pt       6.71656501       0.76047733       2.37844179        3       0.00000000       0.01005166       0.00725887       0.00526079
Ni       9.40426805       0.78756534       2.36025840        3       1.00000000       0.12801934       0.06424923       0.13754579
Pt       2.61759773       3.03980752       2.34237846        3       0.00000000      -0.00738934      -0.06251502       0.03685689
Pt       5.36404587       3.05938352       2.35270244        3       0.00000000       0.05416053      -0.03872085       0.03944173
Pt       8.08472549       3.03240220       2.36807421        3       0.00000000       0.01948536      -0.02141922       0.01324393
Ni      10.69582898       3.01575994       2.35284435        3       1.00000000       0.00485069      -0.15899319       0.07411202
Pt       4.01743426       5.38720101       2.31984363        3       0.00000000       0.00994925       0.00216869       0.07220761
Pt       6.66080375       5.39611999       2.36446991        3       0.00000000       0.00881035       0.01643169       0.09710557
Pt       9.36546164       5.38703221       2.34787430        3       0.00000000      -0.01413196       0.04622614       0.03986493
Pt      12.03680366       5.35822806       2.33652026        3       0.00000000      -0.01209029       0.00132568       0.05449540
Pt       5.37157538       7.77224211       2.41299996        3       0.00000000       0.04830010       0.02255088       0.07195961
Pt       8.00858766       7.74356685       2.40340758        3       0.00000000       0.01003958       0.11178352       0.09043172
Pt      10.68356417       7.70858516       2.39154520        3       0.00000000       0.01605477       0.03168520       0.03640323
Pt      13.38637240       7.75661790       2.35737479        3       0.00000000       0.07661296       0.06576392       0.02061941
Ni       0.01884377       1.51383780       4.55107269        2       1.00000000       0.01391950      -0.04251911      -0.22203218
Pt       2.64815050       1.43938896       4.56540924        2       0.00000000      -0.10602713      -0.06569509      -0.04476998
Ni       5.35708346       1.49861156       4.62839391        2       1.00000000      -0.03007351      -0.05816862      -0.10502348
Pt       7.99440820       1.48396052       4.60779476        2       0.00000000      -0.02738279      -0.02044336      -0.00196286
Pt       1.32098003       3.80880938       4.55857073        2       0.00000000      -0.00677357      -0.00488052      -0.03444514
Pt       4.03001152       3.84005552       4.58294327        2       0.00000000      -0.05194983      -0.01434213      -0.03526255
Pt       6.66994818       3.82585217       4.62908454        2       0.00000000      -0.01076636      -0.01854139      -0.01180280
Pt       9.38615629       3.80267723       4.57244239        2       0.00000000       0.01995069      -0.04711962      -0.05461752
Pt       2.68683875       6.18855509       4.57832259        2       0.00000000      -0.02341579       0.02668751      -0.06085125
Ni       5.36425381       6.16859413       4.60707743        2       1.00000000       0.00949502       0.00635982      -0.06626664
Pt       8.00585434       6.23687465       4.61191409        2       0.00000000      -0.00846965       0.03078923      -0.03114391
Pt      10.66678070       6.24591002       4.63256180        2       0.00000000      -0.03644864       0.06698390      -0.00821138
Pt       4.06263788       8.50780927       4.56345580        2       0.00000000      -0.00380796       0.06321352       0.01036276
Ni       6.68023637       8.48189379       4.59771138        2       1.00000000      -0.05827078       0.03171097      -0.05580901
Ni       9.37435117       8.48335983       4.61981394        2       1.00000000       0.03237832       0.06398443      -0.09198843
Ni      12.01461769       8.49436951       4.61947296        2       1.00000000       0.00830038       0.04531253      -0.08874585
Pt       0.02102050       0.00311175       6.79160919        1       0.00000000       0.02297697       0.04499335      -0.01404402
Pt       2.71620739      -0.06306345       6.77861586        1       0.00000000       0.02183432      -0.07187746      -0.05351631
Pt       5.35349190      -0.01014597       6.74523912        1       0.00000000       0.01789349      -0.01149104      -0.12851835
Pt       7.99651483       0.01165261       6.89065086        1       0.00000000      -0.00408119       0.00201348       0.07187844
Pt       1.34512588       2.29640527       6.81310421        1       0.00000000       0.01046989      -0.00904445      -0.04354233
Pt       4.06837042       2.28940238       6.79748622        1       0.00000000       0.00824756      -0.02933676      -0.10740800
Ni       6.68645221       2.29816809       6.81003749        1       1.00000000      -0.02278516      -0.01851702      -0.25484104
Pt       9.33311776       2.29846662       6.83067265        1       0.00000000      -0.00130396       0.00471205      -0.03241190
Pt       2.68339902       4.61264833       6.91832683        1       0.00000000       0.00016941      -0.00871092       0.07795353
Pt       5.37280536       4.59512029       6.90360371        1       0.00000000      -0.01005447      -0.02286977       0.07307933
Pt       8.02859339       4.62239809       6.82690530        1       0.00000000       0.01657821       0.02576663      -0.04681474
Pt      10.67756328       4.64991315       6.84020362        1       0.00000000      -0.00051515       0.02359159      -0.04583482
Pt       4.02904069       6.92415849       6.80887525        1       0.00000000      -0.00078362      -0.00117159      -0.06727754
Pt       6.70798179       6.92688134       6.79771403        1       0.00000000      -0.06140452      -0.00984756      -0.01225225
Ni       9.36209095       6.93578844       6.87356205        1       1.00000000      -0.01103150       0.02285306      -0.13312595
Pt      12.00426419       6.95148193       6.83161817        1       0.00000000       0.02546272       0.02287697       0.00176214
