64
Lattice="10.32934422740765 -0.007342438126685059 -0.016700322740788434 5.1583133757604 8.879540601498825 -0.03638935468439017 -0.013635756418243303 -0.02643560497510289 8.796995128819729" Properties=species:S:1:pos:R:3:tags:I:1:initial_magmoms:R:1:forces:R:3 unique_id=a54cb437844346a98ee67508d609eb59 stress="0.00025936694252972486 3.2185689070971944e-06 -2.4739367764390364e-06 3.2185689070971944e-06 0.0002631133897196547 7.2938363979386855e-06 -2.4739367764390364e-06 7.2938363979386855e-06 0.0002469007474035084" energy=-398.8149812598565 pbc="T T T"
Ni      -0.00118836       0.01926636       0.18284266        4       1.00000000       0.01395663       0.10173719       0.23353873
Ni       2.57440515       0.00332793       0.20378909        4       1.00000000      -0.02969638       0.03629313       0.35571507
Ni       5.16098365      -0.02010516       0.14733850        4       1.00000000      -0.05333234       0.07105564       0.19132444
Ni       7.75181778      -0.05276190       0.16012650        4       1.00000000      -0.04533758      -0.15515354       0.31334038
Ni       1.25830554       2.22104883       0.18029933        4       1.00000000      -0.14744023      -0.00158421       0.30085003
Pt       3.80598389       2.21915019       0.10042174        4       0.00000000      -0.11016021       0.02982124      -0.14977880
Pt       6.47040522       2.15402360       0.17837340        4       0.00000000       0.03563020      -0.14570656       0.24051291
Ni       9.07532304       2.20919398       0.12809390        4       1.00000000       0.10108798       0.04607065       0.12565761
Ni       2.55920350       4.45503319       0.03931720        4       1.00000000      -0.09061737       0.00581859      -0.04773712
Ni       5.14677779       4.44368975       0.13472297        4       1.00000000       0.10050637      -0.10002007       0.24469040
Pt       7.78310499       4.43007033       0.02075146        4       0.00000000       0.12397213       0.00850271      -0.16771698
Ni      10.36150173       4.42212749       0.03662767        4       1.00000000       0.07139396      -0.05999059       0.05874343
Ni       3.83311858       6.67319839       0.05634056        4       1.00000000      -0.11783125       0.07068266       0.08924548
Pt       6.41612013       6.71195095       0.07865831        4       0.00000000      -0.07261999       0.02724672      -0.14921429
Ni       9.05351522       6.67542482       0.11288659        4       1.00000000      -0.03258646       0.01202549       0.18705341
Ni      11.63525450       6.65458729       0.02324925        4       1.00000000       0.07413393      -0.03559838      -0.03267152
Ni       1.29701940       0.75105516       2.16646979        3       1.00000000      -0.00550972       0.08336419      -0.00093990
Ni       3.86349281       0.75488597       2.19639598        3       1.00000000       0.06340337       0.04450080       0.02622857
Ni       6.45125098       0.73685932       2.25158579        3       1.00000000       0.04046937       0.06640810       0.27120962
Pt       9.03909102       0.76454233       2.16838932        3       0.00000000      -0.00062941       0.10225202       0.10225159
Ni       2.56029895       2.92980757       2.19685693        3       1.00000000      -0.04307245       0.05236331      -0.03222632
Ni       5.14772884       2.92143037       2.22604244        3       1.00000000      -0.13330376      -0.15095530       0.02776874
Ni       7.74970560       2.93217989       2.22108042        3       1.00000000       0.11358453      -0.02742485      -0.05666293
Ni      10.34392239       2.91911915       2.18995470        3       1.00000000       0.06631439      -0.00513400       0.13906633
Pt       3.88607528       5.15773033       2.14358590        3       0.00000000      -0.07017752      -0.04708275      -0.03288014
Ni       6.44887425       5.17170227       2.18062973        3       1.00000000       0.05114492       0.05810471      -0.10567764
Pt       9.00026916       5.13995569       2.25791363        3       0.00000000      -0.06473322      -0.02521541      -0.01198436
Pt      11.62623612       5.11890460       2.18251758        3       0.00000000       0.01405871      -0.06295612      -0.00000851
Ni       5.15584823       7.40484318       2.15471104        3       1.00000000      -0.09251495       0.01650419      -0.06287603
Ni       7.72149229       7.41376541       2.15425454        3       1.00000000       0.03999021      -0.00692751      -0.02310202
Pt      10.36825366       7.44417884       2.11821637        3       0.00000000       0.12741139      -0.04102378       0.01036637
Ni      12.90412068       7.39553866       2.13684354        3       1.00000000       0.01799459      -0.06892474      -0.06060910
Ni      -0.01879447       1.52369842       4.33940880        2       1.00000000       0.03289627       0.13983550      -0.05715862
Pt       2.59101478       1.56407346       4.27257647        2       0.00000000      -0.04565681       0.07993000       0.00606306
Ni       5.17449776       1.46705290       4.30651053        2       1.00000000       0.06149320      -0.01719959      -0.18194570
Ni       7.73384236       1.46135290       4.31236345        2       1.00000000      -0.01881140      -0.01310075      -0.05815717
Ni       1.26174075       3.73409541       4.35944407        2       1.00000000      -0.02689825       0.04555427      -0.07170698
Ni       3.83857886       3.69397772       4.35309470        2       1.00000000      -0.02327942       0.09732067      -0.13086138
Pt       6.49405382       3.65741604       4.23557951        2       0.00000000      -0.01454040      -0.08095597       0.00534992
Ni       9.07126245       3.69064755       4.34143930        2       1.00000000       0.15938016      -0.04801377      -0.07018662
Ni       2.51882497       5.87850766       4.39664643        2       1.00000000      -0.08865014      -0.05037229      -0.03677074
Pt       5.12968425       5.88624001       4.32895560        2       0.00000000       0.02004457      -0.01278370      -0.01832782
Ni       7.75817562       5.87087895       4.34451969        2       1.00000000      -0.00809515       0.02208427      -0.07631035
Ni      10.35869145       5.85641158       4.36625090        2       1.00000000       0.10941778      -0.02115786      -0.01133513
Pt       3.77731677       8.12062204       4.27359218        2       0.00000000      -0.08269802      -0.02718008       0.07512136
Pt       6.44960930       8.13592854       4.24250807        2       0.00000000      -0.07533017       0.13752547      -0.05132741
Pt       9.07440992       8.09842419       4.25791407        2       0.00000000       0.00352984      -0.03247098       0.02358049
Ni      11.60783169       8.10901326       4.30860341        2       1.00000000      -0.02655490      -0.04683131      -0.07642561
Pt      -0.01414137      -0.07628860       6.58307786        1       0.00000000       0.02239787      -0.04358106       0.10311727
Pt       2.58072793      -0.02262094       6.59535452        1       0.00000000      -0.01648308       0.00832060       0.21915989
Pt       5.15994571      -0.05149860       6.53954592        1       0.00000000       0.01621988      -0.11959735       0.04208597
Pt       7.72167264      -0.11070765       6.55360250        1       0.00000000       0.02098987      -0.08901246       0.14097347
Pt       1.31816170       2.31952520       6.53869434        1       0.00000000       0.13260399       0.08987701       0.18947679
Ni       3.85921922       2.23495526       6.43383147        1       1.00000000       0.03288965       0.06192259      -0.30219009
Pt       6.42560445       2.22027383       6.44692986        1       0.00000000      -0.03265125       0.03150246      -0.21583921
Pt       9.03824532       2.28002085       6.47306123        1       0.00000000       0.04513714       0.04571606      -0.00707869
Ni       2.55027263       4.47559221       6.48093758        1       1.00000000      -0.04334996       0.19366144      -0.27027475
Pt       5.08380055       4.45550685       6.54712297        1       0.00000000      -0.09354951       0.06296599       0.09452518
Ni       7.72925611       4.43470494       6.39733418        1       1.00000000      -0.14555675      -0.02314390      -0.42611695
Ni      10.35223785       4.44718734       6.46242916        1       1.00000000       0.17373758       0.03611349      -0.24118496
Ni       3.81913637       6.60365175       6.50320571        1       1.00000000      -0.13828886      -0.04079402      -0.15656299
Ni       6.44458250       6.60571417       6.42649893        1       1.00000000       0.06890565      -0.05364515      -0.27699879
Pt       9.04255808       6.51605524       6.49921385        1       0.00000000       0.00977908      -0.07289072       0.09655052
Ni      11.62944582       6.56032653       6.45863926        1       1.00000000       0.02548167      -0.15865238      -0.24272142
