64
Lattice="10.469799806800163 -0.010584743435372395 0.0594482212762023 5.2257332466925055 9.127398310542118 0.014839056270795235 0.04853926941425431 -0.014033763841936666 9.074377632994821" Properties=species:S:1:pos:R:3:tags:I:1:initial_magmoms:R:1:forces:R:3 unique_id=755caa8960e34917b0618c0041a59aa6 stress="-0.0009329552132646066 -1.191947742502749e-06 -9.141524758008534e-06 -1.191947742502749e-06 -0.0009449129584756244 -1.1465210082644965e-05 -9.141524758008534e-06 -1.1465210082644965e-05 -0.0007290623288248033" energy=-410.2792398654063 pbc="T T T"
Ni       0.01907562      -0.00679554       0.14106608        4       1.00000000      -0.01343807      -0.05449747       0.41301178
Pt       2.53995682       0.01014522       0.03561843        4       0.00000000      -0.15027894      -0.01784922      -0.21641770
Pt       5.21342328       0.02280938       0.08660293        4       0.00000000      -0.15103649       0.07158454      -0.09439632
Pt       7.86886443      -0.03304877       0.18865963        4       0.00000000      -0.01283662       0.02732859       0.25695167
Ni       1.31911914       2.28053988       0.05481439        4       1.00000000       0.00656965      -0.00902684       0.14929122
Pt       3.84768390       2.32228558       0.10594999        4       0.00000000      -0.12613612       0.02595682       0.01006994
Pt       6.52928180       2.28149979       0.14420220        4       0.00000000      -0.08001568      -0.00460409       0.07084774
Pt       9.21711501       2.24486031       0.17953552        4       0.00000000       0.08129629      -0.08855737       0.28449590
Ni       2.62277618       4.54313738       0.06844631        4       1.00000000       0.11112346      -0.01964221       0.15324758
Pt       5.19534494       4.58094358       0.13995264        4       0.00000000      -0.06827407      -0.05301159       0.07384067
Pt       7.80844095       4.56759186       0.18365674        4       0.00000000       0.02151089       0.01782465       0.18683805
Pt      10.54880811       4.51173713       0.14924193        4       0.00000000       0.11402612      -0.07833022       0.15310404
Pt       3.97768294       6.84530722       0.20914393        4       0.00000000       0.10143023       0.06135154       0.25194496
Ni       6.51985217       6.85530261       0.16486331        4       1.00000000      -0.06490494       0.00041766       0.35341669
Pt       9.12646069       6.84278074       0.14920219        4       0.00000000       0.00036172      -0.02505220       0.18227195
Pt      11.81673238       6.80452486       0.09515644        4       0.00000000       0.08076755      -0.06145595      -0.11782304
Pt       1.35525495       0.76633306       2.28723207        3       0.00000000       0.22752033       0.02180888       0.06721160
Ni       3.96148280       0.80308364       2.32124726        3       1.00000000       0.10298552       0.24240591       0.11511339
Ni       6.52835428       0.79768261       2.33940933        3       1.00000000      -0.18160780       0.24779500       0.10467757
Pt       9.14388731       0.69703343       2.35911647        3       0.00000000      -0.02563662       0.00607741       0.00772901
Ni       2.67475598       3.04436235       2.30523997        3       1.00000000       0.31323905       0.02924871       0.18482625
Ni       5.23834124       3.04422405       2.35487311        3       1.00000000      -0.06404227       0.03555707       0.32578420
Ni       7.79699306       3.02274669       2.34051722        3       1.00000000      -0.26411119       0.00565963       0.08398213
Pt      10.53475367       3.01565429       2.37190586        3       0.00000000       0.15884703       0.07844027       0.03698309
Ni       3.97990671       5.29988923       2.32385627        3       1.00000000       0.32499610      -0.17683699       0.25423436
Ni       6.47942804       5.29837777       2.33795285        3       1.00000000      -0.33779962      -0.16528678       0.18098448
Pt       9.12160051       5.29028066       2.35504491        3       0.00000000       0.03983392       0.00499001      -0.16604556
Pt      11.91900825       5.28317396       2.35746534        3       0.00000000       0.24050195      -0.05880354      -0.11832358
Ni       5.23243417       7.56079973       2.30179922        3       1.00000000      -0.01170463      -0.18567389       0.18360253
Pt       7.76296295       7.59441821       2.33487745        3       0.00000000      -0.07343607       0.00128846      -0.05024911
Pt      10.51645168       7.67156356       2.35383865        3       0.00000000      -0.01024103       0.07858610      -0.14165483
Ni      13.11821118       7.58185078       2.36147046        3       1.00000000       0.08667983      -0.09901031       0.18228947
Pt       0.08568476       1.51553021       4.52240396        2       0.00000000       0.01336386      -0.03530528       0.19962993
Pt       2.70909634       1.60866239       4.57059677        2       0.00000000       0.14892927       0.32979289      -0.10141945
Ni       5.24532275       1.56344714       4.54780986        2       1.00000000      -0.07776503       0.28661785      -0.14684456
Pt       7.75980204       1.57103611       4.51241767        2       0.00000000      -0.17339312       0.08845780      -0.01832210
Ni       1.38126316       3.78220468       4.52885783        2       1.00000000       0.18969634      -0.03194977      -0.07357552
Ni       3.98720196       3.78682539       4.54332168        2       1.00000000       0.30098232       0.00499554      -0.12484784
Ni       6.48161240       3.78318785       4.52638337        2       1.00000000      -0.41847662       0.01672550      -0.21810416
Pt       9.14991536       3.78370062       4.52220650        2       0.00000000      -0.15640761       0.00101847       0.12016081
Pt       2.70618119       5.97054979       4.50373670        2       0.00000000       0.25092402      -0.15253164       0.04141768
Ni       5.25261081       6.02768168       4.50795627        2       1.00000000      -0.08229677      -0.28599236      -0.19120267
Pt       7.74199799       6.06845580       4.50177423        2       0.00000000      -0.22168509      -0.05867715       0.08111555
Pt      10.51880615       6.06211815       4.55741589        2       0.00000000      -0.04625034      -0.00550363      -0.03794603
Pt       4.00883707       8.29799517       4.46052073        2       0.00000000       0.09266692      -0.22483146       0.13879742
Ni       6.55905731       8.35227478       4.54512893        2       1.00000000      -0.00651958       0.05699643      -0.02267696
Pt       9.14505621       8.44580438       4.56790228        2       0.00000000      -0.06255780       0.12414414      -0.13340461
Pt      11.78471102       8.38019879       4.55634998        2       0.00000000       0.16124394       0.02693237      -0.04377368
Pt       0.10873240       0.01959470       6.76921284        1       0.00000000       0.05689284       0.05910561       0.15394625
Ni       2.66836622       0.02853534       6.68940289        1       1.00000000       0.08331913       0.20644571      -0.37014768
Ni       5.24825902       0.02299705       6.70772788        1       1.00000000      -0.13635319       0.26814208      -0.33440714
Pt       7.81221188      -0.02049184       6.74908583        1       0.00000000      -0.07924844      -0.01141212      -0.17401420
Ni       1.39480119       2.28552488       6.74941052        1       1.00000000       0.25396903       0.05784420      -0.15441530
Ni       3.95883529       2.28736345       6.68540708        1       1.00000000       0.11353231       0.12997569      -0.17975245
Ni       6.51324528       2.27016260       6.70765809        1       1.00000000      -0.35092576       0.01256243      -0.24284371
Pt       9.18927461       2.26291620       6.75587497        1       0.00000000      -0.11011086       0.01056193      -0.16551840
Ni       2.66454923       4.51435199       6.73735276        1       1.00000000       0.18228635      -0.28081668      -0.23553212
Ni       5.23312016       4.50892779       6.68350135        1       1.00000000      -0.17512197      -0.20542108      -0.31979589
Pt       7.79606375       4.51295852       6.71961290        1       0.00000000      -0.18198065      -0.06310934      -0.14162609
Pt      10.61315644       4.52785400       6.73190591        1       0.00000000       0.14136407      -0.03095189      -0.25808671
Pt       3.92322173       6.74752115       6.71741760        1       0.00000000      -0.10107416      -0.15311936       0.09100051
Pt       6.55387013       6.84359623       6.77005191        1       0.00000000      -0.02459730      -0.01847026       0.10343439
Pt       9.22416217       6.89489417       6.73743238        1       0.00000000       0.03294086       0.02398597      -0.22773955
Ni      11.80719758       6.82483411       6.73951744        1       1.00000000       0.00646354      -0.00489514      -0.37534585
