64
Lattice="10.352405254684028 -0.018494580405696612 0.06840320232504797 5.160185850878347 8.878041053302722 0.0338820136096103 0.0 0.0 21.60076445707342" Properties=species:S:1:pos:R:3:tags:I:1:initial_magmoms:R:1:forces:R:3 unique_id=8c937eb9c1a3412ebb480c093a5fce8c energy=-377.4243747267362 stress="0.006168663576333383 -5.7525445694700976e-05 0.00047861569185547075 -5.7525445694700976e-05 0.0058394523231331775 0.0001870638849560301 0.00047861569185547075 0.0001870638849560301 -0.0019049111615275522" pbc="T T T"
Ni       0.01422691       0.00370938       0.10564546        1       1.00000000       0.11760965       0.05357357      -0.04409033
Ni       2.59335009       0.00509941       0.14702511        1       1.00000000      -0.02752728       0.05945570       0.08845225
Ni       5.17611405      -0.02739117       0.11460371        1       1.00000000      -0.04626921       0.09907053      -0.34379789
Ni       7.76776484      -0.06825251       0.16455924        2       1.00000000      -0.05264917      -0.08060276      -0.12538632
Ni       1.30024773       2.22683976       0.11830833        1       1.00000000       0.01240723      -0.02602305       0.17322560
Pt       3.79902061       2.17825182       0.13926848        1       0.00000000       0.01319024       0.01547408      -0.27886646
Pt       6.46961445       2.13174753       0.07927233        1       0.00000000       0.06356623      -0.06110654      -0.07945111
Pt       9.15063579       2.20762533       0.11282313        1       0.00000000       0.03986014       0.07083812      -0.51647409
Ni       2.54544191       4.46435653       0.00363335        0       1.00000000      -0.01449778      -0.04351218       0.16958975
Pt       5.12231706       4.46734991       0.00000000        0       0.00000000       0.10501070      -0.04569029      -0.31922829
Pt       7.80784966       4.47342967       0.01188812        0       0.00000000      -0.07142305      -0.00123757      -0.26905747
Ni      10.40011277       4.45582924       0.06227127        1       1.00000000       0.07885946      -0.01323400       0.13460465
Ni       3.82349715       6.69957719       0.04114598        0       1.00000000      -0.03063792       0.11572944       0.32830114
Pt       6.46714592       6.75861156       0.16566626        2       0.00000000       0.01417742      -0.00565135      -0.48605855
Ni       9.08830588       6.68579540       0.05923376        1       1.00000000      -0.02791450       0.08525793       0.12887508
Ni      11.65815155       6.65046903       0.06612562        1       1.00000000       0.11424142       0.06981424       0.25233559
Ni       1.33839996       0.74616831       2.17495206        4       1.00000000       0.07460567       0.04818813       0.28202087
Ni       3.86070082       0.75957779       2.20731182        4       1.00000000      -0.10261551       0.16850989       0.28482794
Ni       6.47768153       0.75985355       2.21470628        4       1.00000000      -0.03035347       0.19494956       0.23782594
Pt       9.08581432       0.72472558       2.24096720        4       0.00000000       0.04116069       0.18235096       0.02392521
Ni       2.57266500       2.90752321       2.22455181        4       1.00000000      -0.03550594      -0.14792316       0.35017083
Ni       5.18463924       2.91744807       2.23526974        4       1.00000000      -0.04675686      -0.08128733       0.21781409
Ni       7.75152861       2.92780029       2.24073762        4       1.00000000      -0.02867181      -0.05512261       0.11815885
Ni      10.40107548       2.91497310       2.26187171        5       1.00000000       0.09063610      -0.12519662       0.31040906
Pt       3.89083805       5.17458939       2.20058046        4       0.00000000       0.04663010      -0.11858906      -0.11535163
Ni       6.47758627       5.16890613       2.21467775        4       1.00000000       0.00345871      -0.09798381       0.08468231
Pt       9.01625059       5.13909825       2.25693301        5       0.00000000      -0.12572589      -0.12947025      -0.01999700
Pt      11.66386020       5.10849830       2.19678716        4       0.00000000      -0.05021154      -0.09790159       0.04924907
Ni       5.19851882       7.42195618       2.19870649        4       1.00000000       0.08194921       0.04944770       0.20124171
Ni       7.73269454       7.43563320       2.22688266        4       1.00000000      -0.12872923       0.11197390       0.24687103
Pt      10.35078029       7.44029199       2.13195473        3       0.00000000       0.00503067      -0.03197061      -0.09996934
Ni      12.95226749       7.38517069       2.19921836        4       1.00000000       0.05619294      -0.02294685       0.00246057
Ni       0.06759926       1.52012000       4.27811186        6       1.00000000       0.17859575       0.05250683      -0.26053567
Ni       2.58745758       1.51294920       4.27644243        6       1.00000000      -0.08120107       0.04834187      -0.30032548
Ni       5.19252870       1.49639020       4.30408397        6       1.00000000      -0.13100748      -0.02571299      -0.38028350
Ni       7.78852477       1.49092458       4.34341892        6       1.00000000       0.03179706      -0.07818114      -0.28050478
Ni       1.33884748       3.67293218       4.31004842        6       1.00000000       0.08395887      -0.14769751      -0.23092423
Ni       3.85923928       3.68539888       4.31473014        6       1.00000000      -0.16129209      -0.14782311      -0.26057631
Pt       6.51786092       3.63895360       4.33890450        6       0.00000000      -0.02812504      -0.05000384      -0.22584826
Ni       9.08623733       3.66536694       4.34787238        6       1.00000000       0.07995564      -0.21041664      -0.30150007
Ni       2.60103586       5.87241419       4.38522401        7       1.00000000      -0.02028263      -0.13644780      -0.01701619
Pt       5.19199277       5.88673971       4.33023985        6       0.00000000       0.09054159      -0.03950421       0.01259298
Ni       7.78393818       5.89391165       4.36029115        7       1.00000000      -0.07556424      -0.00989986      -0.21713686
Pt      10.37339539       5.82564068       4.48424651        8       0.00000000       0.01560874      -0.01153590       0.07945769
Pt       3.92875472       8.13884614       4.31117542        6       0.00000000       0.02315803       0.06485434       0.06334495
Ni       6.48738706       8.16664599       4.30616935        6       1.00000000      -0.04361929       0.16421366      -0.27163562
Pt       8.99466648       8.15839478       4.31118902        6       0.00000000      -0.12269398       0.10204998       0.04553946
Pt      11.67155472       8.14963980       4.33113513        6       0.00000000      -0.00452024       0.03625107      -0.06615221
Pt       0.03080110      -0.02710456       6.50949255       10       0.00000000       0.11296648       0.06550222       0.29509815
Pt       2.62660301      -0.02093943       6.53854547       10       0.00000000      -0.06474684       0.10998078       0.23740540
Pt       5.21752871      -0.05543357       6.56324344       11       0.00000000       0.01076089       0.12357276       0.28669579
Pt       7.78422075      -0.06334600       6.60076446       11       0.00000000      -0.07979330       0.08373990       0.30334981
Pt       1.32661840       2.32607533       6.46342403       10       0.00000000      -0.00435949       0.10119565      -0.05628207
Pt       3.96030304       2.30143984       6.40372331        9       0.00000000      -0.02863303      -0.01825314       0.27737443
Ni       6.50374420       2.23253385       6.44758729        9       1.00000000      -0.02182457      -0.08756617       0.09844712
Pt       9.04277381       2.28840382       6.42148166        9       0.00000000       0.03965693      -0.04335006       0.48269530
Ni       2.61440780       4.49913929       6.47250219       10       1.00000000       0.03960020       0.04859241      -0.39239610
Ni       5.19476438       4.42981854       6.42962086        9       1.00000000      -0.01472135      -0.00977990       0.16666984
Ni       7.80645704       4.43337027       6.42723766        9       1.00000000       0.06110177       0.03137559       0.06109585
Ni      10.38578915       4.46248213       6.56142657       11       1.00000000      -0.04634909      -0.05172276      -0.10936900
Ni       3.86894859       6.59054427       6.51028895       10       1.00000000      -0.02716340      -0.10085921      -0.23723511
Pt       6.52369732       6.55597842       6.47705662       10       0.00000000       0.06117753       0.04670359       0.50955937
Ni       9.10175908       6.58643441       6.55061897       11       1.00000000      -0.08815839      -0.05944010      -0.09155184
Ni      11.68481904       6.57412092       6.57204295       11       1.00000000       0.07607861       0.01012955      -0.20736594
