64
Lattice="10.166317700558825 0.01918450607256864 -0.020783508180851784 5.099773119897312 8.836459104575212 -0.003868703514662287 0.0 0.0 21.44825769871605" Properties=species:S:1:pos:R:3:tags:I:1:initial_magmoms:R:1:forces:R:3 unique_id=294908e745954d80896ab573270b6fa7 energy=-371.9590680459954 stress="0.004979007828563195 3.5672225614994847e-05 0.00012324966454191723 3.5672225614994847e-05 0.004907447936859556 1.9699117859073726e-05 0.00012324966454191723 1.9699117859073726e-05 -0.0015416557666124361" pbc="T T T"
Pt       0.06959990      -0.01131679       0.00000000        0       0.00000000       0.05750324      -0.04474046      -0.21759317
Ni       2.55555517       0.00565750       0.08771702        1       1.00000000       0.10247365       0.13176126      -0.28361603
Pt       5.10071091      -0.03780362       0.12901854        1       0.00000000      -0.06449259      -0.06197143      -0.57343769
Ni       7.60661435       0.01022606       0.08213900        1       1.00000000       0.02218052      -0.05802921      -0.16629825
Ni       1.27603341       2.25551463       0.04914882        0       1.00000000      -0.08099622       0.08745327       0.28039063
Pt       3.78671840       2.27576055       0.12477697        1       0.00000000       0.01510813      -0.03654746      -0.45308278
Ni       6.35233148       2.25626481       0.04247014        0       1.00000000      -0.03446713       0.03411662       0.27054415
Pt       8.87343513       2.32260872       0.08004758        1       0.00000000       0.06806422       0.17038175      -0.66956940
Ni       2.49599739       4.41607020       0.04439697        0       1.00000000      -0.08152253       0.01610357       0.36538310
Ni       5.13580109       4.42028776       0.03705540        0       1.00000000       0.02443818      -0.01617428       0.30443938
Ni       7.60477133       4.46724229       0.03518496        0       1.00000000       0.07937580       0.04664879       0.32603143
Ni      10.19490023       4.47133462       0.03876296        0       1.00000000      -0.03568578       0.05952127       0.39649258
Pt       3.80044279       6.55627714       0.03547252        0       0.00000000      -0.01705927       0.02782541       0.03264781
Ni       6.39224012       6.58196357       0.01030462        0       1.00000000      -0.06076701      -0.02777048       0.14963317
Ni       8.90931142       6.58380845       0.10943891        1       1.00000000       0.15827256      -0.12404956      -0.25638712
Ni      11.42347069       6.59857570       0.12222293        1       1.00000000      -0.05731401      -0.07697626      -0.06914624
Ni       1.30523611       0.78450351       2.13965569        2       1.00000000      -0.01141078       0.17474858       0.03617138
Ni       3.78068106       0.75288929       2.15715774        3       1.00000000      -0.16662082      -0.01861809       0.13875218
Ni       6.35040861       0.75282897       2.13995114        2       1.00000000       0.00912550       0.01751803       0.04126880
Pt       8.85053335       0.71510022       2.16975814        3       0.00000000       0.04504776      -0.07667715      -0.07909747
Ni       2.51134449       2.97738457       2.18144278        3       1.00000000      -0.07095306       0.10663236       0.22247168
Ni       5.09795671       2.99345251       2.11845968        2       1.00000000       0.01626157       0.11569298      -0.02747822
Ni       7.59517968       3.00398282       2.14001353        2       1.00000000       0.00276145       0.05837920       0.12782612
Ni      10.20812706       3.02188702       2.13005113        2       1.00000000       0.06245475       0.09596969       0.09818778
Ni       3.82285089       5.12084352       2.13482944        2       1.00000000       0.01307931      -0.14147445       0.01257934
Ni       6.33762932       5.14415616       2.07788938        2       1.00000000      -0.03145523       0.03612967      -0.02373399
Ni       8.93376261       5.13183942       2.10260375        2       1.00000000       0.07275333      -0.10913025       0.10768090
Ni      11.42659005       5.15464326       2.09696001        2       1.00000000      -0.03726835      -0.07499674       0.06691936
Ni       5.08559996       7.32077360       2.17834518        3       1.00000000      -0.08219373      -0.11241545       0.22816411
Pt       7.63159150       7.38488731       2.09583947        2       0.00000000      -0.07387496       0.03496401      -0.11703784
Ni      10.20920776       7.33133400       2.17467849        3       1.00000000       0.05236565      -0.10949678       0.36175210
Ni      12.68307791       7.35753081       2.11868849        2       1.00000000      -0.10923271      -0.06215387       0.07825493
Pt       0.06443592       1.48480737       4.24700870        5       0.00000000       0.06042859       0.08328905       0.07155668
Ni       2.53113586       1.49431708       4.21396660        5       1.00000000       0.12330294       0.00501925      -0.33386759
Pt       5.06312249       1.46078143       4.13572183        4       0.00000000       0.01798786      -0.10294533       0.10234291
Ni       7.61369856       1.47576584       4.23370355        5       1.00000000      -0.03589113      -0.03341911      -0.20838233
Ni       1.27355533       3.69064324       4.27238000        6       1.00000000       0.03548818       0.07192929      -0.12030273
Ni       3.78337785       3.71217711       4.21798363        5       1.00000000      -0.01720289      -0.02171326      -0.28529615
Pt       6.34216778       3.69652806       4.25591216        6       0.00000000      -0.03330112      -0.06308832      -0.00521107
Ni       8.93845601       3.73194596       4.21098756        5       1.00000000       0.15783905       0.07668990      -0.28007018
Pt       2.56670750       5.86730533       4.19336227        5       0.00000000      -0.08141453       0.00352130      -0.01188175
Ni       5.07624610       5.92299921       4.26695665        6       1.00000000       0.02915469      -0.00738066      -0.25351054
Pt       7.62339603       5.91230999       4.23008915        5       0.00000000       0.09812726       0.02568592       0.08083879
Ni      10.17896286       5.88364617       4.21162315        5       1.00000000       0.04538892      -0.00652534      -0.24644292
Ni       3.84312401       8.07017897       4.26351104        6       1.00000000       0.01503348      -0.07472891      -0.18147133
Ni       6.32926379       8.08889433       4.24540647        5       1.00000000      -0.01719971      -0.06014431      -0.22828829
Ni       8.90099033       8.10573626       4.22353263        5       1.00000000       0.04397093      -0.02303636      -0.20394379
Ni      11.45550019       8.09108862       4.18739735        5       1.00000000       0.01780718      -0.09285860      -0.27947697
Ni      -0.01236298      -0.03573700       6.30384189        7       1.00000000      -0.06104267      -0.09431289       0.19259337
Pt       2.42846504       0.01512514       6.37889648        8       0.00000000       0.07318554       0.01095080       0.07633372
Pt       5.07713132       0.02446730       6.33940118        7       0.00000000      -0.05314559      -0.20179167       0.71930782
Pt       7.68601685       0.00741939       6.36506879        8       0.00000000       0.03353910      -0.05628763       0.18006934
Ni       1.25610556       2.26280259       6.39771420        8       1.00000000       0.02829971       0.11318801      -0.09954372
Pt       3.78371354       2.32945942       6.33392725        7       0.00000000      -0.10626008       0.03743072       0.50200009
Ni       6.35256763       2.26806165       6.40068655        8       1.00000000       0.01771596       0.02365008      -0.05798961
Pt       8.89435453       2.31491080       6.32098281        7       0.00000000      -0.14777495      -0.00973449       0.71575960
Ni       2.54194266       4.41634448       6.39339713        8       1.00000000       0.08852904      -0.00383202      -0.23535185
Ni       5.09321224       4.47810019       6.39762552        8       1.00000000      -0.11098737       0.09175305      -0.26581725
Ni       7.57309208       4.43027065       6.41206377        8       1.00000000      -0.10987075      -0.01170842      -0.09122782
Ni      10.19317027       4.40573244       6.37161745        8       1.00000000       0.07489270      -0.00830522      -0.25486812
Ni       3.88155470       6.59667251       6.31392596        7       1.00000000       0.04318976      -0.04286363       0.00689741
Ni       6.29310494       6.60620438       6.38561380        8       1.00000000      -0.07057532       0.03292668      -0.22970086
Pt       8.85942853       6.54797580       6.44825770        8       0.00000000       0.04163233       0.11027904       0.34858816
Pt      11.48465187       6.55143959       6.42123483        8       0.00000000       0.01320144       0.16573852       0.16724427
