64
Lattice="10.31537712044891 -0.004854622750088633 0.023817537660300068 5.15348433359709 8.833554623002643 -0.04607354759861911 0.0 0.0 21.563382357129562" Properties=species:S:1:pos:R:3:tags:I:1:initial_magmoms:R:1:forces:R:3 unique_id=a7e8aca57cf4460b80ab755a5a6bc045 energy=-375.83142643553373 stress="0.006310038807902656 1.951559323251127e-05 0.0002783700850638749 1.951559323251127e-05 0.004991657842366567 -0.0003467552765079607 0.0002783700850638749 -0.0003467552765079607 -0.0012925890139613982" pbc="T T T"
Ni       0.00620562       0.01584916       0.05215516        1       1.00000000      -0.09615606       0.02346662       0.13430544
Ni       2.57059052       0.01944545       0.06130259        1       1.00000000       0.07566692       0.06116755       0.12625713
Ni       5.18642477       0.02948345       0.09929179        1       1.00000000       0.06851731       0.07253954       0.41588886
Ni       7.71678361       0.02456768       0.09895623        1       1.00000000      -0.05021311       0.03908539       0.43791655
Ni       1.28779010       2.22211623       0.13986651        1       1.00000000       0.01169726       0.14837070      -0.22556430
Pt       3.88165904       2.19658976       0.16227220        2       0.00000000       0.01311766       0.02280833      -0.45507488
Ni       6.44934314       2.19471684       0.09176238        1       1.00000000       0.00856687      -0.01994384       0.44098823
Pt       9.01702778       2.18421147       0.17465330        2       0.00000000      -0.01458910       0.02242652      -0.34111914
Ni       2.55563705       4.38480784       0.05467847        1       1.00000000      -0.01666857      -0.06398162       0.28417033
Ni       5.18242052       4.38014744       0.12780370        1       1.00000000       0.07579420      -0.07009045      -0.04704713
Ni       7.70408971       4.37483545       0.14101368        1       1.00000000      -0.12358980      -0.09221842      -0.25403056
Ni      10.34566898       4.37497970       0.15615861        2       1.00000000       0.09432286      -0.05659615      -0.30671714
Pt       3.86390130       6.65213056       0.00000000        0       0.00000000      -0.00210620       0.07090533       0.02309128
Pt       6.44460952       6.62237181       0.04889693        0       0.00000000      -0.00746778      -0.06345297       0.02206223
Pt       9.02593275       6.67802289       0.09377853        1       0.00000000       0.04183004       0.12620002      -0.67667183
Pt      11.60793374       6.62867511       0.15074106        2       0.00000000       0.01055711       0.04122830      -0.41709203
Pt       1.26553994       0.71420855       2.13199909        3       0.00000000      -0.05603201      -0.10591123      -0.09752167
Ni       3.92777125       0.68978576       2.20144082        4       1.00000000       0.18751818      -0.15667114       0.05373901
Ni       6.45457293       0.71605490       2.20905774        4       1.00000000       0.06385757      -0.01885938       0.08249281
Ni       8.98901029       0.68824072       2.24751641        4       1.00000000      -0.15353173      -0.11932368       0.25333229
Ni       2.58310592       2.94265050       2.16454831        4       1.00000000       0.02484195       0.00753074       0.10422338
Ni       5.18925801       2.89293645       2.18680821        4       1.00000000       0.04339555      -0.17596415       0.10653304
Ni       7.68188941       2.87890539       2.17783468        4       1.00000000      -0.20152426      -0.23601686       0.11272970
Ni      10.34001376       2.91811367       2.18429167        4       1.00000000       0.02631959      -0.05471182       0.19508598
Pt       3.87159916       5.12504852       2.21912600        4       0.00000000       0.00217493       0.03291277       0.00607089
Ni       6.44027322       5.13372284       2.17390877        4       1.00000000      -0.07565450       0.09334291       0.18043555
Pt       8.99546004       5.11312257       2.16473799        4       0.00000000      -0.07496823       0.01164205      -0.03041300
Ni      11.62844420       5.12147798       2.17270627        4       1.00000000       0.08121544       0.00954954       0.07614594
Ni       5.13419419       7.35429575       2.18245529        4       1.00000000      -0.17510202      -0.06650258       0.20476562
Ni       7.73824645       7.36093754       2.20378528        4       1.00000000       0.01133422      -0.03739596       0.25236834
Ni      10.33527743       7.42742563       2.20113732        4       1.00000000       0.08456900       0.28266797       0.16389016
Ni      12.89372000       7.39915375       2.23344230        4       1.00000000       0.02271382       0.14199400       0.27758543
Ni      -0.02151231       1.38623643       4.31175991        6       1.00000000      -0.05192773      -0.10874495      -0.24371649
Pt       2.66455868       1.40132552       4.26585709        6       0.00000000       0.07680496       0.02597917      -0.06998932
Ni       5.21747377       1.38455056       4.31645426        6       1.00000000       0.13744065      -0.18150045      -0.29883566
Ni       7.71121177       1.35886606       4.31873094        6       1.00000000      -0.06010844      -0.11492224      -0.28472454
Pt       1.36573405       3.67455960       4.25202276        6       0.00000000       0.06696622       0.04050328      -0.01462465
Ni       3.88096250       3.67877380       4.31475017        6       1.00000000      -0.01621382       0.00219985      -0.17755259
Pt       6.38629708       3.61664787       4.24972028        5       0.00000000      -0.04813055      -0.09602891      -0.00473439
Pt       9.01785751       3.58305887       4.27594227        6       0.00000000       0.04968737      -0.06538889      -0.04277764
Ni       2.65107698       5.90747458       4.30495060        6       1.00000000       0.08906030       0.14756060      -0.12149306
Ni       5.12820951       5.87491780       4.32143201        6       1.00000000      -0.03586974      -0.03038913      -0.20280198
Ni       7.70760020       5.86980101       4.30598830        6       1.00000000      -0.05388548      -0.12932201      -0.23644568
Pt      10.35911589       5.96132750       4.23935133        5       0.00000000       0.09207321       0.04501234      -0.06103428
Ni       3.83371996       8.07541545       4.30009458        6       1.00000000      -0.15069270       0.06035893      -0.24676285
Pt       6.40494130       8.01124809       4.32319225        6       0.00000000      -0.01142534       0.02909463      -0.06601095
Ni       9.06251908       8.10581059       4.26921787        6       1.00000000       0.15544431       0.01451629      -0.31181625
Ni      11.64405649       8.13600341       4.28473739        6       1.00000000       0.08908943       0.09297575      -0.29678157
Ni      -0.00257627      -0.10472773       6.49268102        8       1.00000000      -0.14510995      -0.07988959      -0.23125254
Ni       2.56922017      -0.04836052       6.50842736        8       1.00000000      -0.03564961       0.03550608      -0.13895594
Ni       5.21221717      -0.01159876       6.48313394        8       1.00000000       0.15916176      -0.00689913      -0.37367251
Ni       7.74467677      -0.04391914       6.48689875        8       1.00000000       0.03861510      -0.04111022      -0.37034142
Pt       1.31301199       2.09269391       6.53946553        8       0.00000000      -0.15839420      -0.09368258       0.14627603
Pt       3.94581152       2.12387218       6.44686644        7       0.00000000       0.04025863       0.07869316       0.40280064
Ni       6.45341238       2.11115109       6.49323859        8       1.00000000      -0.00295463      -0.03670862      -0.30453827
Pt       8.98287379       2.04122268       6.45286201        8       0.00000000       0.12906606      -0.03100877       0.50178154
Ni       2.60912622       4.39679514       6.47008958        8       1.00000000      -0.02026352      -0.00747321      -0.13446078
Pt       5.10062368       4.45829419       6.49734630        8       0.00000000      -0.06046351       0.17815058       0.10314571
Pt       7.69646663       4.38405899       6.53419077        8       0.00000000      -0.03709033       0.17959038       0.30194365
Pt      10.36131682       4.39333057       6.56338236        9       0.00000000      -0.12765113       0.10581212       0.45028980
Ni       3.89811068       6.63929815       6.35295362        7       1.00000000       0.01941969       0.20021002       0.00465956
Ni       6.41611718       6.62627289       6.39820694        7       1.00000000      -0.01555069      -0.11696185       0.17278713
Pt       8.98679127       6.70468751       6.39655296        7       0.00000000      -0.02782585      -0.02324354       0.63126506
Pt      11.71792197       6.66290881       6.41778041        7       0.00000000       0.01571243       0.05691288       0.41554777
