3
Lattice="15.0 0.0 0.0 0.0 15.0 0.0 0.0 0.0 15.0" Properties=species:S:1:pos:R:3:initial_magmoms:R:1:forces:R:3 energy=-13.174880981445312 free_energy=-13.174880981445312 stress="8.715921151314265e-06 0.0 9.098871532712977e-06 0.0 0.0 1.5453055423689033e-11 9.098871532712977e-06 1.5453055423689033e-11 8.314353637839564e-06" pbc="T T T"
O        7.03644176       7.50000000       6.69628023       0.00000000       0.01611018      -0.00000000       0.01391205
O        7.02107536       7.50000000       8.06727585       0.00000000       0.01505229      -0.00000000       0.01857263
H        7.97298288       7.50000000       8.34394393       0.00000000      -0.03116247      -0.00000000      -0.03248470
