64
Lattice="10.198213883948815 0.05206215565379977 -0.02007405445471914 5.144194091346376 8.854845476330945 -0.09659192196665989 -0.01639039682763506 -0.08160473735339688 8.727641625850957" Properties=species:S:1:pos:R:3:tags:I:1:initial_magmoms:R:1:forces:R:3 unique_id=5bfa8e546876481b885cd68a2879b5df stress="6.506777807368386e-05 -1.8870044950334593e-06 1.5758458994402006e-05 -1.8870044950334593e-06 7.760855658357768e-05 3.1976596985387604e-05 1.5758458994402006e-05 3.1976596985387604e-05 8.025403563750172e-05" energy=-392.89400446049274 pbc="T T T"
Ni       0.02071391       0.00707489       0.17118316        4       1.00000000       0.09583662       0.01156161       0.28921400
Ni       2.57122937       0.02960353       0.19903970        4       1.00000000       0.08899880       0.00068112       0.24386255
Ni       5.07795572      -0.00178571       0.05996189        4       1.00000000      -0.04990994      -0.04968206       0.05869272
Ni       7.65403358      -0.00112226       0.02897224        4       1.00000000      -0.04846924      -0.05817960      -0.00728581
Ni       1.30844352       2.19983633       0.05921798        4       1.00000000       0.06125889      -0.06792900       0.02598760
Ni       3.80591537       2.21167375       0.17241889        4       1.00000000      -0.01224711      -0.10677178       0.25280335
Pt       6.38391727       2.26554151       0.09962149        4       0.00000000      -0.05499616      -0.03642196       0.39892465
Ni       8.96364029       2.25309633       0.01208776        4       1.00000000       0.06676745      -0.05853768      -0.04321502
Ni       2.59016817       4.39880302       0.01709094        4       1.00000000       0.00693033      -0.16009164       0.00008036
Ni       5.07260973       4.43278535       0.02496228        4       1.00000000      -0.14445656      -0.03932308       0.03736576
Ni       7.72553661       4.43667089       0.01361647        4       1.00000000       0.15814715      -0.03471114       0.08231503
Ni      10.21842345       4.45200877      -0.01552625        4       1.00000000       0.02060885      -0.06650812      -0.04408724
Ni       3.85147974       6.60337405      -0.02102473        4       1.00000000      -0.00118088      -0.15820638      -0.03296593
Pt       6.40922643       6.66439076      -0.04483092        4       0.00000000       0.00141377      -0.05424412      -0.29328253
Ni       8.96513858       6.63910063       0.05804456        4       1.00000000      -0.03957684      -0.11014319       0.16761257
Ni      11.50572646       6.65909164      -0.05572486        4       1.00000000      -0.08705638      -0.12531339      -0.12112455
Ni       1.31556926       0.70991094       2.14189355        3       1.00000000      -0.01710457       0.00522438      -0.00659580
Ni       3.78243557       0.75945305       2.15467834        3       1.00000000       0.01797941      -0.00324110       0.11465770
Pt       6.31409764       0.78524047       2.25411755        3       0.00000000      -0.08084854       0.18361657       0.02198168
Pt       8.95529538       0.77012343       2.15372556        3       0.00000000      -0.00331228       0.00923325       0.02253709
Ni       2.58927279       2.90910375       2.11353075        3       1.00000000      -0.04513182      -0.00281010      -0.05037175
Ni       5.04718267       2.97073324       2.15462517        3       1.00000000      -0.02281793      -0.00152647       0.03712189
Ni       7.68768799       2.99251762       2.15730521        3       1.00000000       0.05185226       0.01148320       0.01353417
Pt      10.21760004       2.97748370       2.14962933        3       0.00000000       0.05514937      -0.06433875       0.03957880
Ni       3.86929617       5.11448229       2.10258443        3       1.00000000       0.01255357      -0.00269843      -0.10074790
Pt       6.40111147       5.16557563       2.13240565        3       0.00000000       0.02106619       0.09032914      -0.15849640
Ni       8.92418479       5.16854358       2.12837750        3       1.00000000       0.02150906      -0.03324679       0.06415650
Pt      11.52379233       5.14500173       2.12351074        3       0.00000000       0.04610230      -0.07900259      -0.01979908
Ni       5.15252317       7.35447358       2.09447302        3       1.00000000      -0.01001762      -0.06293414      -0.09257827
Ni       7.67143745       7.39825466       2.09534597        3       1.00000000      -0.03135614      -0.01551182      -0.02584782
Pt      10.13942068       7.38642144       2.12168394        3       0.00000000      -0.08961661      -0.03975457       0.04837574
Pt      12.81793727       7.35220576       2.04017493        3       0.00000000       0.02017209      -0.04781717      -0.11729434
Ni      -0.02587622       1.48853673       4.36074727        2       1.00000000      -0.01285133       0.02660796       0.05560424
Pt       2.52685956       1.45938113       4.23853575        2       0.00000000      -0.01873853       0.02923626       0.11604564
Ni       5.09285818       1.41467451       4.32604030        2       1.00000000      -0.12993208       0.06563042       0.14864425
Ni       7.68789077       1.47184570       4.31072737        2       1.00000000       0.09142630       0.09420094       0.03503831
Ni       1.23773601       3.67914680       4.35673344        2       1.00000000      -0.02188612       0.04891037       0.04465253
Pt       3.80432843       3.74068782       4.25904984        2       0.00000000      -0.08092174       0.03518371       0.02456858
Pt       6.44940844       3.69380121       4.27765791        2       0.00000000       0.01926003      -0.09778979       0.06558702
Ni       8.97321554       3.69913063       4.32467303        2       1.00000000       0.08228672       0.08014484      -0.02328002
Ni       2.51778934       5.86427741       4.33502131        2       1.00000000      -0.18053310       0.04922116      -0.00599072
Ni       5.10314115       5.87126829       4.29959676        2       1.00000000      -0.06897118       0.00418577      -0.13132414
Ni       7.72868194       5.86521957       4.26303563        2       1.00000000       0.24207346      -0.00510845      -0.12389538
Ni      10.23650023       5.87432282       4.27193410        2       1.00000000       0.01063264      -0.05458972      -0.04741383
Pt       3.78853657       8.03729989       4.29444184        2       0.00000000       0.00191189      -0.03681248       0.08752385
Pt       6.42627074       8.01627968       4.17484828        2       0.00000000      -0.00257197       0.05920957       0.07357183
Ni       8.99849604       8.07789970       4.25001176        2       1.00000000      -0.04844039      -0.01305169       0.07404809
Ni      11.46285842       8.09794019       4.29769567        2       1.00000000      -0.10532589      -0.05090796       0.02025878
Pt      -0.07916962      -0.01418558       6.54242023        1       0.00000000      -0.09791954       0.09380598       0.16452978
Pt       2.55164304      -0.04781735       6.53329657        1       0.00000000       0.04061257       0.06298597       0.19016708
Ni       5.13188168      -0.05966257       6.43773656        1       1.00000000       0.00377335      -0.01725007      -0.11807427
Ni       7.58832425      -0.05829392       6.45758456        1       1.00000000      -0.09435663      -0.15675925      -0.10279527
Ni       1.22697498       2.22727049       6.43672245        1       1.00000000      -0.00480637       0.13067574      -0.11684502
Pt       3.80826312       2.25555647       6.51259830        1       0.00000000      -0.07590756       0.26022464       0.23851580
Pt       6.44092174       2.15785598       6.37236221        1       0.00000000       0.11029498       0.00533189      -0.28721217
Ni       8.94644639       2.25858238       6.40396477        1       1.00000000       0.08437920       0.23540593      -0.18889226
Ni       2.51112421       4.43803597       6.41873064        1       1.00000000      -0.12941191       0.20512704      -0.08787150
Ni       5.10764061       4.46259293       6.42558727        1       1.00000000       0.04928013       0.16833907      -0.07967865
Ni       7.68345603       4.40597249       6.40873493        1       1.00000000       0.08245655       0.02090601      -0.07213766
Ni      10.23085090       4.38030423       6.37969759        1       1.00000000       0.08381473       0.00175889      -0.14296478
Ni       3.81288821       6.54610622       6.39052219        1       1.00000000      -0.04954871      -0.04427123      -0.11044427
Ni       6.36738003       6.54580531       6.29111201        1       1.00000000       0.02096828      -0.04452243      -0.40463721
Pt       9.00234235       6.53936940       6.37592749        1       0.00000000       0.14084558      -0.03107667       0.07935141
Ni      11.52853225       6.62777847       6.35212759        1       1.00000000       0.04985912       0.04186338      -0.17975976
