64
Lattice="10.581332197615898 0.00793163877287086 -0.01648824607624976 5.297535099478903 9.184261211537509 -0.02259810841049482 -0.013462596546752971 -0.013533067191807083 9.127849749653404" Properties=species:S:1:pos:R:3:tags:I:1:initial_magmoms:R:1:forces:R:3 unique_id=ca80aa1086d5431c98c5c7bf7ee9ee64 stress="0.0052389333648363845 -5.542072239963899e-06 4.3647279588893447e-07 -5.542072239963899e-06 0.005231359897932421 -1.4466749844604801e-05 4.3647279588893447e-07 -1.4466749844604801e-05 0.004192971738300667" energy=-416.2236538468562 pbc="T T T"
Ni       0.01880485       0.00721743       0.05418983        4       1.00000000      -0.00938544       0.02084844       0.09627820
Ni       2.64032722       0.01519830       0.14043444        4       1.00000000       0.02189193      -0.01693562       0.26471091
Pt       5.22134601       0.02911430       0.02868877        4       0.00000000      -0.08593273       0.06705891      -0.05279945
Pt       7.93576206      -0.01864175       0.07752988        4       0.00000000      -0.04528906       0.02236029       0.02047301
Pt       1.38869169       2.25597326      -0.00662139        4       0.00000000       0.09359620      -0.06735693      -0.24276867
Ni       3.94997332       2.28832160       0.13886014        4       1.00000000       0.00118441      -0.01809140       0.28909273
Pt       6.58403495       2.28784327      -0.00645231        4       0.00000000       0.02927326       0.00349150      -0.07671867
Pt       9.31043394       2.28338725       0.00051881        4       0.00000000       0.06264004       0.01040887      -0.15212197
Ni       2.63840411       4.58525407       0.12968417        4       1.00000000      -0.00307266      -0.02319492       0.16609421
Pt       5.22951935       4.55897386       0.09774670        4       0.00000000      -0.03484132      -0.05445476      -0.03614666
Pt       7.93884805       4.59758734       0.09519775        4       0.00000000       0.00508132      -0.01737687       0.02461985
Pt      10.67905018       4.61607738       0.02864293        4       0.00000000       0.09379326      -0.04366646      -0.11813996
Pt       3.92272411       6.86895284       0.07983678        4       0.00000000      -0.08205630      -0.04174288      -0.05843978
Pt       6.60976349       6.95556725       0.09775952        4       0.00000000      -0.02811132       0.01421647      -0.02473512
Pt       9.29115921       6.91314341      -0.02589615        4       0.00000000       0.02089731      -0.02821689      -0.13330238
Ni      11.90863259       6.87921892       0.10522167        4       1.00000000      -0.03465576       0.00955310       0.21775855
Pt       1.33573762       0.79619652       2.27282559        3       0.00000000      -0.01919418       0.02293783       0.03616763
Ni       3.95706110       0.77690409       2.26855624        3       1.00000000       0.01810471       0.03435639       0.08240539
Pt       6.59050842       0.76967809       2.37054650        3       0.00000000       0.01425362       0.02325625       0.07310289
Pt       9.29210522       0.83153826       2.33254064        3       0.00000000       0.02082482       0.11095874       0.01942746
Pt       2.61386313       3.07276953       2.26971838        3       0.00000000      -0.05292911      -0.01139901       0.01403496
Pt       5.27984455       3.05872638       2.35300559        3       0.00000000       0.00983105      -0.00159414       0.09876626
Pt       7.94213566       3.08687806       2.41374798        3       0.00000000      -0.03263125       0.02807866       0.06307527
Ni      10.59329244       3.07896861       2.30364570        3       1.00000000       0.01073230      -0.01039122       0.01925824
Pt       3.93478965       5.32084365       2.30147198        3       0.00000000      -0.04284371      -0.00479707       0.04397474
Ni       6.61636784       5.34381874       2.28175893        3       1.00000000       0.01101913      -0.01929935      -0.01498022
Pt       9.31428896       5.30778995       2.31537255        3       0.00000000       0.11043268      -0.04159593      -0.03867920
Ni      11.89876282       5.33462220       2.24491078        3       1.00000000      -0.01582055      -0.04314290       0.04472468
Pt       5.29062883       7.64998858       2.29370547        3       0.00000000      -0.03800286       0.04569592       0.05990590
Pt       7.96928229       7.66923868       2.28494146        3       0.00000000       0.02303105      -0.03180832       0.06747251
Pt      10.58936093       7.64798668       2.29022343        3       0.00000000      -0.02519904       0.01370291       0.04177623
Pt      13.18342783       7.62754933       2.28756549        3       0.00000000      -0.00099928       0.02594148       0.09858527
Ni      -0.04871826       1.56328950       4.58487853        2       1.00000000      -0.07103315       0.02740776      -0.00974977
Pt       2.64614486       1.56851874       4.53660850        2       0.00000000       0.10310899       0.02656679       0.00081090
Pt       5.36246985       1.56021797       4.58904689        2       0.00000000       0.03079194       0.02240788       0.06186324
Ni       7.95404642       1.58713860       4.56816807        2       1.00000000       0.06779886       0.16237471       0.01893402
Pt       1.22914054       3.76732318       4.53306423        2       0.00000000      -0.06303015      -0.03728134      -0.07048497
Ni       3.96415048       3.80489308       4.53432298        2       1.00000000      -0.07629432      -0.03337626       0.02797803
Ni       6.63988567       3.78840997       4.53084690        2       1.00000000       0.07711094      -0.04229172      -0.00648301
Ni       9.25428140       3.75262072       4.54478990        2       1.00000000       0.02229902      -0.14449933      -0.02534647
Pt       2.61520665       6.09132986       4.51373429        2       0.00000000      -0.04410868      -0.08262172       0.05698407
Pt       5.30445452       6.03804375       4.47853713        2       0.00000000      -0.01372955      -0.02970114      -0.06513845
Pt       7.93648215       6.04522031       4.49142263        2       0.00000000      -0.00311205      -0.07912330      -0.11812162
Pt      10.57130227       6.09117398       4.55492047        2       0.00000000      -0.03481180      -0.00921737       0.01639714
Pt       3.93759327       8.50782652       4.53321322        2       0.00000000      -0.03546027       0.06289716      -0.02582912
Pt       6.58152888       8.47501882       4.53763372        2       0.00000000      -0.01700681       0.09283574       0.03646740
Pt       9.30728074       8.43585950       4.55977922        2       0.00000000      -0.02663690       0.03350882       0.00767895
Ni      11.90502821       8.43418756       4.53882337        2       1.00000000       0.01241371      -0.01029990       0.02784300
Ni      -0.00928393       0.04562958       6.77677550        1       1.00000000      -0.01151272       0.14407838      -0.11351659
Pt       2.63146977       0.01201142       6.83573461        1       0.00000000      -0.04131483       0.02125165       0.17418483
Ni       5.29075183      -0.00176179       6.70264076        1       1.00000000       0.02516435       0.02763001      -0.12642384
Pt       7.89814246       0.11082918       6.67376009        1       0.00000000      -0.04177944       0.12414401       0.01880964
Ni       1.26203735       2.27326947       6.69301536        1       1.00000000      -0.14197391      -0.05675441      -0.30099080
Pt       3.98635475       2.25654034       6.80586627        1       0.00000000       0.02106481      -0.00566455       0.20030209
Ni       6.62998813       2.28941790       6.67028169        1       1.00000000       0.10340358       0.10059646      -0.16511656
Ni       9.28254563       2.28482326       6.64365717        1       1.00000000       0.16420973      -0.04384714      -0.27791702
Pt       2.57752425       4.54049465       6.79503393        1       0.00000000      -0.06827353      -0.03750940       0.09343048
Pt       5.31577376       4.53072677       6.67138870        1       0.00000000       0.02675118      -0.02784743      -0.05042305
Pt       8.01531426       4.49996692       6.66384432        1       0.00000000       0.10316025      -0.09829277       0.00010162
Ni      10.56421965       4.56275541       6.68419725        1       1.00000000      -0.00401209      -0.09844859      -0.16933801
Pt       3.96257842       6.92862804       6.70804259        1       0.00000000      -0.00278589       0.07267113      -0.01671009
Pt       6.64509506       6.89152128       6.70900088        1       0.00000000       0.04915261      -0.07924723      -0.01217305
Ni       9.25960544       6.87641132       6.68168660        1       1.00000000      -0.06284351      -0.04562448      -0.21286081
Pt      11.81852629       6.91585776       6.77533505        1       0.00000000      -0.04233292       0.06547647       0.13196500
