64
Lattice="10.581332197615898 0.00793163877287086 -0.01648824607624976 5.297535099478903 9.184261211537509 -0.02259810841049482 0.0 0.0 21.861630757452303" Properties=species:S:1:pos:R:3:tags:I:1:initial_magmoms:R:1:forces:R:3 unique_id=ca80aa1086d5431c98c5c7bf7ee9ee64 energy=-391.3875528028531 stress="0.007040708209419643 6.008935380941574e-05 -0.0001257302021267679 6.008935380941574e-05 0.0075201015434536505 -0.00011776095165531362 -0.0001257302021267679 -0.00011776095165531362 -0.0007934267023051497" pbc="T T T"
Ni       0.01880485       0.00721743       0.08008598        1       1.00000000      -0.06203545      -0.01304946       0.33085981
Ni       2.64032722       0.01519830       0.16633059        2       1.00000000       0.11521021       0.01155797       0.00951222
Pt       5.22134601       0.02911430       0.05458491        1       0.00000000      -0.04297009       0.08655288       0.13107625
Pt       7.93576206      -0.01864175       0.10342602        1       0.00000000      -0.13515179       0.06981589      -0.34287910
Pt       1.38869169       2.25597326       0.01927476        0       0.00000000      -0.04694592       0.08099738       0.11196381
Ni       3.94997332       2.28832160       0.16475629        2       1.00000000       0.02088136      -0.05097176       0.13628556
Pt       6.58403495       2.28784327       0.01944383        0       0.00000000       0.04972726      -0.06035303       0.01265678
Pt       9.31043394       2.28338725       0.02641495        0       0.00000000       0.14269763       0.06193234       0.16834050
Ni       2.63840411       4.58525407       0.15558032        2       1.00000000      -0.03540630       0.02025624       0.03699431
Pt       5.22951935       4.55897386       0.12364285        1       0.00000000       0.09444124       0.10017653      -0.42327487
Pt       7.93884805       4.59758734       0.12109389        1       0.00000000      -0.12765828       0.11259448      -0.37125304
Pt      10.67905018       4.61607738       0.05453907        1       0.00000000       0.11334850      -0.15017849       0.12721026
Pt       3.92272411       6.86895284       0.10573293        1       0.00000000      -0.01498896      -0.08566063      -0.77101038
Pt       6.60976349       6.95556725       0.12365566        1       0.00000000      -0.02509583      -0.23262213      -0.70080914
Pt       9.29115921       6.91314341       0.00000000        0       0.00000000      -0.04523417      -0.03437246      -0.08420843
Ni      11.90863259       6.87921892       0.13111782        1       1.00000000      -0.00496150       0.01227002       0.06099605
Pt       1.33573762       0.79619652       2.29872174        3       0.00000000       0.02131691      -0.00636330       0.12457837
Ni       3.95706110       0.77690409       2.29445239        3       1.00000000       0.01009610       0.03867023       0.22927454
Pt       6.59050842       0.76967809       2.39644265        4       0.00000000       0.00402250       0.11380140       0.29002080
Pt       9.29210522       0.83153826       2.35843678        4       0.00000000       0.05995694       0.09305054       0.16196009
Pt       2.61386313       3.07276953       2.29561453        3       0.00000000      -0.05792957      -0.01990537       0.10234816
Pt       5.27984455       3.05872638       2.37890173        4       0.00000000       0.00660653      -0.11511401       0.28339402
Pt       7.94213566       3.08687806       2.43964413        4       0.00000000      -0.06778831      -0.01937486       0.29239769
Ni      10.59329244       3.07896861       2.32954184        3       1.00000000       0.00686102      -0.00531638       0.14990159
Pt       3.93478965       5.32084365       2.32736813        3       0.00000000      -0.10620601      -0.02804737       0.25655367
Ni       6.61636784       5.34381874       2.30765508        3       1.00000000       0.02669535      -0.01332124       0.32861649
Pt       9.31428896       5.30778995       2.34126870        3       0.00000000       0.12922734       0.01135992       0.14229301
Ni      11.89876282       5.33462220       2.27080692        3       1.00000000      -0.01659544      -0.03261507       0.21578401
Pt       5.29062883       7.64998858       2.31960162        3       0.00000000      -0.09452949       0.13521996       0.26440945
Pt       7.96928229       7.66923868       2.31083760        3       0.00000000       0.14829913      -0.01113276       0.24067191
Pt      10.58936093       7.64798668       2.31611958        3       0.00000000      -0.04737998      -0.06516530       0.16225937
Pt      13.18342783       7.62754933       2.31346164        3       0.00000000      -0.02992401      -0.01063678       0.32597969
Ni      -0.04871826       1.56328950       4.61077468        6       1.00000000      -0.09559679       0.03919452      -0.07422874
Pt       2.64614486       1.56851874       4.56250464        6       0.00000000       0.07730941       0.09400172      -0.22012148
Pt       5.36246985       1.56021797       4.61494303        6       0.00000000       0.10694304       0.06556941      -0.05004361
Ni       7.95404642       1.58713860       4.59406422        6       1.00000000       0.08072110       0.22183349      -0.16820149
Pt       1.22914054       3.76732318       4.55896037        6       0.00000000      -0.09171659      -0.09222603      -0.19827882
Ni       3.96415048       3.80489308       4.56021913        6       1.00000000      -0.06733472      -0.01287818      -0.23121882
Ni       6.63988567       3.78840997       4.55674304        6       1.00000000       0.05368626      -0.10200335      -0.26254986
Ni       9.25428140       3.75262072       4.57068604        6       1.00000000       0.03642342      -0.18666658      -0.17129187
Pt       2.61520665       6.09132986       4.53963043        5       0.00000000      -0.02502267      -0.07734178      -0.23177397
Pt       5.30445452       6.03804375       4.50443328        5       0.00000000      -0.05201517      -0.03509825      -0.36304534
Pt       7.93648215       6.04522031       4.51731877        5       0.00000000       0.03764656      -0.02511502      -0.40144402
Pt      10.57130227       6.09117398       4.58081662        6       0.00000000      -0.08855500      -0.05761622      -0.12360916
Pt       3.93759327       8.50782652       4.55910937        6       0.00000000       0.00932735       0.09406465      -0.21583897
Pt       6.58152888       8.47501882       4.56352987        6       0.00000000      -0.08106193       0.11856854      -0.16041424
Pt       9.30728074       8.43585950       4.58567536        6       0.00000000      -0.00123923      -0.00764223      -0.18626256
Ni      11.90502821       8.43418756       4.56471951        6       1.00000000       0.01480237      -0.03485895      -0.25755735
Ni      -0.00928393       0.04562958       6.80267164        8       1.00000000      -0.01005030       0.12261853      -0.42060293
Pt       2.63146977       0.01201142       6.86163076        9       0.00000000      -0.01885694       0.03319084       0.08374622
Ni       5.29075183      -0.00176179       6.72853690        7       1.00000000       0.04471391       0.01764613       0.02363041
Pt       7.89814246       0.11082918       6.69965623        7       0.00000000      -0.15058963       0.16279756       0.41345974
Ni       1.26203735       2.27326947       6.71891150        7       1.00000000      -0.16049960      -0.07773970      -0.18431282
Pt       3.98635475       2.25654034       6.83176241        8       0.00000000      -0.00795993       0.03426910       0.00981811
Ni       6.62998813       2.28941790       6.69617784        7       1.00000000       0.15071227       0.08964583      -0.02286701
Ni       9.28254563       2.28482326       6.66955332        7       1.00000000       0.09999725      -0.00791517      -0.39159502
Pt       2.57752425       4.54049465       6.82093007        8       0.00000000       0.03852743      -0.05294095      -0.10105196
Pt       5.31577376       4.53072677       6.69728485        7       0.00000000       0.08551563      -0.17030849       0.47043027
Pt       8.01531426       4.49996692       6.68974046        7       0.00000000       0.07818736      -0.19274605       0.27208362
Ni      10.56421965       4.56275541       6.71009340        7       1.00000000      -0.05726044      -0.11489403      -0.19605954
Pt       3.96257842       6.92862804       6.73393873        7       0.00000000      -0.05387935       0.08412091       0.71059721
Pt       6.64509506       6.89152128       6.73489702        7       0.00000000       0.11015224      -0.06566593       0.62626714
Ni       9.25960544       6.87641132       6.70758274        7       1.00000000      -0.10651002      -0.04697141       0.08161168
Pt      11.81852629       6.91585776       6.80123120        8       0.00000000       0.05489578       0.18905169      -0.06217824
