64
Lattice="10.127866093473193 0.012233451321738064 -0.004601570596419673 5.07452752635718 8.727956743407486 -0.012501136290813418 -0.003757166658874209 -0.009616983143137194 8.630055689135144" Properties=species:S:1:pos:R:3:tags:I:1:initial_magmoms:R:1:forces:R:3 unique_id=536f10b9c6b6413998a659f29dba0c18 stress="-0.006688128255726955 1.6731821833219306e-05 1.480647626968197e-05 1.6731821833219306e-05 -0.006648378579415845 1.998569455587955e-06 1.480647626968197e-05 1.998569455587955e-06 -0.005728066741900392" energy=-388.5504184884135 pbc="T T T"
Ni       0.03843578      -0.05079278       0.19776712        4       1.00000000       0.05269915      -0.04917367       0.11053235
Ni       2.48772045      -0.03079663       0.19831528        4       1.00000000      -0.01574160      -0.01213410      -0.00620681
Pt       5.08192087      -0.06356952       0.21108389        4       0.00000000      -0.03242170      -0.04411158      -0.12107226
Ni       7.60912275      -0.04396097       0.16424884        4       1.00000000       0.01060622      -0.09577004       0.01977816
Ni       1.26298222       2.19998205       0.13286881        4       1.00000000      -0.02328956       0.05999904       0.11544751
Pt       3.76399181       2.24484874       0.20114875        4       0.00000000      -0.03438058       0.00619680      -0.11065931
Ni       6.33618098       2.23301228       0.12688284        4       1.00000000      -0.02312142       0.05961524       0.10844115
Pt       8.86746163       2.24707412       0.15689682        4       0.00000000      -0.00867751       0.05811559      -0.15580179
Ni       2.51159184       4.41089568       0.11033192        4       1.00000000      -0.00271500       0.04338642       0.05837383
Ni       5.09155072       4.41960820       0.10911333        4       1.00000000      -0.02627317       0.07947716       0.01693496
Ni       7.57036459       4.41689289       0.11742122        4       1.00000000      -0.01874992       0.05997539       0.07196400
Ni      10.16450333       4.41769301       0.11155207        4       1.00000000       0.02623365       0.06977275       0.02518689
Ni       3.81214482       6.52569074       0.10896844        4       1.00000000       0.02613014      -0.00164176       0.03631434
Ni       6.32978203       6.54010605       0.11505889        4       1.00000000      -0.01371997       0.03196860      -0.00708510
Ni       8.84665226       6.50353660       0.22175373        4       1.00000000      -0.02359127      -0.01778912       0.18650668
Ni      11.42922382       6.50135355       0.11432113        4       1.00000000       0.01831393      -0.02476293       0.05223253
Ni       1.30929225       0.72038055       2.15405821        3       1.00000000      -0.02730465       0.04097785       0.05204192
Ni       3.73339493       0.69353316       2.19303003        3       1.00000000      -0.07579781      -0.05555297       0.00233572
Ni       6.34359399       0.72688808       2.17586847        3       1.00000000       0.02600443      -0.01420389       0.01195294
Pt       8.84199737       0.65840087       2.19526981        3       0.00000000       0.03398315      -0.07324994       0.11655419
Ni       2.49825416       2.95035535       2.23355983        3       1.00000000      -0.01468709       0.06282099       0.05385166
Ni       5.07429118       2.97208486       2.15445262        3       1.00000000      -0.01214666       0.11979789       0.00784349
Ni       7.57653687       2.95950312       2.18589860        3       1.00000000       0.01731851       0.02216983       0.08041633
Ni      10.17875361       2.98742204       2.17750172        3       1.00000000       0.05230798       0.05288165       0.03458184
Ni       3.79170351       5.09514663       2.16288623        3       1.00000000      -0.02150447      -0.00209432      -0.02088244
Ni       6.31735049       5.11371227       2.10862464        3       1.00000000      -0.00324180       0.03584708       0.02198733
Ni       8.89376913       5.08185332       2.13974137        3       1.00000000       0.03979664      -0.07103019       0.05329433
Ni      11.40604671       5.10250291       2.17295512        3       1.00000000       0.02103965      -0.01217321       0.06204596
Ni       5.09028269       7.20769372       2.16745859        3       1.00000000      -0.02161810      -0.09150355       0.06135262
Ni       7.59178018       7.28203276       2.13351042        3       1.00000000      -0.05616205      -0.00891310       0.01822872
Ni      10.14298430       7.21556462       2.22637615        3       1.00000000       0.00465887      -0.09094684       0.08232587
Ni      12.64634046       7.20308202       2.16556889        3       1.00000000       0.01231712      -0.10570756       0.00899705
Pt       0.07340016       1.48311113       4.23906947        2       0.00000000       0.04596798       0.00270850       0.00419623
Ni       2.53473925       1.47085304       4.21599451        2       1.00000000       0.03211620       0.02196567      -0.08326201
Pt       5.04696983       1.42299485       4.15626754        2       0.00000000       0.02198599       0.02747159      -0.14385687
Ni       7.58799417       1.43174418       4.25637592        2       1.00000000      -0.01511192      -0.03924936      -0.05598356
Ni       1.30155664       3.69198253       4.27311541        2       1.00000000       0.05446527       0.05248606      -0.06665908
Ni       3.74268602       3.72028228       4.21614810        2       1.00000000       0.00572889       0.08860178      -0.13694960
Pt       6.31534045       3.65707815       4.27045448        2       0.00000000      -0.01278378       0.02522303      -0.03073757
Ni       8.91649533       3.70045595       4.21058231        2       1.00000000       0.06552889       0.07855465      -0.13892260
Ni       2.53676137       5.80573618       4.26018010        2       1.00000000       0.00184213       0.00879152      -0.13628393
Ni       5.00711601       5.84235224       4.26208860        2       1.00000000       0.00576885      -0.00222094      -0.12663757
Pt       7.61221269       5.86494382       4.19678302        2       0.00000000       0.03818687       0.02277857       0.02980007
Ni      10.19884733       5.80633557       4.23870369        2       1.00000000       0.02007148      -0.00005968      -0.02023571
Ni       3.79446517       7.91063218       4.24531454        2       1.00000000       0.00871211      -0.06947269      -0.00704711
Ni       6.32228890       7.98277015       4.19598586        2       1.00000000      -0.03492604       0.03629916      -0.10943902
Ni       8.87007749       7.98505771       4.19230829        2       1.00000000       0.00013875      -0.02088082      -0.06662945
Ni      11.43058960       7.91982553       4.19075073        2       1.00000000       0.03686058      -0.03425272      -0.09748272
Pt      -0.00428391      -0.09295020       6.43115250        1       0.00000000      -0.07342583      -0.05680838       0.13197775
Pt       2.50788262      -0.00777521       6.37846213        1       0.00000000       0.07293598      -0.01477425      -0.01828354
Pt       5.08302762      -0.02491191       6.31560672        1       0.00000000      -0.07966345      -0.07674797       0.05053984
Pt       7.59300072      -0.06655671       6.37295752        1       0.00000000       0.05433909      -0.03581420       0.03421773
Ni       1.26506051       2.24600136       6.38219968        1       1.00000000       0.03139817       0.02804650       0.02390353
Pt       3.77475945       2.32544534       6.30919337        1       0.00000000      -0.02552703       0.04735976       0.03488808
Ni       6.32042034       2.22680623       6.39384550        1       1.00000000      -0.04650952      -0.01698509       0.01905230
Pt       8.84109984       2.30017720       6.29901872        1       0.00000000      -0.06768482       0.05059545       0.08854095
Ni       2.50738753       4.42481453       6.34943817        1       1.00000000       0.01758941       0.04622421      -0.07581202
Ni       5.06427256       4.43110984       6.38593524        1       1.00000000      -0.05553929       0.06875720      -0.02415071
Ni       7.53088301       4.37511593       6.40448187        1       1.00000000      -0.14208816      -0.01783436       0.02712841
Ni      10.21672366       4.36440886       6.35223353        1       1.00000000       0.13277390      -0.04150713      -0.10151827
Ni       3.79399853       6.44503317       6.35106056        1       1.00000000      -0.02234685      -0.06073668      -0.08627383
Ni       6.29819301       6.47257387       6.37815150        1       1.00000000      -0.00215239      -0.03053226      -0.09422835
Pt       8.89617037       6.41742938       6.44868344        1       0.00000000       0.03825629      -0.09936606       0.23006121
Ni      11.44524696       6.47097659       6.34383022        1       1.00000000       0.00682711      -0.02086455      -0.10172724
