64
Lattice="9.926704275728282 0.013815159232904241 -0.03904410336474013 4.975316416717165 8.595797823571589 0.004307642948765994 0.0 0.0 21.290044112128676" Properties=species:S:1:pos:R:3:tags:I:1:initial_magmoms:R:1:forces:R:3 unique_id=9e77477f105741fc8b61524035743ae6 energy=-359.2697054653894 stress="0.0033576300774470647 6.060755899624747e-05 -0.0004419470057148892 6.060755899624747e-05 0.003187490482619919 0.00025583525271847163 -0.0004419470057148892 0.00025583525271847163 -0.002170083998807853" pbc="T T T"
Ni      -0.03063679       0.04908551       0.05351538        1       1.00000000       0.02868107      -0.02276492       0.14743594
Ni       2.50021267       0.05181847       0.05042077        1       1.00000000      -0.03360881      -0.02940994       0.15193016
Ni       4.96212618       0.03013151       0.03816008        0       1.00000000       0.01343561       0.04366582       0.13212927
Ni       7.43925358       0.02842618       0.02719622        0       1.00000000      -0.04665340       0.05428808       0.18195242
Ni       1.23890390       2.15215739       0.04848040        0       1.00000000       0.01385582       0.01580704       0.13903165
Ni       3.72680868       2.15122045       0.04144825        0       1.00000000       0.00655445      -0.01078716       0.15989644
Ni       6.20059008       2.15257111       0.02987722        0       1.00000000      -0.02186143      -0.04839657       0.14259128
Ni       8.67995716       2.15785726       0.02803016        0       1.00000000      -0.04288434      -0.05013972       0.04839474
Ni       2.50992287       4.27640929       0.00576080        0       1.00000000       0.00815435      -0.03355010      -0.09135872
Ni       4.94877649       4.26040202       0.04836629        0       1.00000000       0.05066492       0.00175064      -0.00255056
Ni       7.46139503       4.26196691       0.03789603        0       1.00000000      -0.07493846       0.06986193      -0.02338531
Ni       9.90430515       4.28483884       0.00000000        0       1.00000000      -0.01228833      -0.00409826      -0.18494872
Ni       3.68312918       6.45900701       0.06373927        1       1.00000000      -0.00593044       0.03550944       0.02252356
Pt       6.20596262       6.45825534       0.02073279        0       0.00000000       0.04773315       0.03010724      -0.22373636
Ni       8.72932005       6.46755630       0.15342971        2       1.00000000      -0.07700118       0.04908653      -0.58550275
Ni      11.17252649       6.51049239       0.10613882        1       1.00000000       0.01987894       0.13453748      -0.73317436
Ni       1.23736685       0.72423672       2.08907829        4       1.00000000       0.01350437      -0.02389338       0.03930607
Ni       3.71802434       0.73787696       2.08077853        4       1.00000000      -0.00875289       0.02300562       0.08820761
Ni       6.19659396       0.74102022       2.06539993        4       1.00000000      -0.00619490       0.02565125       0.07104571
Ni       8.67458362       0.73780741       2.06024430        4       1.00000000      -0.00538562       0.02502188       0.10658368
Ni       2.50917266       2.81609929       2.08376368        4       1.00000000       0.04571460      -0.10863781       0.03764732
Ni       4.95905180       2.85779017       2.07776879        4       1.00000000      -0.01644635      -0.05413445       0.04413559
Ni       7.41474686       2.84895276       2.03182210        3       1.00000000      -0.06048860      -0.09863554      -0.00630787
Ni       9.91654878       2.82389093       2.02904000        3       1.00000000       0.01351733      -0.12207238       0.01217309
Ni       3.75907174       5.00179512       2.04993947        3       1.00000000       0.04312274      -0.04883521      -0.08741362
Ni       6.21220458       4.98222918       2.08213786        4       1.00000000       0.03043872      -0.02741800      -0.03825302
Ni       8.63391555       5.01542007       2.02776407        3       1.00000000      -0.01363842      -0.04400801       0.03269695
Pt      11.20516852       4.99126443       2.02048452        3       0.00000000      -0.01814567      -0.01750312      -0.08366913
Ni       4.94697235       7.21339918       2.09634590        4       1.00000000       0.03525724       0.10838888      -0.03269816
Ni       7.45498593       7.20777057       2.12204202        4       1.00000000      -0.06752311       0.05093693       0.07476394
Ni       9.91961094       7.25671746       2.05587773        4       1.00000000       0.04566511       0.12780221       0.14020191
Ni      12.43609293       7.23251275       2.07349214        4       1.00000000       0.01788852       0.03610783       0.14580328
Ni       0.01472757       1.39318367       4.17360483        6       1.00000000       0.01675589      -0.02418898      -0.08423705
Ni       2.47349671       1.44778659       4.15923368        6       1.00000000       0.00866542       0.00551505      -0.10916803
Ni       4.94273952       1.45644471       4.14687902        5       1.00000000      -0.03428916      -0.01841187      -0.10481766
Ni       7.39947609       1.40842409       4.13921649        5       1.00000000      -0.00544151       0.00740444      -0.11931473
Ni       1.28120996       3.53148914       4.19885823        6       1.00000000      -0.01388239      -0.05759777      -0.05133642
Ni       3.70095729       3.54353430       4.16108491        6       1.00000000      -0.01033886      -0.06400314      -0.14194800
Ni       6.15056075       3.54588364       4.15268287        6       1.00000000      -0.02092270      -0.07730017      -0.12504272
Pt       8.64426714       3.52912606       4.13294749        5       0.00000000      -0.00595497      -0.08835654       0.07241345
Ni       2.50512341       5.73644352       4.16709938        6       1.00000000      -0.09147172       0.04236644      -0.03239972
Pt       4.94325203       5.73655424       4.13470665        5       0.00000000       0.01826555      -0.00438236       0.02999239
Ni       7.40591639       5.76433483       4.11482538        5       1.00000000       0.01183205       0.02956051      -0.10917808
Pt       9.91508497       5.79720064       4.10429114        5       0.00000000       0.02266041       0.06366032       0.09667109
Ni       3.70615583       7.93227011       4.17848570        6       1.00000000       0.00618219       0.00395567      -0.06385262
Ni       6.21434194       7.94028490       4.15817542        6       1.00000000       0.02795594      -0.01071922      -0.10195556
Ni       8.65595657       7.97746601       4.13236424        5       1.00000000      -0.00835008       0.03930810      -0.03642885
Ni      11.18186778       7.96897797       4.12107405        5       1.00000000      -0.03077484      -0.01958268      -0.03947884
Ni      -0.01783302       0.02487263       6.21345073        8       1.00000000       0.03244802       0.00336821      -0.09824438
Ni       2.42898717       0.08459378       6.19907856        8       1.00000000      -0.01585544      -0.03374878      -0.07619868
Ni       4.94377006       0.09491452       6.19368658        8       1.00000000       0.01361507      -0.08155822      -0.09660046
Ni       7.45971370       0.08256220       6.18876119        8       1.00000000       0.02894118      -0.03451138      -0.04374480
Ni       1.22961903       2.15069756       6.21990481        8       1.00000000      -0.01247100      -0.02361504      -0.14305945
Ni       3.70564635       2.16515010       6.20514975        8       1.00000000       0.01279408      -0.00583517      -0.20805384
Ni       6.18142397       2.16569490       6.19811496        8       1.00000000       0.01018503      -0.00204531      -0.15984609
Ni       8.67127942       2.13453757       6.22962121        8       1.00000000       0.01889244      -0.04659774      -0.03589239
Ni       2.50389964       4.25488444       6.20947534        8       1.00000000       0.02646927       0.01810502      -0.00028950
Ni       4.94170273       4.27691051       6.23442488        8       1.00000000       0.01973125      -0.05490105      -0.07938575
Ni       7.38170254       4.27216417       6.22419075        8       1.00000000      -0.06427013       0.04588497       0.02143885
Ni       9.93165033       4.25483200       6.22420729        8       1.00000000       0.03980302       0.05094377       0.19659086
Ni       3.76534970       6.47155411       6.24746560        8       1.00000000      -0.06499790       0.04097857       0.06701728
Ni       6.15045512       6.48302240       6.14612480        7       1.00000000       0.14399568       0.06114657       0.57109079
Pt       8.59847095       6.49097278       6.29004411        9       0.00000000      -0.03576636       0.07043808       0.54361394
Pt      11.24702085       6.49536000       6.27482964        9       0.00000000       0.03326960       0.07747549       0.63619293
