64
Lattice="10.179090346399088 0.014925446571390987 -0.0034937872558317338 5.102470989093251 8.768358956399982 -0.0594109561874595 -0.0028526653488755286 -0.05436619955549169 8.689308559798484" Properties=species:S:1:pos:R:3:tags:I:1:initial_magmoms:R:1:forces:R:3 unique_id=70ca8730ba91467fbc3dc14de0aae231 stress="-0.0012579345575220308 1.218119233523839e-07 1.0578632707106201e-05 1.218119233523839e-07 -0.0012350262439378493 1.5443489123186274e-05 1.0578632707106201e-05 1.5443489123186274e-05 -0.0010661417761451686" energy=-390.91079180595494 pbc="T T T"
Ni       0.03656093      -0.04105945       0.18350558        4       1.00000000       0.09945833      -0.02509744       0.32995892
Ni       2.52504626      -0.02958759       0.18972318        4       1.00000000      -0.02220211      -0.07960429       0.20261570
Ni       5.10020721      -0.00493610       0.17080903        4       1.00000000      -0.02057822      -0.01703818       0.27134840
Ni       7.60972827      -0.00071124       0.15456860        4       1.00000000      -0.01201042       0.07223161       0.23949916
Ni       1.27956555       2.19393945       0.09718633        4       1.00000000       0.00188634      -0.00085078       0.21861087
Pt       3.81517929       2.19714732       0.16585615        4       0.00000000      -0.03657183      -0.04717412       0.27229034
Ni       6.35979908       2.20735092       0.09407810        4       1.00000000      -0.00516699       0.06715625       0.20149595
Pt       8.91046868       2.25440685       0.09119079        4       0.00000000       0.02546643      -0.03026320       0.22777053
Ni       2.54873996       4.40152158       0.03371502        4       1.00000000       0.01943261       0.01254461       0.01787183
Ni       5.09904931       4.40403096       0.04123293        4       1.00000000      -0.00639767      -0.00874383       0.04042847
Ni       7.62916651       4.41804026       0.04561634        4       1.00000000      -0.02529364       0.08645810       0.07786035
Ni      10.19403110       4.41888492       0.03635848        4       1.00000000       0.00680663       0.09523509       0.02019899
Ni       3.85251306       6.54868423       0.01955950        4       1.00000000       0.13307384      -0.09839575       0.00259036
Ni       6.36713210       6.58888064       0.03641665        4       1.00000000       0.00656629       0.05680419      -0.02255402
Ni       8.88816641       6.56106773       0.10640334        4       1.00000000      -0.14802478      -0.05830907       0.21928874
Ni      11.45593722       6.56868480      -0.00027204        4       1.00000000      -0.08035007      -0.06665466      -0.07106516
Ni       1.31656422       0.72438610       2.19409957        3       1.00000000       0.02922506       0.04959344       0.11030243
Ni       3.76079420       0.72418760       2.19361246        3       1.00000000      -0.17026279      -0.02784624       0.01452965
Ni       6.35455857       0.77470871       2.14544596        3       1.00000000       0.05757706       0.05562396      -0.03796970
Pt       8.95362407       0.77375417       2.22130013        3       0.00000000       0.00073424       0.13860364      -0.12233915
Ni       2.54059065       2.87651109       2.22481972        3       1.00000000       0.04003699      -0.10388934       0.15168099
Ni       5.09652056       2.92383312       2.17494943        3       1.00000000      -0.04652726       0.07352779      -0.03138752
Ni       7.62519538       2.93667224       2.18505905        3       1.00000000       0.05627743       0.01044130       0.02072625
Ni      10.20512286       2.91852880       2.20924669        3       1.00000000       0.02007185      -0.07949237       0.08082369
Ni       3.84106758       5.05651112       2.14869313        3       1.00000000       0.00536113      -0.13616368       0.01612497
Pt       6.37139375       5.13813956       2.11307894        3       0.00000000      -0.00800601       0.06472014      -0.01107548
Ni       8.89754040       5.07720674       2.15181142        3       1.00000000      -0.02529544      -0.09773965       0.02636104
Pt      11.45085003       5.02199548       2.16554113        3       0.00000000       0.00584846      -0.14507907       0.00576022
Ni       5.14995834       7.29573864       2.11385968        3       1.00000000       0.02475961       0.02222405       0.01760289
Ni       7.60872014       7.33060921       2.14336675        3       1.00000000      -0.05353733       0.05243643       0.08410510
Pt      10.11115657       7.32234292       2.15585722        3       0.00000000      -0.09178805      -0.03812893       0.06600638
Pt      12.75047918       7.26390653       2.08710207        3       0.00000000       0.08881782      -0.05413647      -0.04209637
Ni       0.06609478       1.47312119       4.28575700        2       1.00000000       0.15283192       0.02648991      -0.00115004
Ni       2.49104956       1.45061762       4.25307964        2       1.00000000      -0.00485751       0.01228778      -0.06182085
Pt       5.07398547       1.41003518       4.20219886        2       0.00000000      -0.11887545      -0.06491002       0.08639520
Ni       7.63456175       1.45199820       4.28170177        2       1.00000000      -0.02563838      -0.04334511      -0.05410216
Ni       1.27879502       3.61474042       4.32305568        2       1.00000000       0.04333343      -0.04448852      -0.01634971
Ni       3.77264499       3.69139462       4.25223721        2       1.00000000      -0.03475189       0.06998856      -0.17499970
Pt       6.39330152       3.67266991       4.32589808        2       0.00000000       0.02487915      -0.01943777       0.00720881
Ni       8.95764372       3.68723029       4.23799395        2       1.00000000       0.08761311       0.12073543      -0.22171595
Ni       2.54096765       5.76774156       4.32533035        2       1.00000000      -0.02899702      -0.08071901      -0.09222451
Ni       5.09292156       5.81180149       4.30679995        2       1.00000000       0.02211652      -0.06917490      -0.10756932
Ni       7.65119389       5.85286570       4.26099754        2       1.00000000       0.06241024       0.08241585      -0.16092477
Ni      10.19706665       5.79603777       4.28560671        2       1.00000000       0.01185055      -0.07438328      -0.03599049
Pt       3.86342127       7.94833517       4.25300138        2       0.00000000       0.07967899      -0.04939955       0.18672820
Ni       6.40981342       7.99359117       4.20202951        2       1.00000000       0.04028566      -0.00864839      -0.12313671
Ni       8.87628208       7.98646207       4.23578556        2       1.00000000      -0.12914836      -0.04360745       0.01390796
Ni      11.45144884       7.96370448       4.25026177        2       1.00000000       0.01856708      -0.11744868       0.01563170
Pt       0.01691675      -0.07306615       6.48736682        1       0.00000000       0.10965827      -0.03552058       0.18127117
Pt       2.53116229      -0.03354064       6.42204334        1       0.00000000      -0.14268534       0.03929885       0.03949745
Pt       5.09703828      -0.05184021       6.46565665        1       0.00000000       0.12420144       0.02728758       0.05040508
Pt       7.62127755      -0.06502080       6.47426774        1       0.00000000      -0.10103620      -0.04752991       0.05549523
Ni       1.26877213       2.21929132       6.39111137        1       1.00000000       0.02207278       0.09982473      -0.16208921
Pt       3.79171176       2.29308859       6.35981102        1       0.00000000      -0.00921856       0.26191902      -0.31297046
Ni       6.36324302       2.21051111       6.43081225        1       1.00000000      -0.05522637       0.05146305      -0.06890408
Pt       8.91707348       2.26983983       6.29864835        1       0.00000000       0.00314311       0.16912636      -0.51416507
Ni       2.51880202       4.40442557       6.37731450        1       1.00000000      -0.04470607       0.11495690      -0.19515082
Ni       5.09859367       4.41342955       6.40952603        1       1.00000000      -0.05041138       0.15548525      -0.10183482
Ni       7.59808436       4.36755498       6.41666984        1       1.00000000      -0.13393823       0.02109438      -0.05491061
Ni      10.24974571       4.36242053       6.37585581        1       1.00000000       0.21638894       0.00755809      -0.22629693
Ni       3.82338541       6.45249249       6.38646584        1       1.00000000      -0.02132292      -0.13105168      -0.14867603
Ni       6.34200992       6.47741894       6.37480739        1       1.00000000      -0.01891432      -0.02177470      -0.23674916
Pt       8.91448407       6.42509915       6.38446694        1       0.00000000       0.01750987      -0.13409950       0.07883998
Ni      11.48997201       6.47764432       6.36569760        1       1.00000000       0.01379945      -0.01738623      -0.24101418
