64
Lattice="10.327055946324778 0.00394205554433085 -0.0009818050468138734 5.166941893406911 8.886742511450706 -0.010443374543577093 -0.0008016404638611094 -0.009383280606708826 8.794745205905915" Properties=species:S:1:pos:R:3:tags:I:1:initial_magmoms:R:1:forces:R:3 unique_id=9ca423aa5fd94c5e9124eb521a71550f stress="0.00025674449364850027 4.4083041847487235e-06 -8.656940323426239e-06 4.4083041847487235e-06 0.0002631384316549787 4.3345917405694095e-06 -8.656940323426239e-06 4.3345917405694095e-06 0.0002464203521044886" energy=-398.8403072821189 pbc="T T T"
Ni       0.00203757       0.02330820       0.18174063        4       1.00000000       0.03135968       0.11240935       0.23091177
Ni       2.57586878       0.00853990       0.21012650        4       1.00000000      -0.00560443       0.04676416       0.36064119
Ni       5.16314977      -0.01115518       0.15188281        4       1.00000000      -0.04749479       0.07040254       0.18613574
Ni       7.75085315      -0.03864379       0.16805802        4       1.00000000      -0.02988091      -0.15411638       0.29583581
Ni       1.26323659       2.22706526       0.18704535        4       1.00000000      -0.11322828       0.02339764       0.28187126
Pt       3.81721916       2.22935112       0.18716099        4       0.00000000      -0.08326607       0.04676922       0.12397878
Pt       6.47734675       2.16274472       0.11030855        4       0.00000000       0.06386272      -0.13275971      -0.04681301
Ni       9.07937388       2.22221017       0.14309071        4       1.00000000       0.12994313       0.05125454       0.12224167
Ni       2.56368745       4.46505690       0.05699946        4       1.00000000      -0.07649114       0.02711392      -0.03532354
Ni       5.15428447       4.45326776       0.15638694        4       1.00000000       0.12090418      -0.10263628       0.28206365
Pt       7.78740045       4.44039286       0.04100592        4       0.00000000       0.12302464       0.00889937      -0.17107097
Ni      10.36638890       4.43727901       0.06235834        4       1.00000000       0.08219718      -0.04583661       0.06134513
Ni       3.84133591       6.68066730       0.07459836        4       1.00000000      -0.10530306       0.07829492       0.08941397
Pt       6.42422075       6.72302541       0.10327332        4       0.00000000      -0.05869136       0.03314709      -0.13973999
Ni       9.06028248       6.69077873       0.14020960        4       1.00000000      -0.02309133       0.02931808       0.19124455
Ni      11.64221516       6.66955530       0.05467768        4       1.00000000       0.09206761      -0.03071632      -0.03141602
Ni       1.29671090       0.75594241       2.16486898        3       1.00000000      -0.03967884       0.06990585      -0.03340492
Ni       3.86898741       0.74998953       2.21120341        3       1.00000000       0.08257695       0.03637918       0.02146336
Ni       6.45191670       0.75919235       2.24949910        3       1.00000000       0.02979075       0.07455993       0.22245149
Pt       9.03851026       0.77911789       2.18094485        3       0.00000000      -0.02446719       0.11028738       0.10811558
Ni       2.55602916       2.94843697       2.21264669        3       1.00000000      -0.06198255       0.08475647      -0.04334808
Ni       5.17713822       2.93342887       2.24449329        3       1.00000000      -0.04406217      -0.13267200       0.06368511
Ni       7.73981121       2.94361370       2.23216929        3       1.00000000       0.04455535      -0.00801922      -0.03668743
Ni      10.34457328       2.93578228       2.21051301        3       1.00000000       0.02872696      -0.00107146       0.13623820
Pt       3.89594429       5.16797581       2.16183326        3       0.00000000      -0.07118030      -0.03853517      -0.04242960
Ni       6.45691869       5.17934354       2.20587448        3       1.00000000       0.06585225       0.01115163      -0.04842252
Pt       9.00435789       5.15405593       2.27867930        3       0.00000000      -0.06621369      -0.03645159      -0.00560754
Pt      11.63146778       5.13898581       2.21073011        3       0.00000000       0.00102170      -0.03337642       0.00809872
Ni       5.16443441       7.41514945       2.17769470        3       1.00000000      -0.10523116       0.01255579      -0.06651168
Ni       7.73122844       7.42588525       2.18195787        3       1.00000000       0.04841463      -0.02228988      -0.01166749
Pt      10.37791064       7.46048948       2.14872812        3       0.00000000       0.12971423      -0.02259874       0.01218325
Ni      12.91406264       7.41638797       2.17382292        3       1.00000000       0.02159357      -0.05653078      -0.05692517
Ni      -0.02377584       1.53174953       4.34227357        2       1.00000000      -0.04575622       0.12442590      -0.05484019
Pt       2.56954589       1.56247157       4.24200653        2       0.00000000      -0.01900166       0.11376050       0.07548279
Ni       5.21074102       1.47596333       4.31991187        2       1.00000000       0.03232460      -0.08327691      -0.17361048
Ni       7.72900908       1.47980029       4.34148323        2       1.00000000      -0.00550792      -0.09103894      -0.11577443
Ni       1.26901075       3.74663381       4.36933567        2       1.00000000      -0.03907905       0.04796568      -0.05061274
Ni       3.84753183       3.72273344       4.33635541        2       1.00000000      -0.05195549       0.04405451      -0.13600261
Pt       6.50463713       3.63883791       4.30860220        2       0.00000000      -0.02235973      -0.00072419      -0.08915556
Ni       9.07683020       3.70821048       4.36076515        2       1.00000000       0.15039334      -0.05257752      -0.08744134
Ni       2.52969765       5.89259654       4.41081507        2       1.00000000      -0.09191302      -0.04802989      -0.03283946
Pt       5.14843823       5.89476744       4.34377540        2       0.00000000       0.02516167      -0.03549247      -0.01318743
Ni       7.76761770       5.88347504       4.36841949        2       1.00000000      -0.01067878      -0.01602089      -0.07385068
Ni      10.36964222       5.87645062       4.39219262        2       1.00000000       0.09706993      -0.02090801      -0.01597910
Pt       3.78852281       8.13559513       4.30144725        2       0.00000000      -0.05765689      -0.06239671       0.05131253
Pt       6.45928048       8.14351351       4.26335190        2       0.00000000      -0.07542075       0.11701770      -0.05471191
Pt       9.09160664       8.12053045       4.29653487        2       0.00000000      -0.01416482      -0.03872134       0.03491910
Ni      11.62350430       8.12988258       4.33584889        2       1.00000000      -0.02434195      -0.06336023      -0.10810393
Pt      -0.02057898      -0.06560751       6.58087067        1       0.00000000       0.02297975      -0.04976115       0.10742079
Pt       2.57706096      -0.04156187       6.59892271        1       0.00000000      -0.05825832      -0.00759278       0.21517381
Pt       5.19776722      -0.02747936       6.54067006        1       0.00000000       0.04157001      -0.10377394       0.05029902
Pt       7.72108413      -0.05193079       6.55829920        1       0.00000000      -0.04803213      -0.09239600       0.14931249
Pt       1.26885293       2.32165178       6.53776256        1       0.00000000       0.01366023       0.04916147       0.14364141
Pt       3.90266014       2.26842070       6.44955599        1       0.00000000       0.00217577       0.09523542      -0.25987693
Ni       6.46473197       2.22894704       6.44548273        1       1.00000000      -0.04231375      -0.02018146      -0.24176136
Pt       8.98052508       2.30140993       6.48941392        1       0.00000000      -0.04746407       0.04838384       0.00581742
Ni       2.55710865       4.50315994       6.49243073        1       1.00000000       0.00774803       0.12624902      -0.25973931
Pt       5.18252466       4.48909864       6.57292643        1       0.00000000       0.05190418       0.10680833       0.13487447
Ni       7.73843702       4.44136673       6.41710080        1       1.00000000      -0.08445784       0.00239113      -0.39336578
Ni      10.35612298       4.46693943       6.48660878        1       1.00000000       0.14343556       0.01331054      -0.24065883
Ni       3.83113519       6.61982998       6.52050200        1       1.00000000      -0.15127646      -0.06927374      -0.16256560
Ni       6.45994794       6.62933434       6.44749288        1       1.00000000       0.10787189       0.04029220      -0.29202587
Pt       9.06082097       6.53096691       6.52410520        1       0.00000000       0.02773243      -0.06695712       0.09809305
Ni      11.64553226       6.59322243       6.48806077        1       1.00000000       0.02587325      -0.11632944      -0.23879463
