64
Lattice="10.438296710523767 -0.0038320319460212896 0.10108433632208982 5.21582971824851 9.046056938705107 0.04781189908605748 0.08253501499233408 -0.00257412236985002 8.984760379299233" Properties=species:S:1:pos:R:3:tags:I:1:initial_magmoms:R:1:forces:R:3 unique_id=e5c10c1b815b4707bfffb6cf2187246a stress="0.003943257971211027 1.1665598358479858e-05 4.072270519169563e-06 1.1665598358479858e-05 0.003959402255057962 6.633811772177202e-06 4.072270519169563e-06 6.633811772177202e-06 0.003346731683550118" energy=-405.8107264549534 pbc="T T T"
Pt      -0.07084600       0.01846378       0.16354545        4       0.00000000      -0.08380260      -0.01762514      -0.07236124
Ni       2.64542636      -0.01966042       0.10449646        4       1.00000000       0.11668151      -0.06516854       0.06770533
Ni       5.24518022      -0.03495870       0.20409317        4       1.00000000       0.10849363       0.02965490       0.15567966
Ni       7.81880943      -0.04759400       0.19431747        4       1.00000000      -0.07111938      -0.11336901       0.15152672
Ni       1.30663594       2.26243461       0.17117721        4       1.00000000       0.07555396      -0.00342949       0.10868376
Pt       3.89811945       2.24586931       0.18282014        4       0.00000000       0.05072856       0.04221397      -0.04810558
Pt       6.56124084       2.18794959       0.21143372        4       0.00000000       0.06571756      -0.05566222      -0.03198829
Ni       9.14520234       2.25493988       0.24420755        4       1.00000000      -0.05336647      -0.04036174       0.13407193
Pt       2.59505874       4.55778914       0.14442079        4       0.00000000       0.07612946       0.02362813      -0.14735772
Ni       5.24997470       4.52127757       0.20442271        4       1.00000000       0.20138589      -0.08233108       0.13016070
Pt       7.91381788       4.53633530       0.14517928        4       0.00000000       0.12131623      -0.00683222      -0.13069997
Ni      10.44757793       4.54894435       0.15963311        4       1.00000000       0.07860691       0.12388146      -0.01155117
Ni       3.89789128       6.80949295       0.22524445        4       1.00000000       0.01222157       0.03082638       0.18566100
Pt       6.54804543       6.79745762       0.26939218        4       0.00000000       0.05359306       0.00101848       0.03573362
Ni       9.17428974       6.79709910       0.16332023        4       1.00000000       0.07192403       0.01500885       0.02949635
Ni      11.74412737       6.81628631       0.17739426        4       1.00000000       0.07478510       0.07825921      -0.01184577
Pt       1.34361134       0.72036257       2.22841192        3       0.00000000       0.05091916      -0.00909172       0.01328145
Pt       4.00914469       0.76559841       2.30968130        3       0.00000000       0.06417424       0.02902281       0.09331163
Ni       6.58477578       0.73560565       2.34011354        3       1.00000000       0.07511893      -0.00882417       0.03480954
Ni       9.08396614       0.73279259       2.33460710        3       1.00000000      -0.12863096       0.05107555       0.00261024
Ni       2.64545567       3.03217251       2.29540252        3       1.00000000       0.00467741       0.06168218       0.06539157
Ni       5.24303264       3.02339845       2.36155080        3       1.00000000       0.02625454       0.00804688       0.08973722
Pt       7.79516420       3.01679271       2.44117748        3       0.00000000      -0.03868653       0.04409353      -0.01376307
Pt      10.41780670       3.03120461       2.27654778        3       0.00000000      -0.04807520       0.05227179       0.01618125
Pt       4.00682887       5.26221265       2.27075621        3       0.00000000       0.05708295      -0.02163536       0.06582706
Ni       6.59152053       5.27152998       2.33756716        3       1.00000000       0.12754409      -0.01555855       0.02613633
Ni       9.11003678       5.29804998       2.37848010        3       1.00000000      -0.05067651       0.01974971       0.07684697
Pt      11.72124825       5.31339061       2.35461076        3       0.00000000      -0.01871231       0.02532932       0.00128898
Ni       5.21960817       7.52969566       2.30082982        3       1.00000000      -0.00592656      -0.00883668       0.02716978
Ni       7.86102254       7.48367570       2.33282078        3       1.00000000       0.07668171      -0.07304744       0.06386208
Pt      10.44615389       7.52381646       2.27348659        3       0.00000000      -0.01488129      -0.01603378       0.05695122
Ni      13.08198332       7.58429324       2.32801319        3       1.00000000      -0.02289832       0.03711486      -0.03918162
Pt      -0.05811271       1.56223974       4.41037428        2       0.00000000      -0.09942648       0.06533726      -0.04723864
Pt       2.69020763       1.54460462       4.45243809        2       0.00000000      -0.10875124      -0.00390113      -0.05384937
Ni       5.30437824       1.55329836       4.46546065        2       1.00000000       0.03643260       0.08130178      -0.15211242
Ni       7.83539349       1.53574745       4.50391563        2       1.00000000      -0.03496865       0.02014265      -0.08306017
Pt       1.26944469       3.80651114       4.46144412        2       0.00000000      -0.11075210       0.00278313      -0.05103513
Ni       4.00322130       3.74263713       4.46407488        2       1.00000000       0.04563226      -0.01303231      -0.10358870
Ni       6.58751565       3.74714672       4.51490772        2       1.00000000      -0.02086100      -0.01635723       0.02539457
Ni       9.11259694       3.83199374       4.56664595        2       1.00000000      -0.06209382       0.04460554      -0.07676443
Pt       2.61161442       6.05073435       4.46135838        2       0.00000000      -0.00353694       0.07245523      -0.06010526
Pt       5.33388701       5.94181764       4.44329446        2       0.00000000       0.02098729      -0.04965304       0.02519975
Ni       7.92504794       5.94561654       4.51359162        2       1.00000000       0.02533379      -0.09680676      -0.13411117
Ni      10.41654910       5.99912084       4.60949948        2       1.00000000      -0.05101533      -0.02565660      -0.04363334
Pt       3.92436484       8.31688841       4.40266617        2       0.00000000      -0.01533418      -0.04418504      -0.08328611
Pt       6.59239501       8.24077352       4.46373091        2       0.00000000      -0.00186074      -0.00576674      -0.07449868
Pt       9.17460123       8.19900033       4.58182536        2       0.00000000      -0.03296798      -0.02457570       0.01805680
Pt      11.76727714       8.35539521       4.54474961        2       0.00000000      -0.03147722       0.06027859      -0.02398542
Pt       0.04364433      -0.00279269       6.63852021        1       0.00000000      -0.05756175       0.01467752      -0.03336080
Ni       2.68012254      -0.02440609       6.70551160        1       1.00000000      -0.02630045      -0.00725975      -0.08676289
Pt       5.26660264      -0.11298568       6.79717903        1       0.00000000      -0.07827847      -0.12823741       0.15342360
Ni       7.86002917      -0.00707218       6.74501872        1       1.00000000      -0.04314770       0.01954931      -0.09577495
Pt       1.34001530       2.26063386       6.75409989        1       0.00000000      -0.04941782       0.01017146       0.10378712
Pt       3.97870671       2.22124183       6.62638349        1       0.00000000       0.01703498      -0.01477213      -0.01205702
Pt       6.60197726       2.22664260       6.60680083        1       0.00000000      -0.06792405      -0.07459650      -0.04380480
Pt       9.16060342       2.34101312       6.78693992        1       0.00000000      -0.02779642       0.09372946       0.10970604
Pt       2.59027350       4.55198494       6.63510556        1       0.00000000      -0.03711639      -0.01131580      -0.02423192
Pt       5.31541256       4.51995803       6.72444718        1       0.00000000      -0.02939836      -0.00049382       0.09538199
Ni       7.93168439       4.54374433       6.63354057        1       1.00000000      -0.00714352       0.02990791      -0.19700156
Ni      10.43329348       4.58588824       6.75124593        1       1.00000000      -0.12931095       0.09679360      -0.12298369
Pt       3.89421285       6.82690359       6.77881358        1       0.00000000      -0.09106653       0.02314338       0.15296331
Pt       6.70793288       6.76465527       6.69639182        1       0.00000000       0.07248678       0.00944432       0.02510645
Ni       9.22232619       6.72130021       6.74545733        1       1.00000000       0.05409876      -0.18018867      -0.09372836
Ni      11.74406321       6.76889332       6.78441813        1       1.00000000      -0.10731275      -0.08259339      -0.13731477
