64
Lattice="10.15555090837842 -0.02482785059492419 -0.010299900520683664 5.056273904852698 8.761161251334295 -0.010293332607108243 -0.008409833559034139 -0.004849227380844882 8.698317382185829" Properties=species:S:1:pos:R:3:tags:I:1:initial_magmoms:R:1:forces:R:3 unique_id=1b13f1b65d2e40788e7e16cb8c350119 stress="-0.0010068292792058675 1.3861611306374683e-06 -9.303857175380298e-06 1.3861611306374683e-06 -0.0010065325958266216 -8.012342553694788e-06 -9.303857175380298e-06 -8.012342553694788e-06 -0.0008633099506581421" energy=-390.8546855177374 pbc="T T T"
Ni       0.03240591      -0.00567736       0.14784635        4       1.00000000       0.12854102       0.10865927       0.22688690
Ni       2.52505151      -0.03474257       0.18442701        4       1.00000000      -0.01427149      -0.06555379       0.23649471
Ni       5.08768971      -0.02588046       0.08137011        4       1.00000000      -0.03151798      -0.03091458       0.07071244
Ni       7.57912939      -0.03081333       0.15972902        4       1.00000000      -0.05983984       0.06568903       0.31340296
Ni       1.26515572       2.20553072       0.10844534        4       1.00000000       0.00339556       0.07930288       0.21571729
Pt       3.79310360       2.18927282       0.18149940        4       0.00000000      -0.03950414      -0.01329506       0.29909354
Ni       6.33407275       2.18555100       0.09679870        4       1.00000000      -0.02552601       0.07936611       0.21792518
Pt       8.88189268       2.24044120       0.00575312        4       0.00000000       0.02334503       0.05445615      -0.18434186
Ni       2.50196631       4.40587707       0.09417287        4       1.00000000      -0.06244963       0.03529434       0.16208266
Ni       5.06430896       4.39198947       0.06055420        4       1.00000000      -0.05038080       0.01302282       0.06994814
Ni       7.60346931       4.39085302       0.05643980        4       1.00000000       0.04611859       0.08790042       0.00847033
Ni      10.16980678       4.39682579       0.08576020        4       1.00000000       0.05934216       0.15252764       0.13583461
Ni       3.79141841       6.53502148       0.04147246        4       1.00000000       0.01719791      -0.11009215      -0.00345852
Ni       6.34737726       6.56112219       0.03716789        4       1.00000000       0.07151664       0.01485888      -0.11114212
Ni       8.84568079       6.53877833       0.13531971        4       1.00000000      -0.12725171      -0.06083715       0.20444824
Ni      11.39454211       6.52487349       0.03139537        4       1.00000000      -0.09368704      -0.04869556      -0.06010853
Ni       1.33050917       0.76955158       2.19191017        3       1.00000000       0.06548200       0.12159030       0.09374208
Ni       3.75922943       0.71309548       2.19621287        3       1.00000000      -0.14147485      -0.01545744       0.00714887
Ni       6.30635584       0.75052985       2.13425602        3       1.00000000      -0.03814536       0.01666244      -0.05602722
Pt       8.92024101       0.77478273       2.16737869        3       0.00000000       0.11496354       0.16138499      -0.13631080
Ni       2.50850976       2.92867727       2.20936407        3       1.00000000       0.03683404       0.00722436       0.05485031
Ni       5.06309709       2.90976587       2.19385416        3       1.00000000      -0.06390893       0.02100562       0.02327543
Ni       7.60849541       2.92187609       2.16666179        3       1.00000000       0.09495437      -0.03532077       0.00146739
Ni      10.18081055       2.94591130       2.17402025        3       1.00000000      -0.00610365       0.03131109      -0.03039523
Ni       3.77044589       5.03877335       2.17484560        3       1.00000000       0.01161944      -0.14878490       0.01685655
Pt       6.37866070       5.06529373       2.12686699        3       0.00000000       0.06542460       0.01329195      -0.03120337
Ni       8.89687519       5.05643939       2.17594728        3       1.00000000       0.08166510      -0.13041050       0.07069728
Ni      11.39693686       5.03452833       2.14630818        3       1.00000000      -0.03954963      -0.04531091      -0.03794630
Pt       5.13080018       7.28667859       2.14512587        3       0.00000000       0.02635468      -0.06980367      -0.01522210
Ni       7.60737719       7.31640797       2.18262385        3       1.00000000      -0.01877365      -0.01333913       0.11071815
Pt      10.06562440       7.27612145       2.18332327        3       0.00000000       0.00949366      -0.04280078       0.00067578
Pt      12.63895240       7.19886363       2.13570581        3       0.00000000      -0.00225504      -0.15929002       0.01510235
Ni       0.04499182       1.47311406       4.32831724        2       1.00000000       0.09832029      -0.06664436      -0.06695314
Ni       2.48839741       1.43748525       4.26792124        2       1.00000000      -0.00729056      -0.03005715      -0.06873931
Pt       5.01524188       1.39013088       4.24448933        2       0.00000000      -0.17182471      -0.00762651       0.07979987
Pt       7.63640643       1.48147597       4.32294814        2       0.00000000      -0.01218060      -0.05849322       0.04153688
Pt       1.25555232       3.66163470       4.31434579        2       0.00000000       0.00568079      -0.01523931      -0.00855189
Ni       3.77400823       3.70226463       4.28288497        2       1.00000000      -0.01634300       0.06838888      -0.15441209
Pt       6.32299338       3.71343506       4.37345064        2       0.00000000      -0.01899123       0.02208051       0.04267184
Ni       8.89772629       3.68960648       4.31548430        2       1.00000000      -0.01193725       0.18772398      -0.15818478
Ni       2.51283621       5.80908489       4.35204292        2       1.00000000      -0.01849642      -0.06019839      -0.06862698
Ni       5.05314325       5.82345085       4.36159950        2       1.00000000       0.00206587       0.00523266      -0.07771745
Ni       7.61864615       5.86120427       4.30724334        2       1.00000000       0.06486375       0.05580938      -0.14190257
Ni      10.13633787       5.81796337       4.30497583        2       1.00000000      -0.00347300      -0.05309914      -0.10724131
Pt       3.80203975       7.94933767       4.33465255        2       0.00000000      -0.01816398       0.04962314       0.20568162
Ni       6.37666712       8.00997565       4.28887027        2       1.00000000       0.08202551      -0.01048829      -0.03919063
Ni       8.83691619       7.98057996       4.28952283        2       1.00000000      -0.09642443      -0.09905567      -0.02005274
Ni      11.35922332       7.94871124       4.32891119        2       1.00000000      -0.04881273      -0.12234846       0.00886668
Pt      -0.00097204       0.00919178       6.49117990        1       0.00000000      -0.01347040      -0.01307125       0.06121836
Pt       2.56006272      -0.01703101       6.43556801        1       0.00000000       0.00885289       0.00839685       0.10223309
Ni       5.07690322      -0.02904402       6.43749475        1       1.00000000      -0.07474917      -0.01670296      -0.17844345
Pt       7.52980779      -0.05193111       6.51536192        1       0.00000000      -0.10398548      -0.07215952       0.18038369
Ni       1.23329445       2.23556414       6.44245055        1       1.00000000       0.00088903       0.05094191      -0.05559899
Pt       3.79780458       2.28129870       6.39373345        1       0.00000000       0.01304982       0.20258984      -0.32369936
Ni       6.34955484       2.21158506       6.46939540        1       1.00000000       0.00105413       0.06877943       0.02465877
Ni       8.89739986       2.23775356       6.34066134        1       1.00000000       0.10456353       0.14123250      -0.44123326
Ni       2.51122376       4.43292495       6.44373867        1       1.00000000      -0.04385641       0.12790838      -0.05129766
Ni       5.06490540       4.43287458       6.44758176        1       1.00000000      -0.02882851       0.18354501      -0.02778604
Ni       7.60127910       4.34982002       6.44865896        1       1.00000000       0.04837621      -0.05152273      -0.06548716
Ni      10.15689128       4.33478809       6.43443029        1       1.00000000       0.07468513      -0.08792026      -0.04735077
Ni       3.78854142       6.49148479       6.44050877        1       1.00000000       0.00385095      -0.11037409      -0.11355887
Ni       6.30498560       6.50270229       6.41411052        1       1.00000000       0.04016864      -0.04249032      -0.27371804
Pt       8.90408567       6.47661465       6.42847542        1       0.00000000       0.06152550      -0.13457326       0.09796568
Ni      11.42016759       6.49589433       6.41064004        1       1.00000000       0.03724726      -0.19382943      -0.24466514
