64
Lattice="10.395075252386825 0.008252883948905668 0.011535982841019091 5.20468483334765 8.946798744264209 -0.006781215331322757 0.009419090547332995 -0.01183150559031015 8.860856338434022" Properties=species:S:1:pos:R:3:tags:I:1:initial_magmoms:R:1:forces:R:3 unique_id=6bc1b9a28c684af3805b6926016e7b19 stress="0.0003469757617435912 2.3306122594656334e-06 -1.8915481869629574e-05 2.3306122594656334e-06 0.00034591244306217406 4.4748988043600225e-06 -1.8915481869629574e-05 4.4748988043600225e-06 0.0003275073224081951" energy=-401.0590857129898 pbc="T T T"
Ni      -0.01541627       0.02076376       0.19665325        4       1.00000000      -0.06739618       0.10118343       0.31291913
Ni       2.60047678       0.00385501       0.20562665        4       1.00000000       0.02876160      -0.00849948       0.39228349
Ni       5.19805104      -0.01540895       0.16601570        4       1.00000000      -0.04725303       0.09920991       0.23886620
Ni       7.82184259      -0.03224171       0.11581224        4       1.00000000       0.09311776      -0.12594818       0.21948938
Ni       1.29362477       2.22562115       0.16851148        4       1.00000000       0.00494660      -0.11378826       0.26123741
Pt       3.84134392       2.23759669       0.19330705        4       0.00000000      -0.07185320       0.03317075       0.12086917
Pt       6.50464508       2.16559923       0.15510678        4       0.00000000       0.05647912      -0.10131222       0.20159277
Ni       9.12545464       2.20779230       0.14419175        4       1.00000000       0.02208919      -0.17774271       0.10791713
Ni       2.59029398       4.48891443       0.06247219        4       1.00000000      -0.02564423       0.02717439       0.00422880
Ni       5.19489517       4.47917363       0.15847236        4       1.00000000       0.17153226      -0.09223795       0.25938261
Pt       7.87400302       4.50597948       0.07116174        4       0.00000000       0.13304508      -0.02688036      -0.12554516
Ni      10.42888365       4.49231864       0.05990239        4       1.00000000       0.10568997       0.01590697       0.00760511
Ni       3.87613603       6.73499059       0.16662274        4       1.00000000      -0.04690738       0.15542296       0.22890758
Pt       6.48430267       6.77003987       0.20050617        4       0.00000000      -0.05126171       0.05995825       0.10568071
Ni       9.12815519       6.73008464       0.07774267        4       1.00000000       0.00390914       0.04967924       0.02000948
Ni      11.71502441       6.72523699       0.06339641        4       1.00000000       0.10996271       0.07992515      -0.04068540
Ni       1.30367312       0.71973627       2.17676138        3       1.00000000      -0.00442110      -0.07368585      -0.11471684
Ni       3.89594585       0.74929614       2.22685017        3       1.00000000       0.06474131       0.00395430       0.02220728
Ni       6.50481796       0.72746958       2.25392354        3       1.00000000       0.04436123      -0.01807704       0.10682330
Ni       9.09777683       0.71141099       2.20477764        3       1.00000000      -0.05037931      -0.04814665      -0.09278149
Ni       2.60696974       2.97205096       2.22734285        3       1.00000000      -0.01565636       0.12185450      -0.01256097
Ni       5.18282252       2.95952582       2.26231577        3       1.00000000      -0.02840974      -0.14439567       0.09865067
Pt       7.81633219       2.95238224       2.28134884        3       0.00000000       0.03288231      -0.07365038      -0.16644949
Pt      10.41633876       2.92200780       2.20964587        3       0.00000000       0.05777225      -0.01331620       0.08621872
Pt       3.92346377       5.20338863       2.17321044        3       0.00000000      -0.03643951      -0.05348218      -0.01191007
Ni       6.52762406       5.22972153       2.23390515        3       1.00000000       0.14390376       0.01639056      -0.00363514
Ni       9.08266701       5.24460714       2.26058034        3       1.00000000      -0.01883332       0.01649537       0.14463402
Pt      11.69936810       5.24373783       2.18225741        3       0.00000000      -0.06332465       0.04081394      -0.05729694
Ni       5.18720967       7.49575184       2.19593060        3       1.00000000      -0.13042965       0.06854023      -0.08755140
Ni       7.80716336       7.45729749       2.21833661        3       1.00000000       0.04706294      -0.07084424       0.00110868
Pt      10.37621107       7.48136659       2.13870175        3       0.00000000      -0.01502593      -0.06430290      -0.02862224
Ni      13.01929105       7.49654590       2.18683666        3       1.00000000      -0.03509926       0.05383624      -0.11357455
Ni      -0.02301397       1.51528403       4.37765696        2       1.00000000      -0.01314677       0.11500523      -0.07052903
Pt       2.62394707       1.52918089       4.27225869        2       0.00000000      -0.00982752       0.07392444      -0.02850683
Ni       5.21710339       1.49500041       4.35303192        2       1.00000000       0.01332087      -0.04039747      -0.23203429
Ni       7.82220154       1.49197674       4.38157209        2       1.00000000       0.03056033       0.01626619      -0.12417898
Pt       1.28073601       3.80135459       4.42529439        2       0.00000000       0.00330950       0.01226349       0.03115526
Ni       3.90076221       3.73244391       4.37426910        2       1.00000000      -0.01518319       0.01821880      -0.14779810
Pt       6.52718380       3.71666112       4.36085275        2       0.00000000      -0.09645841      -0.01503765       0.08683691
Ni       9.11117156       3.75957124       4.41955838        2       1.00000000       0.05909998       0.11144711      -0.14349771
Ni       2.58336751       5.94613758       4.41509332        2       1.00000000      -0.02112908       0.06427069      -0.12428237
Pt       5.18451260       5.94138123       4.32808360        2       0.00000000      -0.01575715       0.09838942       0.05519673
Ni       7.86736030       5.91749227       4.37949118        2       1.00000000       0.09112311      -0.09064681      -0.21875176
Ni      10.37763009       5.94218020       4.44817347        2       1.00000000      -0.07450414       0.02803889      -0.09290539
Pt       3.88181530       8.24957821       4.30333954        2       0.00000000       0.01486874       0.05545195      -0.06698391
Pt       6.50462757       8.20938875       4.27479815        2       0.00000000       0.00915920       0.04168291      -0.01109997
Pt       9.11526983       8.13373850       4.36280221        2       0.00000000      -0.05655513       0.01007747       0.06993715
Pt      11.72584191       8.18974666       4.37584351        2       0.00000000      -0.03300493      -0.03188796      -0.06743866
Pt      -0.04245206      -0.00399396       6.62881332        1       0.00000000      -0.03195663      -0.00776209       0.17603342
Pt       2.62804286      -0.03428770       6.65414335        1       0.00000000      -0.01158039      -0.01686150       0.20033378
Pt       5.25662859      -0.10776942       6.64233207        1       0.00000000       0.03979811      -0.29452280       0.14004123
Ni       7.79203952      -0.01211079       6.59078068        1       1.00000000       0.02646186       0.02028840      -0.14424231
Pt       1.28588575       2.31390635       6.63347961        1       0.00000000       0.01196311       0.10812133       0.16652044
Pt       3.89826598       2.25757223       6.51186387        1       0.00000000      -0.02100762      -0.05667233      -0.23552018
Pt       6.53771267       2.19137409       6.50800556        1       0.00000000      -0.00740038      -0.06470465      -0.27439883
Pt       9.09272378       2.30690953       6.55900001        1       0.00000000       0.02463657       0.13741099      -0.00816411
Ni       2.56047732       4.50233960       6.56776555        1       1.00000000      -0.12860187       0.07978347      -0.16687617
Pt       5.18785911       4.47239998       6.61466010        1       0.00000000      -0.06379743       0.03008620       0.09295369
Ni       7.86301563       4.49005873       6.48486807        1       1.00000000       0.12689422       0.06184792      -0.31806205
Ni      10.38727504       4.54494593       6.56885058        1       1.00000000      -0.07722612       0.19927652      -0.16944351
Pt       3.77397139       6.69536511       6.61864167        1       0.00000000      -0.16196419       0.06056477       0.15312641
Pt       6.58233494       6.64824452       6.53067210        1       0.00000000       0.07595122       0.00605667      -0.17232860
Ni       9.14930630       6.63160774       6.56669697        1       1.00000000       0.07471913      -0.19473225      -0.20481755
Ni      11.67604432       6.65018714       6.57662232        1       1.00000000      -0.17468764      -0.27245325      -0.23557668
