64
Lattice="10.181084567662207 0.016856805864121378 -0.022888483531041143 5.105140705936095 8.788654796725945 -0.03866028355523736 -0.01868836854571558 -0.02565953027542033 8.688061954485564" Properties=species:S:1:pos:R:3:tags:I:1:initial_magmoms:R:1:forces:R:3 unique_id=f8c1ee95146f42ab8ad8c8cb7a30dfbb stress="-0.006710508430995514 4.149854351003311e-06 1.5874835330523577e-05 4.149854351003311e-06 -0.0066717052781122485 -3.6722317340076117e-06 1.5874835330523577e-05 -3.6722317340076117e-06 -0.005710216457342092" energy=-391.97306116626623 pbc="T T T"
Ni       0.02666985      -0.04732173       0.19396943        4       1.00000000       0.03870026      -0.06850366       0.13895837
Ni       2.49717161       0.00753556       0.15299270        4       1.00000000      -0.04781852       0.08345573      -0.05597485
Pt       5.10977249      -0.05291282       0.20341127        4       0.00000000      -0.05788086      -0.05251850      -0.06934249
Ni       7.64567695      -0.03809891       0.15089091        4       1.00000000       0.00468284      -0.09747784       0.00726222
Ni       1.26664581       2.21805928       0.12186169        4       1.00000000      -0.03792739       0.09505919       0.10782619
Pt       3.78374726       2.26805686       0.18524849        4       0.00000000      -0.05031901       0.05348932      -0.10506646
Ni       6.36732875       2.24693535       0.11013001        4       1.00000000      -0.02500449       0.05377143       0.11798285
Pt       8.91028242       2.26305271       0.13582950        4       0.00000000      -0.02195566       0.05497345      -0.14996020
Ni       2.52280078       4.43597844       0.10035630        4       1.00000000      -0.04613351       0.05447097       0.04533004
Ni       5.11473095       4.44239245       0.08813761        4       1.00000000      -0.02412574       0.04738900      -0.00591764
Ni       7.61030947       4.43856450       0.09267980        4       1.00000000      -0.03584212       0.05740841       0.10298369
Ni      10.21715526       4.43856583       0.08980181        4       1.00000000       0.03564414       0.02388150       0.03091428
Ni       3.83132148       6.56857967       0.09410668        4       1.00000000      -0.01341080      -0.01844753       0.03684145
Ni       6.33690059       6.56864572       0.05568373        4       1.00000000      -0.08687417      -0.01737237      -0.04978505
Ni       8.92474626       6.53291492       0.16333881        4       1.00000000       0.08961006      -0.10571972       0.15776244
Ni      11.48543365       6.55303234       0.18186822        4       1.00000000      -0.00425651      -0.03463866       0.18007513
Ni       1.29418666       0.76942387       2.15776507        3       1.00000000      -0.01339912       0.09897843       0.01543002
Ni       3.77158777       0.74131022       2.19415166        3       1.00000000      -0.09467535       0.01665835      -0.01674084
Ni       6.37462761       0.73561310       2.18097978        3       1.00000000       0.02735569       0.00486684      -0.00021259
Pt       8.88199252       0.67698783       2.18573050        3       0.00000000       0.04086687      -0.03980422       0.09115558
Ni       2.50884648       2.96175097       2.23028970        3       1.00000000      -0.02513632       0.08226560       0.06357877
Ni       5.10285168       2.98153860       2.14989128        3       1.00000000       0.01046901       0.08118377      -0.01789201
Ni       7.61308228       2.97337790       2.17648710        3       1.00000000       0.01341589       0.02545152       0.05797768
Ni      10.22514481       2.99936606       2.16762114        3       1.00000000       0.03069478       0.03243476       0.02833576
Ni       3.83058362       5.10944095       2.11626225        3       1.00000000      -0.01113135      -0.05087118      -0.06390988
Ni       6.33425757       5.11204798       2.10260847        3       1.00000000      -0.01460626       0.03273660       0.00662804
Ni       8.95032020       5.09008712       2.13180418        3       1.00000000       0.00771219      -0.05214341       0.04390492
Ni      11.44454894       5.11433763       2.12585078        3       1.00000000      -0.01459838      -0.07207284       0.07599244
Ni       5.07653043       7.25717339       2.15339494        3       1.00000000      -0.05904872      -0.12114290       0.06485983
Pt       7.62503208       7.33812589       2.10778817        3       0.00000000      -0.07314828      -0.00283354       0.00220108
Ni      10.22298053       7.27326691       2.20570907        3       1.00000000      -0.00739114      -0.08131579       0.13835789
Ni      12.72000005       7.28620459       2.11538928        3       1.00000000       0.03468854      -0.05940159       0.01569536
Pt       0.06045296       1.48243530       4.26563413        2       0.00000000       0.04412668      -0.01194847       0.00582928
Ni       2.53794684       1.47459188       4.23834734        2       1.00000000       0.02883777       0.01601227      -0.11640974
Pt       5.06653521       1.43177041       4.17098399        2       0.00000000       0.02870865      -0.01151612      -0.14085185
Ni       7.62387336       1.44851183       4.25930715        2       1.00000000      -0.00451671      -0.01450201      -0.08314401
Ni       1.28017696       3.66547398       4.29277806        2       1.00000000       0.04506948       0.03600425      -0.05984641
Ni       3.79041073       3.67685538       4.22732338        2       1.00000000       0.02869688       0.02077367      -0.20188106
Pt       6.34719934       3.66121675       4.27839202        2       0.00000000      -0.00687605       0.00415151      -0.05619208
Ni       8.95243322       3.70546253       4.21574311        2       1.00000000       0.06490784       0.03940208      -0.17667256
Pt       2.57094962       5.82318066       4.20950640        2       0.00000000       0.00795723       0.01215699       0.00424302
Ni       5.07860429       5.87656700       4.27386390        2       1.00000000       0.01834124       0.00355956      -0.15385101
Pt       7.63951103       5.86483953       4.24588539        2       0.00000000       0.04666195       0.01103940       0.00266152
Ni      10.19665883       5.83373039       4.22110724        2       1.00000000       0.03941858      -0.00744893      -0.01793413
Ni       3.83477816       8.00678189       4.25352948        2       1.00000000       0.03991596      -0.02921907      -0.00270500
Ni       6.34470086       8.03413338       4.23015197        2       1.00000000      -0.04576553       0.02065879      -0.09286959
Ni       8.91896656       8.03848084       4.21956286        2       1.00000000       0.00556563      -0.04992506      -0.06257621
Ni      11.46842300       8.02444044       4.18217607        2       1.00000000       0.04617245      -0.02745896      -0.07962625
Pt      -0.00692650      -0.09244076       6.47468265        1       0.00000000      -0.04404814      -0.02828441       0.16539631
Pt       2.50574259      -0.00190691       6.40753560        1       0.00000000       0.05684061       0.01366472      -0.07112947
Pt       5.08786765       0.00310451       6.35606335        1       0.00000000      -0.03074691      -0.09205910       0.06916466
Pt       7.63608585      -0.00370995       6.40162064        1       0.00000000       0.03498347       0.02372620       0.00318045
Ni       1.26377967       2.24513176       6.41809430        1       1.00000000       0.04244277       0.04833254       0.00016847
Pt       3.79714124       2.31517670       6.34518530        1       0.00000000       0.02474339       0.02724105       0.01303258
Ni       6.34730369       2.24854827       6.41865140        1       1.00000000      -0.03203414       0.03319684       0.01245411
Pt       8.88350257       2.31023537       6.32414923        1       0.00000000      -0.06535980       0.06862805       0.04354454
Ni       2.54909134       4.37624507       6.40504104        1       1.00000000       0.06017245       0.00006801      -0.08240025
Ni       5.09454527       4.44375214       6.41332739        1       1.00000000      -0.03173653       0.06189411      -0.05622559
Ni       7.56287286       4.39072920       6.42648370        1       1.00000000      -0.14672961      -0.01096409       0.03923774
Ni      10.21894472       4.35808221       6.37267139        1       1.00000000       0.09948477      -0.02527740      -0.13417202
Ni       3.86197699       6.49671832       6.40040511        1       1.00000000       0.03160528      -0.06600945      -0.06819639
Ni       6.32102523       6.51369028       6.39620005        1       1.00000000      -0.01328167      -0.01409609      -0.11074687
Pt       8.87685110       6.47012164       6.46566646        1       0.00000000       0.02950967      -0.06898513       0.20693370
Pt      11.50275651       6.48508569       6.44957492        1       0.00000000       0.02777578      -0.00702690       0.20633209
