64
Lattice="10.328334421643877 -0.011563601850640771 0.004523654869290694 5.154152837860036 8.89440899636903 -0.004902065140103676 0.0 0.0 21.55033050735866" Properties=species:S:1:pos:R:3:tags:I:1:initial_magmoms:R:1:forces:R:3 unique_id=e7c1b38c2d694774bba255a722d1d449 energy=-375.6837514245262 stress="0.005610528508246537 -2.4964954509421183e-06 0.00029089258483661697 -2.4964954509421183e-06 0.005866932239239264 0.00015373295472348203 0.00029089258483661697 0.00015373295472348203 -0.0018415472976989096" pbc="T T T"
Ni      -0.02150413       0.03231381       0.14929584        1       1.00000000      -0.03099803       0.07029105       0.01549540
Ni       2.57739882       0.00352283       0.15516875        2       1.00000000      -0.05555784       0.04574151      -0.07042774
Ni       5.16205707      -0.01585508       0.10593817        1       1.00000000       0.02334807       0.19746257      -0.35161718
Ni       7.77218054      -0.04049229       0.06039066        1       1.00000000       0.03696228      -0.01309713       0.42606560
Ni       1.25095302       2.22486245       0.13265119        1       1.00000000      -0.09883702       0.01534483       0.10324501
Pt       3.80771741       2.22375944       0.05541112        1       0.00000000      -0.00577244      -0.02415443      -0.05380965
Pt       6.48511378       2.16046158       0.14003615        1       0.00000000       0.07203431      -0.07348647      -0.48338494
Ni       9.07434816       2.19035475       0.12361905        1       1.00000000       0.05153506      -0.03905933       0.17942478
Ni       2.55551025       4.45885641       0.00000000        0       1.00000000      -0.07421603      -0.02390372       0.14101128
Ni       5.15305190       4.44626095       0.09917615        1       1.00000000       0.18319274      -0.08156843      -0.31730660
Pt       7.81821969       4.44896981       0.05189740        1       0.00000000       0.02541583      -0.06767897       0.01132037
Ni      10.34603177       4.43136399       0.01695739        0       1.00000000       0.02295758      -0.12280133       0.22842069
Ni       3.83156769       6.70201533       0.11333484        1       1.00000000      -0.04094043       0.18224714      -0.18962313
Pt       6.42621873       6.72023184       0.14026072        1       0.00000000      -0.06670240       0.05132562      -0.60463907
Ni       9.05141665       6.67672527       0.01830254        0       1.00000000      -0.07539587      -0.00618583       0.13284743
Ni      11.62705910       6.66846445       0.00370706        0       1.00000000       0.13688066       0.02427918       0.21048702
Ni       1.26676980       0.76346295       2.10512002        3       1.00000000      -0.11475064       0.11375407       0.04577121
Ni       3.86329307       0.75858785       2.14390043        3       1.00000000       0.02245382       0.06710257       0.18346516
Ni       6.48692945       0.74171328       2.18482461        4       1.00000000       0.14428725       0.08383569       0.21539313
Ni       9.03954700       0.75757785       2.12852987        3       1.00000000      -0.02627250       0.13968933       0.06252972
Ni       2.55827954       2.93959088       2.14404757        3       1.00000000      -0.08636575      -0.03178321       0.08611323
Ni       5.15623797       2.93195798       2.17959620        4       1.00000000      -0.08591504      -0.14143251       0.21467987
Ni       7.79668495       2.93645943       2.17957664        4       1.00000000       0.26911586      -0.09337604       0.13224224
Ni      10.30248330       2.91117907       2.15542206        4       1.00000000      -0.06064042      -0.10765308       0.14665963
Pt       3.87703154       5.16221530       2.09962392        3       0.00000000      -0.01951231      -0.09077661       0.03657667
Ni       6.48851663       5.16985020       2.15807078        4       1.00000000       0.12490400      -0.05231710       0.14463836
Ni       9.00873155       5.15452347       2.17748456        4       1.00000000      -0.07393408      -0.14115764       0.22634714
Pt      11.59022921       5.10980481       2.11459711        3       0.00000000      -0.09522107      -0.12627637      -0.00172420
Ni       5.13459125       7.45795570       2.12178223        3       1.00000000      -0.10828577       0.12864606       0.04339264
Ni       7.74020642       7.41007418       2.14408959        3       1.00000000       0.04908889      -0.03652274       0.09266418
Pt      10.30487415       7.42021139       2.05390795        3       0.00000000       0.01295266      -0.10334476      -0.08243406
Ni      12.91608140       7.43487860       2.10464365        3       1.00000000      -0.03450984       0.08478346      -0.04642207
Ni      -0.01922488       1.55005504       4.25542105        6       1.00000000       0.01417144       0.18373198      -0.32592939
Pt       2.59433136       1.58189171       4.21922451        5       0.00000000      -0.04584425       0.02816405      -0.07063511
Ni       5.15985294       1.50113981       4.26732470        6       1.00000000      -0.01560016       0.07388660      -0.35143865
Ni       7.77485352       1.49282798       4.25615154        6       1.00000000       0.12342347       0.03804527      -0.37055164
Ni       1.28574637       3.71051584       4.30027831        6       1.00000000      -0.03367263      -0.07867059      -0.19336564
Ni       3.84567998       3.70288164       4.30473034        6       1.00000000       0.01811826       0.06642956      -0.15841365
Pt       6.51174777       3.66191955       4.19899691        5       0.00000000       0.02830096      -0.06225731      -0.09382989
Ni       9.05089784       3.66744265       4.27686914        6       1.00000000       0.08624192      -0.16801087      -0.34158748
Ni       2.55393274       5.87344138       4.31946285        6       1.00000000       0.01852626      -0.12821657      -0.14320737
Pt       5.13931345       5.89101726       4.24299104        5       0.00000000      -0.01771473       0.03617086      -0.10802398
Ni       7.77271125       5.87659132       4.27577113        6       1.00000000       0.00567640      -0.06194119      -0.33389994
Pt      10.31331817       5.82130259       4.37244748        7       0.00000000       0.00015856       0.00357707      -0.07127059
Pt       3.84712316       8.21347785       4.20840904        5       0.00000000       0.01470414       0.16421345      -0.07457932
Pt       6.44129308       8.18517236       4.18544403        5       0.00000000      -0.04411003       0.20213089      -0.13720109
Pt       9.02519050       8.13329063       4.25749342        6       0.00000000      -0.09539914       0.02541169      -0.05989715
Pt      11.64061827       8.17025760       4.28242516        6       0.00000000       0.06882388       0.02919234      -0.05516169
Pt      -0.03241593       0.00841514       6.52663496        9       0.00000000       0.15267240       0.11100052       0.21117216
Pt       2.62133846       0.01064672       6.55033051       10       0.00000000      -0.03447970       0.03919431       0.37625512
Pt       5.20922597      -0.08073871       6.53419249        9       0.00000000      -0.03585650      -0.00328591       0.43913839
Ni       7.73996981      -0.02229130       6.48521780        9       1.00000000       0.00128450       0.04547308      -0.07620987
Pt       1.32085774       2.33600345       6.49295754        9       0.00000000      -0.13645500      -0.07376242      -0.01876252
Ni       3.86933431       2.23120059       6.39026509        8       1.00000000       0.07398921      -0.11275450       0.09831493
Pt       6.45851881       2.18020655       6.40226713        8       0.00000000      -0.03358509      -0.06648982       0.53981537
Pt       9.03248499       2.28253057       6.44778519        8       0.00000000       0.07256935       0.08736711      -0.02882333
Ni       2.54123280       4.45963673       6.44185199        8       1.00000000      -0.06899701       0.11704621      -0.23203032
Pt       5.09512318       4.38446547       6.49517500        9       0.00000000      -0.08477545      -0.00154414       0.25795051
Ni       7.79196941       4.45279142       6.38273082        8       1.00000000       0.04549178       0.03598556      -0.02640472
Ni      10.32885334       4.47656467       6.47544097        9       1.00000000      -0.01521191      -0.03584547      -0.10947841
Pt       3.74104403       6.65076793       6.51371442        9       0.00000000       0.08896112      -0.09745818       0.10130307
Pt       6.52282625       6.60003992       6.42672679        8       0.00000000      -0.04644439      -0.06258799       0.62109119
Ni       9.06674817       6.60110819       6.47499654        9       1.00000000      -0.07008778      -0.02431862      -0.04462890
Ni      11.59262620       6.60739404       6.47957773        9       1.00000000      -0.05618139      -0.13780435      -0.09711219
