64
Lattice="10.267618392786755 -0.01866448377327346 0.03870889718891361 5.1176452792971965 8.808595931489439 -0.011842107454880608 0.0 0.0 21.532419745041256" Properties=species:S:1:pos:R:3:tags:I:1:initial_magmoms:R:1:forces:R:3 unique_id=0d5009991bf24ea5af918014e1419837 stress="0.005740288944954384 3.051460276601907e-05 0.0002645061422996227 3.051460276601907e-05 0.005153684161118981 -9.509329877653483e-06 0.0002645061422996227 -9.509329877653483e-06 -0.0012121647905110854" energy=-373.3313973086887 pbc="T T T"
Ni       0.02016329      -0.01427499       0.11756317        1       1.00000000       0.10015861      -0.03172464      -0.10883271
Ni       2.53501375      -0.00391743       0.15666827        2       1.00000000      -0.04231718       0.00481700      -0.11523088
Pt       5.13566702      -0.04536570       0.10033134        1       0.00000000      -0.04131458       0.18984775      -0.97639546
Ni       7.72767990      -0.06577250       0.15224035        2       1.00000000      -0.04294035      -0.02537026      -0.25595107
Ni       1.28296740       2.20906049       0.04468980        0       1.00000000      -0.02256637       0.06960557       0.35206316
Pt       3.77479601       2.25374738       0.13183545        1       0.00000000       0.07276325      -0.01528926      -0.49006423
Pt       6.43266391       2.25825211       0.06611505        1       0.00000000       0.02703712      -0.02701560      -0.02262092
Pt       9.05459487       2.23600133       0.09059835        1       0.00000000       0.01488945       0.12469179      -0.47955751
Ni       2.55286013       4.43821389       0.00000000        0       1.00000000       0.05872614       0.02966736       0.29251664
Ni       5.10492394       4.43381885       0.04955049        0       1.00000000      -0.12247711       0.10860017       0.35762309
Ni       7.71771660       4.42610600       0.06299531        1       1.00000000       0.11284666       0.06887080       0.32875722
Ni      10.28372598       4.41955025       0.03970686        0       1.00000000       0.02389246       0.06565485       0.33152116
Ni       3.81134821       6.59220768       0.03633265        0       1.00000000       0.04725461      -0.03768444       0.40357918
Pt       6.39694446       6.58777631       0.11921971        1       0.00000000      -0.05186914       0.06073806      -0.30715093
Ni       8.96889234       6.54363775       0.11165017        1       1.00000000      -0.10846676      -0.09894367      -0.21404408
Ni      11.57958573       6.55292256       0.03151742        0       1.00000000       0.05026167       0.04610146       0.21715961
Ni       1.30028945       0.72260726       2.12877701        3       1.00000000      -0.01445665      -0.00188594       0.06806713
Ni       3.83370951       0.74326509       2.17528884        4       1.00000000       0.04516217      -0.02018128       0.19831447
Ni       6.42515179       0.76195244       2.20177403        4       1.00000000      -0.05600737       0.18633645       0.25783726
Pt       9.00486029       0.71173350       2.20838797        4       0.00000000       0.00006627       0.08181380       0.01967041
Ni       2.55739821       2.93503190       2.17420989        4       1.00000000       0.04061428       0.03325640       0.04761220
Ni       5.12684458       2.95282190       2.19986327        4       1.00000000      -0.06915477       0.05323017       0.17240140
Ni       7.70516121       2.96378459       2.20287678        4       1.00000000       0.05918106       0.05079150       0.15342424
Ni      10.28840769       2.91896448       2.22192030        4       1.00000000       0.01656834      -0.04965174       0.23672062
Ni       3.88511664       5.12333069       2.14385701        3       1.00000000       0.12805779      -0.05471233       0.06030809
Ni       6.41412770       5.11214891       2.17488430        4       1.00000000      -0.01029756      -0.04079466       0.06696539
Ni       8.93729631       5.07658032       2.16710653        4       1.00000000      -0.11739501      -0.22671883       0.11016953
Pt      11.59204209       5.04956433       2.17823336        4       0.00000000       0.12816063      -0.11204486       0.07569906
Ni       5.13846973       7.29637075       2.15620111        4       1.00000000       0.03896255      -0.14175139       0.12711495
Ni       7.65341391       7.31813696       2.16269172        4       1.00000000      -0.13155853      -0.05545209       0.20985272
Pt      10.23941004       7.25099755       2.15038342        4       0.00000000      -0.04151379      -0.16713242      -0.15248173
Ni      12.86521896       7.27954594       2.11944851        3       1.00000000       0.12569895      -0.13478090       0.00209383
Ni       0.01710031       1.50294342       4.26079119        6       1.00000000      -0.05020257       0.06557344      -0.18855745
Pt       2.51677897       1.52626526       4.20358059        5       0.00000000      -0.06045480       0.01791582       0.06898376
Ni       5.15994373       1.47895693       4.26042737        6       1.00000000      -0.05332750      -0.01764263      -0.38934622
Ni       7.71061397       1.47167242       4.29860676        6       1.00000000      -0.03102601      -0.02000726      -0.26884720
Ni       1.26833164       3.69028739       4.31839955        6       1.00000000      -0.05321906       0.02936856      -0.00916266
Ni       3.84833345       3.72338019       4.25809421        6       1.00000000      -0.05372775       0.09282123      -0.28087844
Pt       6.42555773       3.66631311       4.28221255        6       0.00000000      -0.01018831       0.01594736       0.01881047
Ni       9.01979936       3.68184065       4.26625411        6       1.00000000       0.02461427       0.07987571      -0.30769656
Ni       2.58493320       5.79037368       4.31677409        6       1.00000000       0.01312992      -0.12084822      -0.08269189
Ni       5.11411671       5.81574681       4.24912218        5       1.00000000       0.01652873      -0.14538317      -0.30937191
Ni       7.70728952       5.80996130       4.24780181        5       1.00000000       0.01923340      -0.06147997      -0.36658540
Ni      10.28629367       5.76511740       4.32520667        6       1.00000000       0.01269365      -0.05311804      -0.08369846
Pt       3.91585758       7.98838930       4.24410791        5       0.00000000       0.10775439      -0.11068491       0.10715714
Ni       6.40812385       8.02897169       4.22903801        5       1.00000000      -0.04609085      -0.06429439      -0.35172098
Pt       8.90967968       8.01642852       4.23973510        5       0.00000000      -0.10192526       0.02548825      -0.02973805
Pt      11.58811620       8.01310648       4.24244307        5       0.00000000      -0.02688802      -0.10318443      -0.00950264
Pt       0.02227308       0.00029049       6.47731720        9       0.00000000       0.02859182       0.11697198       0.28647247
Pt       2.56974128       0.00325156       6.51108562        9       0.00000000       0.02277968      -0.06652194       0.39378343
Pt       5.16600020      -0.00228820       6.40797824        8       0.00000000      -0.02544547       0.19282371       1.02324458
Pt       7.72271512      -0.07087408       6.53241975        9       0.00000000       0.01913593       0.19727324       0.33185895
Ni       1.29464314       2.26116742       6.42850807        8       1.00000000       0.00528919       0.15753929      -0.21210083
Pt       3.86764334       2.31512133       6.38019423        8       0.00000000       0.02172664       0.03144760       0.44188007
Ni       6.44202593       2.22215572       6.37707932        8       1.00000000      -0.02207576      -0.02829068       0.14635128
Pt       9.00821259       2.27810177       6.35082602        8       0.00000000       0.00667303      -0.07915399       0.48144131
Ni       2.55017324       4.43528398       6.41016695        8       1.00000000      -0.01393742      -0.02615126      -0.39822661
Ni       5.12591464       4.38988322       6.43782650        8       1.00000000      -0.08262468       0.04215502      -0.27439015
Ni       7.69137289       4.34954851       6.44690475        8       1.00000000      -0.08290581      -0.02008759      -0.22318791
Ni      10.34964153       4.36615232       6.43895786        8       1.00000000       0.15013868      -0.02134198      -0.32343962
Ni       3.81970101       6.50633118       6.42826037        8       1.00000000      -0.01778632      -0.12618153      -0.30416157
Pt       6.37641794       6.48378079       6.34734094        7       0.00000000       0.08939712       0.12446939       0.30645216
Pt       9.04550286       6.44218802       6.47188508        9       0.00000000      -0.01926735      -0.05406226       0.09226278
Ni      11.59613557       6.49819183       6.45887338        9       1.00000000      -0.00456040      -0.00412518      -0.25253571
