64
Lattice="10.460803699839422 0.004402012274021395 0.051013634731981526 5.234214104376779 9.093928072294467 0.0037377938943914998 0.04165245833935888 -0.020524032155435978 9.042543015241563" Properties=species:S:1:pos:R:3:tags:I:1:initial_magmoms:R:1:forces:R:3 unique_id=ec7ccfedce264b40a23a5c7fbe507956 stress="-0.00022191790413909895 -3.281608712176933e-06 4.5378294298657735e-08 -3.281608712176933e-06 -0.00022401618624152964 1.1325727002840443e-05 4.5378294298657735e-08 1.1325727002840443e-05 -0.000181835562177185" energy=-408.22694491818874 pbc="T T T"
Pt      -0.10729386      -0.02611462       0.05756317        4       0.00000000      -0.12145391      -0.02321838      -0.16179314
Ni       2.64908710      -0.03507568       0.08704302        4       1.00000000       0.10764633      -0.06663402       0.09447645
Ni       5.25521683      -0.04898357       0.17422684        4       1.00000000       0.09921563      -0.07017250       0.15562568
Ni       7.83429899      -0.03912786       0.14850168        4       1.00000000      -0.10189529      -0.17431685       0.15973703
Pt       1.26120132       2.26790757       0.11054041        4       0.00000000       0.00660899      -0.01440396      -0.10638494
Pt       3.95922197       2.20648943       0.13337661        4       0.00000000       0.07649937      -0.02543581      -0.07836532
Pt       6.63030989       2.18777893       0.16643731        4       0.00000000       0.08788990      -0.13908574      -0.06421167
Ni       9.14399640       2.28807705       0.11480528        4       1.00000000      -0.00440809       0.02548477       0.09099527
Pt       2.57810005       4.63624453       0.10683863        4       0.00000000       0.00926561       0.05685592      -0.13216742
Pt       5.31525488       4.54819830       0.17615206        4       0.00000000       0.19700643      -0.09445640       0.01782737
Ni       7.91238058       4.55424158       0.18639331        4       1.00000000       0.13389000      -0.02087369       0.19084521
Ni      10.40394602       4.58757090       0.11215892        4       1.00000000      -0.11306214       0.09650398       0.08666592
Ni       3.90543285       6.85803302       0.17703541        4       1.00000000      -0.01267839       0.03510210       0.16027365
Pt       6.63126826       6.83674620       0.22879997        4       0.00000000       0.09741843       0.00272944       0.08934608
Ni       9.18457246       6.80831131       0.11561753        4       1.00000000       0.08531472      -0.06241564       0.07324076
Ni      11.76598466       6.86591183       0.18985392        4       1.00000000       0.05555096       0.09125937       0.11216739
Pt       1.28478540       0.65261599       2.25341091        3       0.00000000      -0.02569910      -0.05159417      -0.06637112
Pt       4.00456854       0.72803445       2.30783024        3       0.00000000       0.01234143       0.03191010       0.10329508
Ni       6.59276879       0.74420293       2.31315618        3       1.00000000       0.06027134      -0.02190374       0.01952370
Ni       9.10079344       0.73318546       2.30036569        3       1.00000000      -0.12624738       0.03287761      -0.04552538
Pt       2.64198219       3.04077780       2.29392949        3       0.00000000      -0.04980197       0.05062519       0.01594366
Ni       5.28757991       3.01525772       2.32298537        3       1.00000000       0.02705695      -0.02946428       0.01272198
Pt       7.79625999       3.04854795       2.38460205        3       0.00000000      -0.06873752      -0.00084821       0.01287205
Pt      10.36537880       3.04999995       2.29197183        3       0.00000000      -0.10734594       0.01847332      -0.04114991
Pt       3.99226869       5.39705330       2.26608241        3       0.00000000       0.00329344       0.04801775       0.04564199
Ni       6.61953107       5.31209095       2.31878474        3       1.00000000       0.12174406       0.03312205       0.08828714
Ni       9.10739615       5.33024656       2.30943477        3       1.00000000      -0.10090417       0.04983469       0.05968906
Pt      11.70415946       5.35467086       2.30632799        3       0.00000000      -0.07460363      -0.02052303       0.03516214
Ni       5.23016784       7.57924334       2.26164234        3       1.00000000      -0.01348499       0.04351063      -0.00157456
Ni       7.87583057       7.51514633       2.30835296        3       1.00000000       0.06843565      -0.07076272       0.16831581
Pt      10.45484772       7.56403722       2.22718655        3       0.00000000      -0.04951715      -0.00309900       0.09156830
Ni      13.10326393       7.64615298       2.26423333        3       1.00000000      -0.04386336       0.10624647      -0.04073179
Pt      -0.11677897       1.54877762       4.49858070        2       0.00000000      -0.13762066       0.04672051      -0.15314914
Pt       2.65047917       1.47378172       4.49816476        2       0.00000000      -0.06872094       0.00832189      -0.08825060
Ni       5.31265048       1.52156261       4.47563601        2       1.00000000       0.08298024       0.04584412      -0.14778682
Ni       7.83890522       1.54449893       4.49704724        2       1.00000000      -0.07930864       0.02568633      -0.16986240
Pt       1.20797475       3.83165778       4.50469007        2       0.00000000      -0.09212839       0.02234011      -0.06563620
Pt       4.04594352       3.73784340       4.44569192        2       0.00000000       0.06007910       0.02533464      -0.10670033
Ni       6.62411480       3.76079468       4.49909061        2       1.00000000       0.08564840       0.02360000       0.02145248
Ni       9.11591102       3.82215531       4.52732155        2       1.00000000      -0.11066704       0.07755400      -0.10816219
Pt       2.60356726       6.09203938       4.46002873        2       0.00000000      -0.01748480       0.04385377      -0.01146600
Pt       5.36436926       6.02762802       4.43543497        2       0.00000000       0.06170514      -0.03019798      -0.00563915
Ni       7.92141338       5.99274327       4.48093275        2       1.00000000       0.06682873      -0.13687786      -0.13500853
Ni      10.41205114       6.03412064       4.56101783        2       1.00000000      -0.09695223      -0.05024466      -0.00293545
Pt       3.92257247       8.36463236       4.42850411        2       0.00000000      -0.01388082      -0.04054951      -0.13506820
Pt       6.57247525       8.30490697       4.48976776        2       0.00000000      -0.02125462       0.03706157      -0.04630202
Pt       9.18078921       8.22496299       4.54416795        2       0.00000000      -0.04139177      -0.04025445       0.03406060
Pt      11.78299141       8.41542149       4.48035398        2       0.00000000      -0.03722001       0.02806454       0.01106235
Ni       0.00296915       0.00845565       6.64939449        1       1.00000000      -0.08465848       0.02357032      -0.21295477
Ni       2.63750070      -0.02495117       6.73836274        1       1.00000000      -0.02493069       0.05296422      -0.06583934
Pt       5.22751180      -0.04763179       6.80160739        1       0.00000000      -0.03311700      -0.00337043       0.12815325
Ni       7.89986834       0.01053610       6.75466690        1       1.00000000       0.01391168       0.01852119      -0.09953424
Pt       1.23771150       2.21039598       6.67313897        1       0.00000000      -0.07024043      -0.01827515       0.00363987
Pt       3.94901977       2.21206106       6.66722193        1       0.00000000       0.04235485       0.01188597       0.00989822
Pt       6.65723647       2.21327869       6.62246669        1       0.00000000       0.00788700      -0.02360378      -0.05888754
Ni       9.17987233       2.24561848       6.75705196        1       1.00000000      -0.04343222      -0.03996139      -0.04796635
Pt       2.60433862       4.52911926       6.66026753        1       0.00000000       0.06760210      -0.01112464      -0.03351111
Pt       5.31652808       4.53988986       6.67583222        1       0.00000000       0.09823253       0.04084761       0.05688676
Pt       8.00064336       4.53891160       6.71323013        1       0.00000000       0.05553630       0.00678492       0.10970167
Ni      10.46248803       4.54170643       6.75367547        1       1.00000000       0.02329437      -0.01407275      -0.04644859
Pt       3.95023804       6.90194159       6.78013745        1       0.00000000       0.00209265       0.06451593       0.12142850
Pt       6.65918022       6.87115686       6.71246624        1       0.00000000       0.07058425       0.04760496       0.08383675
Ni       9.18911386       6.79329269       6.74103139        1       1.00000000       0.01926659      -0.03898088      -0.06232180
Pt      11.71873220       6.79427637       6.80739444        1       0.00000000      -0.02074140      -0.03690837       0.07736384
