64
Lattice="10.305153171049264 -0.01423139643348054 -0.0509500527311996 5.1402518346819095 8.891088687437101 -0.027406237931518727 0.0 0.0 21.663715694356046" Properties=species:S:1:pos:R:3:tags:I:1:initial_magmoms:R:1:forces:R:3 unique_id=35bf6aa96c3446859c1a3c8e2e1a001e stress="0.004888905708816008 -7.604165432843242e-05 -0.0002915499346990574 -7.604165432843242e-05 0.004688758261484113 6.021314688103557e-05 -0.0002915499346990574 6.021314688103557e-05 -0.0016818005592880627" energy=-375.9873549767997 pbc="T T T"
Ni       0.03984944       0.02157364       0.18173422        2       1.00000000       0.15093298       0.10275270      -0.36636102
Ni       2.57234804      -0.00263714       0.21605317        2       1.00000000       0.00597407      -0.03095773      -0.07022122
Ni       5.10249318      -0.04626485       0.08223919        1       1.00000000      -0.11014709       0.01044052       0.22126542
Pt       7.72109022      -0.09276885       0.10054230        1       0.00000000      -0.00219576       0.08690891      -1.09935999
Ni       1.28714913       2.24088189       0.13032276        1       1.00000000      -0.00037099       0.07412982       0.43390316
Pt       3.77668255       2.23076416       0.21538871        2       0.00000000       0.02206918       0.04584230      -0.36557485
Pt       6.42068686       2.30847482       0.16007876        2       0.00000000       0.00658339       0.14605092      -0.87264145
Pt       9.09946999       2.30656794       0.02375211        0       0.00000000      -0.10253214       0.04456026      -0.07637257
Ni       2.53173566       4.46842137       0.12229647        1       1.00000000      -0.08935286       0.02152296       0.51602322
Ni       5.09720997       4.46371663       0.16453710        2       1.00000000      -0.21865380       0.05465111      -0.06539578
Ni       7.76579597       4.46883423       0.06923098        1       1.00000000       0.21117006       0.12060788       0.15084049
Ni      10.33216293       4.47552105       0.07415050        1       1.00000000       0.03857373       0.13916759       0.46378713
Ni       3.83714906       6.60583269       0.06848875        1       1.00000000      -0.05504744      -0.13850377       0.17556912
Pt       6.46806117       6.66822632       0.00000000        0       0.00000000       0.15452646       0.09410827      -0.36199432
Ni       9.02049196       6.64059736       0.12179467        1       1.00000000      -0.06291516      -0.13064593       0.00008728
Ni      11.55472116       6.59730765       0.03233533        0       1.00000000      -0.05860229      -0.08485538       0.31767857
Ni       1.32891918       0.77920709       2.20213864        3       1.00000000       0.11196602       0.12782529      -0.07502512
Ni       3.79541100       0.71611302       2.23733642        3       1.00000000      -0.06039014      -0.08847497       0.20200014
Pt       6.36703842       0.73503892       2.24486460        3       0.00000000      -0.06066852      -0.02465162       0.15590317
Pt       9.10297642       0.81689959       2.22807525        3       0.00000000       0.14448688       0.11114603       0.13736331
Ni       2.52902271       3.00326596       2.25658812        4       1.00000000      -0.09907867       0.15508135       0.07734214
Ni       5.07388232       2.99818526       2.27061873        4       1.00000000      -0.14408946       0.02127343       0.31696299
Ni       7.76868634       3.00312272       2.24153593        3       1.00000000       0.18978590       0.00934454       0.17620868
Ni      10.33569333       3.01485226       2.21725472        3       1.00000000       0.05695611       0.09012970       0.05696366
Ni       3.82161645       5.10890355       2.24062341        3       1.00000000      -0.03504158      -0.20047563       0.11641507
Pt       6.47580924       5.14841266       2.20636156        3       0.00000000       0.13332344      -0.09295617       0.06552421
Ni       9.02204490       5.13248075       2.21637967        3       1.00000000       0.09766046      -0.17576409       0.09468711
Ni      11.55731058       5.10628586       2.17405119        3       1.00000000      -0.12825474      -0.15966145      -0.01408269
Pt       5.15827423       7.38255417       2.19589642        3       0.00000000      -0.09468069      -0.07551849      -0.02163321
Ni       7.72665696       7.41982763       2.21695938        3       1.00000000      -0.03364994      -0.03530456       0.16161135
Pt      10.19578584       7.32822221       2.22596478        3       0.00000000      -0.06532538      -0.14316816       0.07326788
Pt      12.82020317       7.24334142       2.21592452        3       0.00000000      -0.03878846      -0.30357275       0.04524891
Ni      -0.00534248       1.52116864       4.46248778        7       1.00000000       0.04543660       0.01253104      -0.11641207
Pt       2.50040952       1.50288921       4.32224766        5       0.00000000      -0.03668711       0.03842643      -0.10185895
Pt       5.09388846       1.42985905       4.39689594        6       0.00000000      -0.05228458      -0.05794721      -0.01430035
Pt       7.79051225       1.52542503       4.38941336        6       0.00000000       0.08977272       0.01393757      -0.09105794
Pt       1.22153418       3.78170058       4.43381269        6       0.00000000      -0.01019055       0.04924865      -0.00959054
Ni       3.81827047       3.76664119       4.38406870        6       1.00000000      -0.04522787       0.09274228      -0.23149273
Pt       6.43244714       3.77928129       4.38408288        6       0.00000000      -0.00617345       0.13158181      -0.11687262
Ni       9.01709976       3.75440713       4.40088701        6       1.00000000      -0.00195622       0.22377659      -0.12754465
Ni       2.53235435       5.89512173       4.46892436        7       1.00000000      -0.05595933      -0.03323692       0.03211279
Ni       5.08890086       5.90053246       4.41613390        6       1.00000000      -0.03992744      -0.08290449      -0.26178224
Ni       7.76427005       5.91003465       4.40087890        6       1.00000000       0.22629320      -0.06456021      -0.22942105
Ni      10.26736838       5.92185052       4.39368157        6       1.00000000      -0.04476594      -0.01290705      -0.12976508
Pt       3.82341809       8.05321443       4.42035606        6       0.00000000       0.00146043      -0.02696895      -0.06242393
Pt       6.47077592       8.06960094       4.37597369        6       0.00000000       0.13640915      -0.10227244      -0.11974006
Ni       9.01049125       8.08929508       4.38540815        6       1.00000000      -0.00166213      -0.05200954      -0.15972788
Ni      11.50889790       8.06153031       4.39732229        6       1.00000000      -0.08643912      -0.16701618      -0.08567911
Pt      -0.03174300       0.02658010       6.65820447       10       0.00000000      -0.08860368       0.12277887       0.16852098
Pt       2.58297052      -0.02826230       6.66371569       10       0.00000000       0.07596341      -0.07490259       0.07401827
Ni       5.12736424      -0.04944084       6.57767115        9       1.00000000      -0.01291342      -0.03016532      -0.10209592
Pt       7.63565073      -0.10287703       6.51776073        8       0.00000000      -0.07176927      -0.02469164       0.97168120
Ni       1.21702207       2.27211357       6.60789209        9       1.00000000      -0.01933544       0.02489704      -0.25441590
Pt       3.77077522       2.28521202       6.57030432        9       0.00000000       0.04321482       0.31494914       0.56803877
Pt       6.45564253       2.25123314       6.56914867        9       0.00000000      -0.04424288       0.11071471       1.07783574
Ni       9.03789477       2.27354631       6.48197747        8       1.00000000       0.12786709       0.13514633       0.19860291
Ni       2.49191453       4.49745585       6.59823595        9       1.00000000      -0.03728396       0.06964543      -0.32924651
Pt       5.08954548       4.55507273       6.60786769        9       0.00000000      -0.10587458      -0.11758945       0.07930368
Ni       7.73944593       4.44837060       6.56874270        9       1.00000000       0.11595061      -0.04349645      -0.24287145
Ni      10.28653857       4.41169926       6.55624723        9       1.00000000       0.00513193      -0.03471001      -0.37808588
Ni       3.79532213       6.64154728       6.58824928        9       1.00000000      -0.10287301       0.02677297      -0.16002950
Ni       6.41120840       6.64613393       6.48219536        8       1.00000000       0.11148299      -0.01101301       0.19120313
Pt       9.03847685       6.58158018       6.54769204        8       0.00000000      -0.01487571      -0.02669097      -0.21810539
Ni      11.56256097       6.60095237       6.53115964        8       1.00000000       0.03583914      -0.17509932      -0.38878854
