64
Lattice="10.680413855395152 -0.00933749304815152 0.006907214848980959 5.332120421510279 9.254953357700888 -0.002129781222763067 0.0 0.0 21.933356250628552" Properties=species:S:1:pos:R:3:tags:I:1:initial_magmoms:R:1:forces:R:3 unique_id=7088e6078ad84e279fb76be0471737b8 energy=-398.6558148646901 stress="0.004493083407676445 -1.079128268398953e-05 2.8060581172073203e-05 -1.079128268398953e-05 0.004335748386965417 -5.5457702497015604e-05 2.8060581172073203e-05 -5.5457702497015604e-05 -0.0007771259688007202" pbc="T T T"
Pt       0.00643600      -0.00249875       0.09024929        1       0.00000000       0.09760250      -0.05714546      -0.51635668
Pt       2.72365609       0.02066175       0.07951689        1       0.00000000       0.06200686       0.07067759      -0.37612811
Ni       5.33485402      -0.00234552       0.05995542        1       1.00000000      -0.00178258      -0.05565021       0.30136565
Pt       7.97292754      -0.00925352       0.07897177        1       0.00000000      -0.03458471       0.06164789      -0.60553638
Pt       1.34141037       2.34205347       0.08761534        1       0.00000000      -0.13829029      -0.00233449      -0.34838587
Ni       4.00660147       2.30527598       0.05874543        1       1.00000000      -0.02538821      -0.01010535       0.29627088
Pt       6.62604239       2.27873158       0.08155334        1       0.00000000      -0.02609634      -0.05806725      -0.46983818
Pt       9.36795671       2.34192250       0.10145253        1       0.00000000       0.11663611       0.08461900      -0.35554492
Pt       2.64316791       4.60844961       0.00000000        0       0.00000000      -0.08086758       0.06109613       0.06238799
Pt       5.31850266       4.59429809       0.07255040        1       0.00000000       0.02946629      -0.06511883      -0.58889627
Pt       8.05286417       4.62975251       0.09493808        1       0.00000000       0.15313780       0.06520698      -0.27121078
Ni      10.67692009       4.62577742       0.06567020        1       1.00000000      -0.00284452      -0.02709356       0.37766620
Pt       3.99308161       6.93969142       0.08057320        1       0.00000000       0.02992443       0.04065140      -0.50799987
Pt       6.67586781       6.94682165       0.09254975        1       0.00000000       0.01481215       0.13065774      -0.38183192
Pt       9.38040910       6.93448754       0.03568414        0       0.00000000       0.11018224      -0.00451709       0.31038595
Pt      11.96810306       6.93048155       0.02154170        0       0.00000000      -0.11461058       0.00564696       0.23776643
Pt       1.31549294       0.75192867       2.34261263        2       0.00000000       0.09447923      -0.18901619       0.66053392
Pt       4.02654739       0.73852008       2.27079591        2       0.00000000       0.07753479      -0.07305985       0.17965021
Pt       6.65261320       0.72705318       2.30013613        2       0.00000000      -0.02831245      -0.18408651       0.44809277
Pt       9.37034048       0.76654824       2.32936173        2       0.00000000      -0.06382968       0.01018973       0.49292252
Pt       2.63749711       3.08569966       2.30404038        2       0.00000000      -0.09087207       0.07770957       0.49432947
Pt       5.33324641       3.07203620       2.29893777        2       0.00000000      -0.06104621       0.00389840       0.49687456
Pt       8.08362617       3.12209439       2.34855149        2       0.00000000       0.33456668       0.21470708       0.73342682
Ni      10.67021839       3.09997197       2.31183874        2       1.00000000      -0.00620984       0.24017463       0.43061163
Pt       4.00098825       5.42437116       2.32621117        2       0.00000000      -0.26456148       0.03550635       0.62358756
Pt       6.69915131       5.41987201       2.32555062        2       0.00000000       0.12423237       0.01078011       0.53679013
Ni       9.36371122       5.38955734       2.31784990        2       1.00000000       0.14461038       0.02499558       0.39772388
Pt      11.90691172       5.38983856       2.31968526        2       0.00000000      -0.48313551       0.02476096       0.27383639
Ni       5.34230396       7.71384499       2.31332603        2       1.00000000       0.06345265       0.01600670       0.58765546
Pt       8.03277391       7.68141570       2.34665179        2       0.00000000       0.26388002      -0.09321148       0.57235244
Ni      10.66684818       7.69011430       2.30768319        2       1.00000000      -0.09285608      -0.14719498       0.32684575
Pt      13.33113557       7.69413168       2.32804770        2       0.00000000      -0.21028906      -0.19046192       0.55389842
Pt       0.00382887       1.56171207       4.57702672        3       0.00000000       0.02190457       0.21954062      -0.56311179
Pt       2.65165727       1.50758836       4.59870713        3       0.00000000       0.01477508      -0.10615819      -0.57800664
Pt       5.33469919       1.52122719       4.60644666        3       0.00000000      -0.11997076      -0.13370785      -0.48620605
Pt       8.03263574       1.55497707       4.60155583        3       0.00000000      -0.01441614      -0.08994508      -0.59563949
Pt       1.26480537       3.89478864       4.60052149        3       0.00000000      -0.32436831       0.15754660      -0.52450797
Pt       3.98073166       3.86279659       4.62518663        3       0.00000000      -0.26561556       0.04251687      -0.43320560
Pt       6.71445798       3.86529842       4.60464051        3       0.00000000       0.04669814       0.12149539      -0.59134969
Ni       9.35977716       3.86728901       4.60076122        3       1.00000000       0.15655174       0.16941909      -0.54776978
Pt       2.61120809       6.15868250       4.65075185        4       0.00000000      -0.31675164      -0.14703418      -0.18906539
Pt       5.36331053       6.20545675       4.57903003        3       0.00000000       0.19625198       0.10778168      -0.66195420
Pt       8.08136903       6.15633713       4.59933709        3       0.00000000       0.47967397      -0.19628176      -0.43615282
Ni      10.66692145       6.15298415       4.62367147        3       1.00000000      -0.10490108      -0.06254700      -0.26569395
Pt       4.03550364       8.47684776       4.57066212        3       0.00000000       0.02343793       0.00615241      -0.69629952
Ni       6.66994661       8.47483839       4.60426584        3       1.00000000       0.06695917      -0.02667105      -0.60033467
Pt       9.33999806       8.41927582       4.60652711        3       0.00000000       0.10805367      -0.18817504      -0.40869195
Pt      11.98039820       8.42043351       4.60825890        3       0.00000000      -0.12193696      -0.22198187      -0.46748152
Pt       0.01282671      -0.01491012       6.83250608        5       0.00000000       0.14040455      -0.13109683       0.37693080
Pt       2.69094804      -0.03074549       6.84380130        5       0.00000000      -0.08583196      -0.08533819       0.41722419
Pt       5.33974756      -0.07395786       6.92912154        6       0.00000000      -0.03492623      -0.28397567      -0.01311056
Pt       7.99417804      -0.04267477       6.85582785        6       0.00000000      -0.04567530      -0.15046441       0.44122052
Pt       1.35196119       2.35243098       6.85102887        6       0.00000000      -0.00002941       0.22323481       0.37813249
Pt       3.99310641       2.32449007       6.93335625        6       0.00000000      -0.05368602      -0.08810327       0.17978225
Pt       6.66949520       2.30112367       6.86268706        6       0.00000000      -0.04389086      -0.02792665       0.65839908
Pt       9.35680700       2.32387645       6.84331343        5       0.00000000       0.13773462       0.32745002       0.36680119
Ni       2.66014406       4.63329430       6.86841200        6       1.00000000      -0.06031172       0.03632951      -0.28248201
Pt       5.31095911       4.62631341       6.85322062        6       0.00000000       0.03413940       0.15102145       0.53574358
Pt       8.04643485       4.64905446       6.83925520        5       0.00000000       0.26172318       0.05349317       0.36893693
Pt      10.71007846       4.69416111       6.88790559        6       0.00000000      -0.00141821       0.39150821      -0.33553005
Pt       3.95091180       6.90560275       6.84355456        5       0.00000000      -0.12347511      -0.09190287       0.42397175
Pt       6.70090475       6.94153311       6.82851410        5       0.00000000      -0.00277771       0.08492851       0.27467512
Ni       9.36084314       6.92892825       6.86476871        6       1.00000000       0.13740222      -0.03001073      -0.36714031
Ni      12.00185517       6.91789741       6.87001886        6       1.00000000      -0.09667453      -0.05296733      -0.35132998
