64
Lattice="10.195264702075859 -0.031063536267801013 0.06154345215967082 5.070730539498632 8.836216168398769 0.05654978234535343 0.05025001826686043 0.024303784521541624 8.750371578283698" Properties=species:S:1:pos:R:3:tags:I:1:initial_magmoms:R:1:forces:R:3 unique_id=a3b49ac3c36a4b138020626d50dcbb1f stress="-5.586722349541079e-05 5.163596457246123e-06 -2.408878285153792e-05 5.163596457246123e-06 -5.841098763277597e-05 -6.6169641176632315e-06 -2.408878285153792e-05 -6.6169641176632315e-06 -2.730590237564473e-05" energy=-393.69226364553145 pbc="T T T"
Ni       0.06977293       0.02444549       0.14756827        4       1.00000000       0.27309679       0.17123854       0.19898327
Ni       2.54309082      -0.04016692       0.21900723        4       1.00000000       0.03257746      -0.12419608       0.31529421
Ni       5.05901753      -0.06197234       0.11680370        4       1.00000000      -0.11074598      -0.10797328       0.11623714
Pt       7.66936953      -0.07610950       0.03987311        4       0.00000000       0.08569288      -0.05793110      -0.13390534
Ni       1.23287798       2.22989668       0.12353131        4       1.00000000      -0.07409882       0.13836851       0.17295747
Pt       3.75360089       2.20757699       0.21971463        4       0.00000000      -0.07499678      -0.01758544       0.24562084
Pt       6.40607123       2.27876869       0.10074003        4       0.00000000       0.10114366       0.16306414       0.00691502
Ni       8.97348844       2.24982065       0.12999883        4       1.00000000       0.16434481       0.21477339       0.07511803
Ni       2.50649373       4.44640123       0.13157318        4       1.00000000      -0.11523452       0.06268334       0.19420362
Ni       5.06903204       4.45453342       0.20989175        4       1.00000000      -0.11075729       0.04308437       0.35573846
Ni       7.69624461       4.44086305       0.13428403        4       1.00000000       0.34981879       0.16976785       0.03745439
Ni      10.19273619       4.39733255       0.17793829        4       1.00000000       0.05411341       0.05836071       0.15765932
Ni       3.81879094       6.57297676       0.10033754        4       1.00000000       0.02655665      -0.19853818       0.05303289
Ni       6.38887180       6.61950911       0.11031118        4       1.00000000       0.23492670       0.00166276      -0.07276580
Ni       8.90980896       6.60688756       0.25159742        4       1.00000000       0.04061168      -0.02106644       0.20247915
Ni      11.41605973       6.55067243       0.15741831        4       1.00000000      -0.16852851      -0.15855148       0.03274203
Ni       1.33749841       0.78009896       2.16555178        3       1.00000000       0.04022691       0.12797679      -0.02760977
Ni       3.79819564       0.68260282       2.22948646        3       1.00000000      -0.01357133      -0.17316447      -0.02601528
Pt       6.27533346       0.71877341       2.27799929        3       0.00000000      -0.05143606      -0.03202891      -0.14648335
Pt       8.99507711       0.81480867       2.23360129        3       0.00000000       0.02513659       0.04232957      -0.05515021
Ni       2.52276501       2.99091233       2.22501504        3       1.00000000      -0.08207139       0.17488400      -0.06074585
Ni       5.05082779       2.96189628       2.27362012        3       1.00000000      -0.16779875      -0.05803565       0.09254579
Ni       7.69085347       2.97053222       2.23276906        3       1.00000000       0.14504502       0.05348357      -0.02510031
Ni      10.23558541       2.97883922       2.22799189        3       1.00000000       0.06798002       0.12120164      -0.00732832
Ni       3.79103538       5.09446580       2.23691462        3       1.00000000      -0.08101984      -0.09805909       0.09972162
Pt       6.42447827       5.12684142       2.20537303        3       0.00000000       0.15811331       0.06742904      -0.02112710
Ni       8.96470158       5.15988006       2.24162623        3       1.00000000       0.15644042       0.01552909       0.01828086
Ni      11.42641902       5.09391971       2.24782878        3       1.00000000      -0.14394937      -0.05928817      -0.08089642
Pt       5.12648927       7.34414016       2.17665116        3       0.00000000      -0.01188631      -0.06836923      -0.09053146
Ni       7.70964618       7.36561699       2.24528795        3       1.00000000       0.09541142      -0.10073233       0.09739240
Ni      10.12029033       7.30685069       2.28454063        3       1.00000000      -0.07492075      -0.12461249       0.05820352
Pt      12.65597593       7.22469280       2.30443450        3       0.00000000      -0.16042155      -0.13722669      -0.08189837
Ni       0.03403652       1.50197446       4.36641781        2       1.00000000       0.08026520       0.01000123      -0.03186043
Pt       2.60198295       1.48535380       4.26066317        2       0.00000000       0.09402472       0.01834521       0.09977049
Ni       5.10364670       1.42928933       4.39089180        2       1.00000000      -0.07329576      -0.09229264       0.00362140
Pt       7.64593065       1.44621582       4.46242430        2       0.00000000       0.03502443      -0.00736679      -0.07528601
Pt       1.32765307       3.76482936       4.36605352        2       0.00000000      -0.02592211       0.00564567      -0.01838141
Ni       3.83352598       3.74175625       4.34073305        2       1.00000000      -0.01771722       0.10132169      -0.10239234
Pt       6.32791916       3.69757713       4.38818551        2       0.00000000      -0.12746264       0.00686055       0.08524399
Pt       8.95421129       3.73598302       4.41835247        2       0.00000000       0.05155034       0.09274641      -0.07681242
Ni       2.54374020       5.88791685       4.42522514        2       1.00000000      -0.03120590      -0.03412824       0.02233911
Ni       5.07245413       5.87789198       4.40259625        2       1.00000000      -0.06227840      -0.08298325      -0.13465534
Ni       7.68280644       5.90178825       4.41014669        2       1.00000000       0.14032624       0.01861001      -0.11277899
Ni      10.22523335       5.93473921       4.40412611        2       1.00000000       0.06747857       0.06906660      -0.21747507
Pt       3.77481820       8.02980505       4.43241728        2       0.00000000       0.03404773      -0.01106150      -0.03927839
Pt       6.42278089       8.03759834       4.37581565        2       0.00000000       0.06334598      -0.00585012       0.03697390
Ni       8.98345699       8.07266997       4.39428297        2       1.00000000       0.04704649      -0.08346066      -0.09469270
Ni      11.40042198       8.04419037       4.48640615        2       1.00000000      -0.11158700      -0.11848519      -0.06038397
Pt      -0.03127863       0.04578301       6.55537686        1       0.00000000      -0.20991666       0.02324402       0.07611664
Pt       2.60499441      -0.01310601       6.57345054        1       0.00000000       0.03250029      -0.01045493       0.19106908
Ni       5.18792289      -0.01589543       6.49288415        1       1.00000000       0.02728892      -0.07197681      -0.16751143
Ni       7.61432208      -0.03499193       6.45503503        1       1.00000000      -0.25932306      -0.15094246      -0.28426790
Ni       1.26416583       2.26956060       6.51700775        1       1.00000000      -0.05080471       0.04741189      -0.09151081
Pt       3.87246852       2.24968930       6.46083559        1       0.00000000      -0.07616894       0.06828423      -0.24237803
Ni       6.42046291       2.19592687       6.47430531        1       1.00000000      -0.04126017      -0.00938738      -0.17918223
Ni       8.94409246       2.23711787       6.56660533        1       1.00000000      -0.06092689       0.11835744      -0.08191452
Ni       2.53154627       4.47910085       6.51995608        1       1.00000000      -0.09147079       0.10051751      -0.02365925
Pt       5.10795856       4.51782682       6.58199418        1       0.00000000      -0.04273319       0.15278264       0.17261301
Ni       7.67722874       4.40023065       6.56787044        1       1.00000000      -0.05207693      -0.08409327      -0.06735720
Ni      10.24087540       4.39380431       6.59401466        1       1.00000000       0.09314294      -0.07411300       0.03482690
Ni       3.78800483       6.62757883       6.53876361        1       1.00000000      -0.22650361       0.04160101      -0.07564598
Ni       6.38257956       6.61880915       6.55087675        1       1.00000000       0.04492686       0.06045762      -0.21617232
Pt       8.98873615       6.55870866       6.55902137        1       0.00000000       0.09330564      -0.12544842       0.14647508
Ni      11.51361033       6.61578852       6.55733849        1       1.00000000       0.04658039      -0.06168731      -0.17647529
