64
Lattice="10.415333500662305 -0.007094138609296938 0.02877154654615479 5.201523046077591 8.968731796197629 -0.019666570283777173 0.0 0.0 21.63975544470969" Properties=species:S:1:pos:R:3:tags:I:1:initial_magmoms:R:1:forces:R:3 unique_id=6efe42f472da4dc6826d07d063fc8dda energy=-379.9182506533305 stress="0.005495855521349492 0.0002342359442787291 0.0003852224720154544 0.0002342359442787291 0.005245881949289913 -0.00010242972030209417 0.0003852224720154544 -0.00010242972030209417 -0.0020332076831691484" pbc="T T T"
Ni      -0.04244735       0.00133512       0.10989800        1       1.00000000      -0.20770623      -0.08135863      -0.11279670
Ni       2.61929622      -0.01845653       0.11619823        1       1.00000000       0.10456886      -0.06574140      -0.29701643
Ni       5.22416216      -0.04010792       0.10810930        1       1.00000000       0.10181765       0.07017867      -0.31632420
Ni       7.83742869      -0.04818309       0.07460661        1       1.00000000       0.00967994      -0.07336467       0.48900755
Ni       1.28643506       2.25248253       0.09413184        1       1.00000000       0.03545757       0.07535597      -0.24654916
Pt       3.84619651       2.29018287       0.08445241        1       0.00000000      -0.01232750       0.11172285      -0.65550236
Pt       6.51883241       2.15807649       0.10088260        1       0.00000000      -0.10780832      -0.13904125      -0.56119037
Ni       9.13691849       2.20058163       0.09759186        1       1.00000000      -0.00005264      -0.14442776       0.00897486
Ni       2.58645451       4.50384893       0.00000000        0       1.00000000      -0.03332097       0.02168129       0.23985268
Ni       5.20280222       4.48801960       0.10062173        1       1.00000000       0.16851121      -0.04634899      -0.18207799
Pt       7.88425258       4.50511546       0.01998226        0       0.00000000      -0.01457337       0.01915766       0.05143005
Ni      10.44316097       4.49179461       0.00945090        0       1.00000000       0.04457198       0.04544582       0.28772095
Ni       3.87227151       6.74715193       0.10232405        1       1.00000000      -0.05838880       0.16229247      -0.00326857
Pt       6.48573097       6.76862634       0.13582449        1       0.00000000      -0.06813022       0.04243810      -0.42636776
Ni       9.13762257       6.73079524       0.01936671        0       1.00000000      -0.03345542      -0.01488795       0.28343282
Ni      11.73304805       6.72394200       0.00977868        0       1.00000000       0.13608340       0.03959720       0.32576419
Pt       1.26223160       0.69978817       2.11245479        2       0.00000000      -0.00048705      -0.05533014       0.09268741
Pt       3.96214551       0.75151488       2.19559050        3       0.00000000       0.12964329       0.03875590       0.09141705
Ni       6.55315475       0.70776558       2.22035891        3       1.00000000       0.14987011      -0.05270820       0.20463968
Ni       9.08421374       0.69880079       2.17803006        3       1.00000000      -0.12286714      -0.05975802      -0.01314802
Ni       2.60911214       3.00649417       2.18362183        3       1.00000000       0.01544632       0.04260151       0.21185323
Ni       5.20741980       2.99270887       2.21427134        3       1.00000000       0.04489565       0.03156729       0.28968446
Pt       7.81794021       2.95031170       2.24215538        3       0.00000000      -0.06503140      -0.03769810       0.07182303
Pt      10.39914661       2.97440377       2.17615683        3       0.00000000       0.00321945       0.08585095       0.10925950
Pt       3.92779849       5.21471702       2.12321897        2       0.00000000       0.05392521      -0.04227305       0.02536878
Ni       6.53693449       5.23122670       2.19019660        3       1.00000000       0.10861157      -0.05700686       0.22597387
Ni       9.09239707       5.24177130       2.22267378        3       1.00000000      -0.08722525      -0.00844364       0.20766648
Pt      11.73262639       5.23477787       2.14810454        2       0.00000000       0.01888691      -0.01548235       0.00883796
Ni       5.16865344       7.47126393       2.14675763        2       1.00000000      -0.12276194      -0.02811145       0.09023152
Ni       7.82205787       7.41651766       2.17958462        3       1.00000000       0.07529134      -0.16985899       0.16500838
Pt      10.42015520       7.43347928       2.09709720        2       0.00000000      -0.01220409      -0.03347814      -0.04668689
Ni      13.04101427       7.49677504       2.14637563        2       1.00000000      -0.00551809       0.08367790      -0.07769124
Ni      -0.02757075       1.51487854       4.35121249        5       1.00000000      -0.03721249       0.11721392      -0.20391346
Pt       2.61460489       1.53624678       4.31071507        4       0.00000000      -0.08789374       0.02569049      -0.03310902
Ni       5.24528524       1.48288972       4.34522668        4       1.00000000       0.04085348       0.00993075      -0.33275391
Ni       7.84341493       1.47592033       4.35444947        5       1.00000000       0.03469586       0.01832104      -0.23662384
Pt       1.28144901       3.81100304       4.38757761        5       0.00000000      -0.06111184       0.06518680       0.06171377
Ni       3.90934095       3.73389314       4.33816673        4       1.00000000      -0.01776954       0.02064064      -0.27240120
Pt       6.54207672       3.71180101       4.33540454        4       0.00000000      -0.05513106       0.02115072      -0.00450601
Ni       9.12902743       3.75020705       4.39581268        5       1.00000000       0.01375645       0.05624008      -0.18463309
Ni       2.58693489       5.95308807       4.37358599        5       1.00000000       0.01102565       0.05956896      -0.12614187
Pt       5.18751487       5.93516000       4.29155396        4       0.00000000      -0.09872093       0.02679733      -0.09879764
Ni       7.88168362       5.90662551       4.34670480        4       1.00000000       0.09237326      -0.12872564      -0.26856115
Ni      10.39753445       5.93249453       4.42049565        5       1.00000000      -0.04047057       0.02979816      -0.08237418
Pt       3.88449923       8.25817829       4.25820543        4       0.00000000       0.01558532       0.11334228      -0.08821548
Pt       6.51394364       8.19056581       4.28292181        4       0.00000000       0.01513459       0.03073126      -0.09693403
Pt       9.13212158       8.11353191       4.35357404        5       0.00000000      -0.05191118      -0.02212833      -0.00577298
Pt      11.74587187       8.18617043       4.34410869        4       0.00000000      -0.00286081      -0.03498780      -0.03138075
Pt      -0.03681130      -0.01396953       6.60743936        7       0.00000000       0.06428812       0.09761500       0.13384618
Pt       2.64534213      -0.05049728       6.63975544        7       0.00000000      -0.00586798      -0.00706087       0.44709597
Pt       5.28114018      -0.12966955       6.63340957        7       0.00000000      -0.02723029       0.03404384       0.23173450
Ni       7.81801861      -0.03466561       6.58112349        7       1.00000000       0.00338993       0.03474093      -0.21018896
Pt       1.29181859       2.31456583       6.60910195        7       0.00000000      -0.11907060      -0.07916492       0.17547468
Pt       3.91907284       2.25234796       6.48201551        6       0.00000000       0.20572728      -0.08233815       0.68512649
Pt       6.55773775       2.17925948       6.48794496        6       0.00000000      -0.06755410      -0.09455949       0.63158913
Pt       9.11722456       2.29037112       6.54243057        6       0.00000000       0.04668550       0.12593350      -0.10745922
Ni       2.56886766       4.50122083       6.53801603        6       1.00000000      -0.02659587       0.09141147      -0.19358418
Pt       5.20164213       4.47154764       6.58955081        7       0.00000000      -0.01442625      -0.03014564       0.28120824
Ni       7.88307665       4.48118198       6.46462497        6       1.00000000       0.07725387       0.07744075       0.01652216
Ni      10.41002741       4.53288630       6.55261694        7       1.00000000      -0.10284865       0.09131060      -0.34067185
Pt       3.78051772       6.70161066       6.58790459        7       0.00000000       0.00894478      -0.05455016      -0.07556063
Pt       6.59557136       6.64571880       6.50609146        6       0.00000000       0.03609188      -0.08261631       0.40906221
Ni       9.16718801       6.62769782       6.54231273        6       1.00000000       0.01188811      -0.09883844      -0.26939343
Ni      11.69712015       6.64393186       6.55715326        7       1.00000000      -0.10964019      -0.17699675      -0.35241122
