64
Lattice="10.494024976850836 0.03337675594551897 0.06683881253652266 5.275917606970146 9.1446648002685 0.060054373194812376 0.05457366190933955 0.025111687640591344 9.071521493181343" Properties=species:S:1:pos:R:3:tags:I:1:initial_magmoms:R:1:forces:R:3 unique_id=8ec9f8adf7174f47bcbaaad8f044ca17 stress="0.0056363528557760514 8.267649030013157e-05 -2.3112288496858898e-05 8.267649030013157e-05 0.005693033366018681 1.4832546334496075e-05 -2.3112288496858898e-05 1.4832546334496075e-05 0.004657188306825405" energy=-411.05147989285547 pbc="T T T"
Pt      -0.05575409       0.06357175       0.02663264        4       0.00000000      -0.09291359       0.08652997      -0.12748129
Ni       2.65941041       0.01925454       0.16180170        4       1.00000000       0.05816411      -0.04344487       0.27038631
Ni       5.26807031       0.00963368       0.09276739        4       1.00000000       0.10671356      -0.09109362       0.05672023
Ni       7.84323025       0.04026646       0.19934067        4       1.00000000      -0.04591363       0.02478083       0.21129366
Pt       1.31165569       2.30500382       0.00831950        4       0.00000000       0.02962719       0.03290614      -0.18057166
Ni       3.95430282       2.27572139       0.17128667        4       1.00000000       0.03048921       0.05200414       0.19008723
Pt       6.60012000       2.22488306       0.20436237        4       0.00000000       0.04287947      -0.08149048       0.04063807
Ni       9.18275059       2.33846298       0.14216321        4       1.00000000      -0.03765910       0.10911139       0.17116678
Pt       2.57103326       4.60385463       0.16029578        4       0.00000000      -0.07756440       0.08793564       0.01202193
Pt       5.30439517       4.52131203       0.20242538        4       0.00000000       0.08848476      -0.09082907       0.04104600
Ni       7.93365050       4.56983202       0.20659022        4       1.00000000       0.11499125      -0.05686996       0.20731246
Ni      10.48164409       4.59971745       0.15148121        4       1.00000000      -0.07777333      -0.01225635       0.10639972
Pt       3.90538934       6.89433586       0.14642447        4       0.00000000       0.04599727       0.00122307      -0.09595799
Pt       6.63452648       6.85231148       0.18847544        4       0.00000000       0.08461941      -0.02360459       0.00064867
Pt       9.29049295       6.84492127       0.10426550        4       0.00000000       0.10466965      -0.04870712      -0.12656917
Ni      11.81527503       6.91198019       0.23003142        4       1.00000000       0.03826811       0.08793251       0.16194091
Pt       1.30473021       0.78579664       2.28366690        3       0.00000000      -0.03069816       0.05492114      -0.00914658
Pt       4.04625605       0.79138276       2.22522718        3       0.00000000       0.07831693      -0.06191006       0.02233022
Ni       6.60532840       0.79970063       2.33913329        3       1.00000000       0.09755573       0.02206029       0.11216131
Ni       9.15271458       0.83403032       2.32789618        3       1.00000000      -0.05930883       0.17314601      -0.00137581
Pt       2.67219780       3.07264923       2.33339997        3       0.00000000      -0.02109289      -0.01737756       0.03664162
Ni       5.30298871       3.06448704       2.35749078        3       1.00000000       0.05417206       0.02637891       0.13186196
Pt       7.85247018       3.09101775       2.40890124        3       0.00000000      -0.01937240      -0.00561170       0.07055878
Pt      10.45826852       3.15699965       2.32566387        3       0.00000000      -0.02113598       0.02275598      -0.09961477
Pt       3.98630927       5.30201269       2.37937791        3       0.00000000       0.01111690       0.02973299       0.03603540
Ni       6.63672724       5.30773600       2.36052595        3       1.00000000       0.10624916      -0.06701510       0.05690699
Ni       9.20502343       5.34666153       2.38027777        3       1.00000000      -0.02311270      -0.03134333       0.10985707
Ni      11.79532533       5.37803364       2.36558598        3       1.00000000      -0.07039175       0.01066663       0.04619137
Pt       5.26791697       7.63562243       2.35581092        3       0.00000000       0.01329240       0.05119470      -0.02409822
Pt       7.94746170       7.54662594       2.39324013        3       0.00000000       0.03142132      -0.07776672       0.09775532
Pt      10.56050095       7.59071955       2.38730519        3       0.00000000      -0.00909236      -0.09295014       0.10844927
Pt      13.10647835       7.73420065       2.37104587        3       0.00000000       0.02495579       0.05936218       0.02082009
Pt      -0.06844272       1.59830568       4.58802591        2       0.00000000      -0.10093602       0.08727122      -0.14466956
Pt       2.67364863       1.57926687       4.54695901        2       0.00000000       0.03677730       0.01278230       0.00438937
Pt       5.36769528       1.57057567       4.48447616        2       0.00000000       0.04699311       0.03407814      -0.07154709
Ni       7.89853262       1.59217434       4.53982844        2       1.00000000      -0.01693901       0.08521495      -0.09578456
Pt       1.24531155       3.87497243       4.53867340        2       0.00000000      -0.14728495       0.04915007      -0.11359775
Ni       4.00065952       3.81069330       4.54316234        2       1.00000000       0.02679208      -0.04683970      -0.02522723
Ni       6.64504782       3.83189043       4.53535281        2       1.00000000       0.11066532      -0.00188099      -0.04433266
Ni       9.17682160       3.88298946       4.57277083        2       1.00000000      -0.12701202       0.08126815      -0.15581339
Pt       2.58814327       6.12581085       4.50689001        2       0.00000000      -0.13437568       0.06904235      -0.05336639
Pt       5.36891278       6.02374359       4.50858951        2       0.00000000       0.09424338      -0.03810135      -0.07861448
Ni       7.96892030       6.05652921       4.56642483        2       1.00000000       0.12365424      -0.16369738      -0.12941037
Ni      10.49219351       6.10156430       4.60055773        2       1.00000000      -0.18174244      -0.08825970      -0.07975541
Pt       3.91917141       8.46180781       4.53458416        2       0.00000000      -0.06848920       0.07686569      -0.06329594
Pt       6.62432747       8.39600642       4.58981034        2       0.00000000       0.00815544       0.04634092      -0.00789808
Pt       9.31718709       8.32995103       4.65644618        2       0.00000000       0.02047882       0.04614477       0.04938025
Ni      11.85092059       8.43544908       4.61961789        2       1.00000000      -0.00455463       0.06906165      -0.00095266
Ni       0.03535439       0.05435396       6.66501643        1       1.00000000      -0.02164488       0.00837293      -0.22486634
Pt       2.66676898       0.02342703       6.81588878        1       0.00000000      -0.05652460      -0.01647697       0.17645070
Ni       5.28023231       0.02565834       6.77308709        1       1.00000000       0.00005916       0.06231612      -0.12477889
Pt       7.91069268       0.07849253       6.80858506        1       0.00000000      -0.00440575      -0.02122871       0.12901477
Ni       1.29752234       2.29828220       6.67562619        1       1.00000000      -0.13104650      -0.01706148      -0.25615413
Pt       3.97183777       2.27325869       6.80874194        1       0.00000000       0.01413150      -0.03312050       0.10165280
Pt       6.65398377       2.30852537       6.71096868        1       0.00000000       0.07646589       0.02674375      -0.03790747
Ni       9.26153312       2.33238418       6.80980971        1       1.00000000       0.04441756      -0.00535333      -0.01265789
Pt       2.59976472       4.55332481       6.70539559        1       0.00000000      -0.07321784      -0.03645248      -0.04127253
Pt       5.31565558       4.56526916       6.70874867        1       0.00000000       0.00255872      -0.05822828      -0.00432589
Pt       8.04815270       4.59343809       6.75849437        1       0.00000000       0.08690377      -0.05629825       0.06080763
Ni      10.52744441       4.59858331       6.80698851        1       1.00000000       0.00151205      -0.05468934      -0.11347351
Pt       3.99297050       6.90303677       6.71655924        1       0.00000000      -0.03447803      -0.04122166      -0.11570629
Pt       6.67254342       6.87776785       6.73950135        1       0.00000000       0.05506692      -0.10293720      -0.02879213
Ni       9.24858445       6.86977483       6.73793975        1       1.00000000      -0.08605859      -0.10925256      -0.22068332
Pt      11.73907794       6.91429039       6.83743620        1       0.00000000      -0.13612025       0.00607500       0.06877255
