64
Lattice="10.357685395875619 -0.006204466714895083 0.03910329193268057 5.173469472145773 8.886553552524681 0.03274344718871154 0.0 0.0 21.580763979181906" Properties=species:S:1:pos:R:3:tags:I:1:initial_magmoms:R:1:forces:R:3 unique_id=3b2bae6f1ce9410cbd42a051c292a260 stress="0.005124750225265996 -2.399654653205085e-05 0.0004457230490390027 -2.399654653205085e-05 0.004994759675187475 0.00019455598490473666 0.0004457230490390027 0.00019455598490473666 -0.0027208319414575837" energy=-376.63398529156353 pbc="T T T"
Ni       0.00500482       0.02591478       0.11295214        1       1.00000000       0.09939270       0.00151183      -0.16281479
Ni       2.59026550       0.01244404       0.15499074        2       1.00000000      -0.02910158       0.04818201      -0.14210467
Ni       5.17664203      -0.00244158       0.09927177        1       1.00000000      -0.01932314       0.17172243      -0.36821890
Ni       7.77857778      -0.04257989       0.14269116        1       1.00000000      -0.08047198      -0.09524005      -0.22043463
Ni       1.26827274       2.22872065       0.12789978        1       1.00000000      -0.05466780       0.02345689       0.04516388
Pt       3.82693202       2.23124298       0.05343835        1       0.00000000      -0.03830091      -0.01614000       0.02313876
Pt       6.49401297       2.16347099       0.06410522        1       0.00000000       0.04376940      -0.11151085      -0.04031765
Ni       9.10636311       2.22113039       0.11278189        1       1.00000000       0.05382252       0.13978971      -0.07391563
Ni       2.57552217       4.46484681       0.00000000        0       1.00000000      -0.03849768      -0.03691608       0.16029215
Ni       5.17098618       4.45168507       0.11163108        1       1.00000000       0.15430159      -0.07455220      -0.35328697
Pt       7.81098496       4.43960619       0.00000249        0       0.00000000      -0.03256349      -0.02821364      -0.19746220
Ni      10.39323860       4.43510800       0.04163180        0       1.00000000       0.03764807      -0.10867018       0.18758936
Ni       3.84670653       6.68728521       0.04228203        0       1.00000000      -0.01679793       0.13100976       0.29663568
Pt       6.44738443       6.72039084       0.15807934        2       0.00000000      -0.00046328       0.04820037      -0.59242694
Ni       9.08562896       6.68688984       0.04442137        0       1.00000000      -0.08929124       0.02115899       0.10557315
Ni      11.67333389       6.66502067       0.04040573        0       1.00000000       0.11977424       0.04581032       0.20389821
Ni       1.31252369       0.76780197       2.10728461        3       1.00000000       0.01933612       0.08084331       0.06926380
Ni       3.87925582       0.77248078       2.15179210        4       1.00000000       0.03369760       0.09770744       0.14730920
Ni       6.47954206       0.77324348       2.18827190        4       1.00000000      -0.02911857       0.14971356       0.20764975
Pt       9.07717431       0.78213922       2.15185852        4       0.00000000       0.00069998       0.11383951       0.12152153
Ni       2.58115449       2.93983748       2.15243526        4       1.00000000       0.00035071      -0.01707155       0.07396954
Ni       5.18785461       2.93066817       2.19706089        4       1.00000000      -0.03704510      -0.12979938       0.19853816
Ni       7.76303488       2.93888010       2.20323313        4       1.00000000      -0.03171823       0.01259642       0.14533269
Ni      10.38341504       2.93018564       2.19186481        4       1.00000000       0.05341436      -0.03302026       0.16039327
Pt       3.91116045       5.16535769       2.11874770        3       0.00000000       0.04473520      -0.07030778      -0.01058804
Ni       6.47873553       5.16584424       2.18638544        4       1.00000000       0.03628232      -0.09816958       0.10295215
Pt       9.02381636       5.14599772       2.22917092        4       0.00000000      -0.09330064      -0.12708749       0.01741901
Pt      11.67588924       5.12505089       2.16074779        4       0.00000000       0.00082291      -0.06018394       0.03180669
Ni       5.16918488       7.42797890       2.16329208        4       1.00000000      -0.08169148       0.02159876       0.05656688
Ni       7.76554510       7.43350434       2.17580658        4       1.00000000       0.02994489       0.04288069       0.09268163
Pt      10.36766509       7.45232630       2.09568010        3       0.00000000       0.03890215      -0.00551857      -0.12282659
Ni      12.96542384       7.40544307       2.16279803        4       1.00000000       0.05746791      -0.02166220      -0.01188272
Ni       0.00107316       1.55626963       4.28549313        6       1.00000000       0.01296038       0.11480031      -0.14997366
Pt       2.62120183       1.59080525       4.23543594        5       0.00000000      -0.02365024      -0.00197612      -0.04449838
Ni       5.20125749       1.51865844       4.31338270        6       1.00000000      -0.01796469       0.01122898      -0.23364620
Ni       7.79381629       1.50705379       4.32053535        6       1.00000000       0.08337729      -0.08270668      -0.20329940
Ni       1.31334000       3.71680652       4.31265355        6       1.00000000       0.02449312      -0.07869377      -0.15420275
Ni       3.87437158       3.70969590       4.32869251        6       1.00000000      -0.00960707       0.01789100      -0.19076656
Pt       6.53034222       3.64241133       4.28705382        6       0.00000000      -0.00146797      -0.02847849      -0.15451182
Ni       9.08767791       3.67108024       4.33535086        6       1.00000000       0.07111556      -0.19510550      -0.20799903
Ni       2.59008563       5.87966961       4.37588274        7       1.00000000       0.01794238      -0.12068431      -0.03421741
Pt       5.16326029       5.87668352       4.29699906        6       0.00000000      -0.01966693      -0.04530768      -0.06561573
Ni       7.79720145       5.88594844       4.34604861        6       1.00000000      -0.04858146      -0.03331491      -0.17327256
Pt      10.38219015       5.83445136       4.45541624        8       0.00000000       0.01535444      -0.02754747       0.05227825
Pt       3.87870033       8.15897748       4.29324919        6       0.00000000      -0.00499772       0.02584181       0.06138600
Pt       6.48200248       8.18273942       4.22540158        5       0.00000000      -0.08272868       0.16840246      -0.13197506
Pt       9.06838188       8.14408316       4.30820193        6       0.00000000      -0.08582376       0.02453699      -0.07340755
Pt      11.67566273       8.17291538       4.30818525        6       0.00000000       0.04962300       0.04716053      -0.07154648
Pt       0.01080300      -0.00472611       6.53342798       10       0.00000000       0.08258626       0.18737180       0.30367514
Pt       2.63453859       0.01553301       6.57154135       11       0.00000000      -0.03332664       0.03991598       0.34693248
Pt       5.20329621       0.00957925       6.54362307       10       0.00000000       0.01117971       0.12297861       0.33607062
Pt       7.76570248      -0.03590541       6.58076398       11       0.00000000      -0.06621505       0.11124757       0.29584727
Pt       1.33811213       2.35324995       6.50796407       10       0.00000000      -0.10134641       0.02483848      -0.03966507
Ni       3.90828440       2.24434381       6.40703666        9       1.00000000      -0.00283854      -0.09694197       0.08050611
Ni       6.48454556       2.22877270       6.42094203        9       1.00000000      -0.02885962      -0.14728187       0.14259327
Pt       9.03733814       2.31656246       6.48867620       10       0.00000000       0.01279290      -0.05429115       0.02505006
Ni       2.59273893       4.49979414       6.46642867       10       1.00000000      -0.02535215       0.06874119      -0.28483137
Pt       5.13026682       4.37235213       6.53850616       10       0.00000000       0.01311006      -0.03110924       0.13773413
Ni       7.81324379       4.45549013       6.40318665        9       1.00000000      -0.01042152       0.07234583       0.12971591
Ni      10.37620293       4.48457587       6.53519580       10       1.00000000      -0.02311044      -0.05987721      -0.06639235
Ni       3.85193529       6.62559115       6.50194778       10       1.00000000      -0.02052099      -0.06337766      -0.18073909
Pt       6.53678643       6.59600959       6.47106162       10       0.00000000       0.06994725      -0.14022659       0.61419878
Ni       9.11188010       6.61437857       6.52922493       10       1.00000000      -0.06540586       0.02001773      -0.04795455
Ni      11.68038734       6.60376298       6.53687140       10       1.00000000       0.05539378       0.03364309      -0.16888874
