64
Lattice="9.779946306265114 -5.754188836159574e-16 6.456942448347267e-15 4.889973153132556 8.46968194887337 3.5603995067961474e-16 5.2720714323226394e-15 -2.7081541759732406e-15 8.361927474771404" Properties=species:S:1:pos:R:3:tags:I:1:initial_magmoms:R:1:forces:R:3 unique_id=99b5411f5bdb454490969502ac5a563f stress="-0.0001109887227998263 -6.503784704800399e-17 -6.364148099165181e-17 -6.503784704800399e-17 -0.00011098872280020794 1.5189088965297808e-17 -6.364148099165181e-17 1.5189088965297808e-17 -8.90438289704587e-05" energy=-374.39357598004057 pbc="T T T"
Ni      -0.00446359      -0.00458059       0.09830778        4       1.00000000      -0.02792157      -0.02530431       0.05177327
Ni       2.44498658      -0.00632348       0.09938625        4       1.00000000      -0.00000000      -0.01055774       0.08909471
Ni       4.89443674      -0.00458059       0.09830778        4       1.00000000       0.02792157      -0.02530431       0.05177327
Ni       7.33495973       0.00000000       0.09974817        4       1.00000000       0.00000000       0.00000000       0.04801315
Ni       1.19794860       2.10324960       0.06498537        4       1.00000000      -0.04531889      -0.02616487       0.01501481
Ni       3.69202455       2.10324960       0.06498537        4       1.00000000       0.04531889      -0.02616487       0.01501481
Ni       6.11866514       2.11584520       0.09830778        4       1.00000000       0.03587496      -0.01152863       0.05177327
Ni       8.55125432       2.11584520       0.09830778        4       1.00000000      -0.03587496      -0.01152863       0.05177327
Ni       2.44498658       4.26318274       0.06498537        4       1.00000000       0.00000000       0.05232974       0.01501481
Ni       4.89544945       4.23800272       0.09938625        4       1.00000000       0.00914327       0.00527887       0.08909471
Ni       7.33495973       4.23508935       0.10135938        4       1.00000000      -0.00000000       0.00248252       0.06586096
Ni       9.77447001       4.23800272       0.09938625        4       1.00000000      -0.00914327       0.00527887       0.08909471
Ni       3.66921497       6.35841734       0.09830778        4       1.00000000       0.00795339       0.03683294       0.05177327
Ni       6.11268154       6.35213728       0.10135938        4       1.00000000       0.00214993      -0.00124126       0.06586096
Ni       8.55723792       6.35213728       0.10135938        4       1.00000000      -0.00214993      -0.00124126       0.06586096
Ni      11.00070448       6.35841734       0.09830778        4       1.00000000      -0.00795339       0.03683294       0.05177327
Ni       1.19827621       0.66401064       2.11479476        3       1.00000000      -0.01124313      -0.01829057       0.07444413
Ni       3.69169694       0.66401064       2.11479476        3       1.00000000       0.01124313      -0.01829057       0.07444413
Ni       6.11859374       0.70226923       2.11512438        3       1.00000000       0.01875195      -0.01082644       0.07047217
Ni       8.55132571       0.70226923       2.11512438        3       1.00000000      -0.01875195      -0.01082644       0.07047217
Pt       2.44498658       2.82322732       2.12436584        3       0.00000000      -0.00000000       0.00000000      -0.07560813
Ni       4.93827825       2.82315281       2.11479476        3       1.00000000       0.02146167      -0.00059155       0.07444413
Ni       7.33495973       2.82349031       2.11591939        3       1.00000000       0.00000000       0.00167553       0.08103811
Ni       9.73164121       2.82315281       2.11479476        3       1.00000000      -0.02146167      -0.00059155       0.07444413
Ni       3.69156789       4.98251850       2.11479476        3       1.00000000       0.01021853       0.01888213       0.07444413
Ni       6.11876656       4.94428518       2.11621806        3       1.00000000       0.01900159       0.01097057       0.08625457
Ni       8.55115290       4.94428518       2.11621806        3       1.00000000      -0.01900159       0.01097057       0.08625457
Ni      10.97835157       4.98251850       2.11479476        3       1.00000000      -0.01021853       0.01888213       0.07444413
Ni       4.89020091       7.05793680       2.11591939        3       1.00000000       0.00145105      -0.00083776       0.08103811
Ni       7.33495973       7.05079355       2.11621806        3       1.00000000       0.00000000      -0.02194115       0.08625457
Ni       9.77971855       7.05793680       2.11591939        3       1.00000000      -0.00145105      -0.00083776       0.08103811
Ni      12.22493288       7.06514349       2.11512438        3       1.00000000       0.00000000       0.02165288       0.07047217
Ni      -0.00506080       1.40869181       4.15918074        2       1.00000000      -0.00980447      -0.00566062      -0.09093006
Ni       2.44498658       1.38898479       4.19036814        2       1.00000000      -0.00000000      -0.06607778      -0.03366158
Ni       4.89503395       1.40869181       4.15918074        2       1.00000000       0.00980447      -0.00566062      -0.09093006
Ni       7.33495973       1.41164607       4.15633034        2       1.00000000       0.00000000      -0.00030475      -0.07163937
Ni       1.20289612       3.54034858       4.19036814        2       1.00000000      -0.05722504       0.03303889      -0.03366158
Ni       3.68707704       3.54034858       4.19036814        2       1.00000000       0.05722504       0.03303889      -0.03366158
Ni       6.11709885       3.53036426       4.15920872        2       1.00000000       0.02332702       0.01111743      -0.05364291
Ni       8.55282061       3.53036426       4.15920872        2       1.00000000      -0.02332702       0.01111743      -0.05364291
Ni       2.44498658       5.65229834       4.15918074        2       1.00000000      -0.00000000       0.01132123      -0.09093006
Ni       4.89344127       5.64980136       4.15920872        2       1.00000000       0.02129149       0.01464308      -0.05364291
Ni       7.33495973       5.64645463       4.15711760        2       1.00000000       0.00000000      -0.00000000      -0.05709250
Ni       9.77647819       5.64980136       4.15920872        2       1.00000000      -0.02129149       0.01464308      -0.05364291
Ni       3.66750793       7.76385892       4.15633034        2       1.00000000      -0.00026392       0.00015237      -0.07163937
Ni       6.11130215       7.75919828       4.15920872        2       1.00000000      -0.00203553      -0.02576051      -0.05364291
Ni       8.55861731       7.75919828       4.15920872        2       1.00000000       0.00203553      -0.02576051      -0.05364291
Ni      11.00241153       7.76385892       4.15633034        2       1.00000000       0.00026392       0.00015237      -0.07163937
Ni      -0.00023549       0.00012512       6.17007601        1       1.00000000      -0.00155912       0.00007154      -0.06878867
Ni       2.44498658      -0.00190373       6.17394068        1       1.00000000      -0.00000000      -0.02854088      -0.01847027
Ni       4.89020864       0.00012512       6.17007601        1       1.00000000       0.00155912       0.00007154      -0.06878867
Ni       7.33495973       0.00000000       6.16947060        1       1.00000000       0.00000000       0.00000000      -0.07025870
Ni       1.22157642       2.11689114       6.16435102        1       1.00000000      -0.00746402      -0.00430936      -0.09688258
Ni       3.66839673       2.11689114       6.16435102        1       1.00000000       0.00746402      -0.00430936      -0.09688258
Ni       6.11247583       2.11715399       6.17007601        1       1.00000000       0.00071761      -0.00138601      -0.06878867
Ni       8.55744363       2.11715399       6.17007601        1       1.00000000      -0.00071761      -0.00138601      -0.06878867
Ni       2.44498658       4.23589968       6.16435102        1       1.00000000      -0.00000000       0.00861871      -0.09688258
Ni       4.89162183       4.23579284       6.17394068        1       1.00000000       0.02471713       0.01427044      -0.01847027
Ni       7.33495973       4.23532995       6.16991410        1       1.00000000      -0.00000000       0.00418076      -0.05207440
Ni       9.77829763       4.23579284       6.17394068        1       1.00000000      -0.02471713       0.01427044      -0.01847027
Ni       3.66725377       6.35240284       6.17007601        1       1.00000000      -0.00084152       0.00131447      -0.06878867
Ni       6.11288991       6.35201697       6.16991410        1       1.00000000       0.00362064      -0.00209038      -0.05207440
Ni       8.55702955       6.35201697       6.16991410        1       1.00000000      -0.00362064      -0.00209038      -0.05207440
Ni      11.00266569       6.35240284       6.17007601        1       1.00000000       0.00084152       0.00131447      -0.06878867
