64
Lattice="10.178293758632154 0.03843089007447614 -0.021427528766190074 5.122429006410618 8.790541044611118 -0.06510777809093882 -0.017495503975324633 -0.051283167931694004 8.713334161110259" Properties=species:S:1:pos:R:3:tags:I:1:initial_magmoms:R:1:forces:R:3 unique_id=bdfbf3b0d09e48bebc61d335aed4763b stress="-0.007359186121705247 -9.584074933277785e-06 3.2749495228420874e-05 -9.584074933277785e-06 -0.007278185513169916 -1.7718095353290702e-05 3.2749495228420874e-05 -1.7718095353290702e-05 -0.00630014475294622" energy=-391.3186868416345 pbc="T T T"
Ni       0.03176784      -0.04793456       0.19700422        4       1.00000000       0.05892952      -0.05404953       0.16508028
Ni       2.49611923       0.01934569       0.17219255        4       1.00000000      -0.05122625       0.11893008       0.06624400
Pt       5.12142716      -0.00289198       0.16968983        4       0.00000000      -0.01712959       0.01950416      -0.12173212
Ni       7.65574365      -0.01870469       0.17843005        4       1.00000000       0.05512640      -0.07685913       0.15339149
Ni       1.27213980       2.21561407       0.11186910        4       1.00000000      -0.03811841       0.08062116       0.10857667
Pt       3.78523444       2.28548016       0.17346327        4       0.00000000      -0.03555632       0.04650794      -0.11760958
Ni       6.37644323       2.26601672       0.09959129        4       1.00000000      -0.01787692       0.08688864       0.12106560
Pt       8.91925916       2.28000154       0.09961724        4       0.00000000      -0.00177465       0.06478161      -0.17678857
Ni       2.53691999       4.43780708       0.07793895        4       1.00000000      -0.00790526       0.03841209       0.04957061
Ni       5.12177277       4.44610219       0.07473942        4       1.00000000      -0.05659477       0.03600117       0.02908852
Ni       7.61670323       4.44640605       0.07630533        4       1.00000000      -0.05697525       0.04839532       0.10545228
Ni      10.22799755       4.45066833       0.06693633        4       1.00000000       0.06701142       0.03288791       0.07349295
Ni       3.84288673       6.56266664       0.06319701        4       1.00000000      -0.00886572      -0.07332878       0.01547494
Ni       6.33631450       6.56349031       0.01540937        4       1.00000000      -0.12633175      -0.06812880      -0.11526188
Ni       8.92422785       6.53683627       0.12100207        4       1.00000000       0.01692188      -0.12749598       0.10342157
Ni      11.52352431       6.55968429       0.01493931        4       1.00000000       0.07577222      -0.05551938      -0.05745240
Ni       1.28012037       0.78978914       2.20200660        3       1.00000000       0.01873359       0.10022501       0.08715191
Ni       3.76304828       0.77593475       2.18326566        3       1.00000000      -0.10388346       0.00862865       0.00439519
Ni       6.39315956       0.78057859       2.18177566        3       1.00000000       0.07034141       0.00828465       0.05112465
Pt       8.92527296       0.76249113       2.19725505        3       0.00000000       0.06451051       0.00417984       0.13633373
Ni       2.51476780       2.95633771       2.23534760        3       1.00000000       0.02314851       0.02591704       0.06362101
Ni       5.10175318       2.98697771       2.15144582        3       1.00000000      -0.02725246       0.08586130      -0.00255602
Ni       7.62131417       2.98222679       2.16984045        3       1.00000000      -0.00193198       0.03358679       0.03065342
Ni      10.23376717       2.99132847       2.19642599        3       1.00000000       0.06706713       0.01935066       0.01778014
Ni       3.82100340       5.10576613       2.15039688        3       1.00000000      -0.02486555      -0.06760161       0.00258902
Ni       6.32921425       5.09715837       2.09490091        3       1.00000000      -0.06937558      -0.00579099       0.00790370
Ni       8.93498951       5.05664906       2.12311473        3       1.00000000       0.01932332      -0.09788351       0.03256607
Ni      11.51192271       5.07849142       2.14551502        3       1.00000000       0.07674649      -0.09944234       0.06628198
Ni       5.07941147       7.24713519       2.10240963        3       1.00000000      -0.09461976      -0.13916597       0.02185135
Pt       7.56205719       7.31397272       2.05436377        3       0.00000000      -0.07713027      -0.03105831       0.01233260
Pt      10.29510297       7.22959504       2.15543320        3       0.00000000       0.03332730      -0.14818581       0.09517401
Ni      12.77952955       7.27201055       2.08800941        3       1.00000000       0.07295924      -0.13921723       0.00614252
Ni       0.05115144       1.48034173       4.28729213        2       1.00000000       0.04832190       0.01306090      -0.03040793
Ni       2.47080945       1.51089661       4.25690088        2       1.00000000      -0.00820716       0.06105367      -0.05755733
Pt       5.08996595       1.47713799       4.19399810        2       0.00000000      -0.03498293       0.01916356      -0.11812257
Ni       7.64654369       1.46768731       4.27539825        2       1.00000000      -0.01632822      -0.05479808      -0.05157997
Ni       1.28397640       3.64156178       4.29627906        2       1.00000000       0.02971919      -0.01077361      -0.05633646
Ni       3.75644772       3.72056241       4.24146442        2       1.00000000      -0.03126467       0.05200176      -0.15316460
Pt       6.35560023       3.65707702       4.28687777        2       0.00000000       0.00528600      -0.02855699      -0.02003724
Ni       8.98475238       3.67110770       4.21345905        2       1.00000000       0.06129902       0.00842343      -0.19413683
Ni       2.53668921       5.77447430       4.28108187        2       1.00000000      -0.04334248      -0.04264151      -0.15656453
Ni       5.05541485       5.81050476       4.27672829        2       1.00000000      -0.02215692      -0.08315050      -0.14001813
Pt       7.63116178       5.82382586       4.25242205        2       0.00000000       0.02995158      -0.01198576      -0.01099868
Ni      10.26416240       5.78565536       4.27577140        2       1.00000000       0.01975357      -0.07504796      -0.02542428
Pt       3.83689507       7.94284787       4.22878129        2       0.00000000      -0.01029906      -0.02508553       0.05209475
Ni       6.34778626       8.06191866       4.22617962        2       1.00000000      -0.05936516       0.04590449      -0.07798591
Pt       8.90012683       8.05593252       4.20895341        2       0.00000000      -0.06156979      -0.03783638      -0.04598895
Ni      11.50989858       7.99458647       4.22930109        2       1.00000000       0.02153125      -0.06933587      -0.03985077
Pt      -0.00141991      -0.07667976       6.50155954        1       0.00000000      -0.05331009       0.01977880       0.16188639
Pt       2.50506143      -0.00707463       6.48845734        1       0.00000000       0.08341893       0.06382077       0.08709856
Pt       5.10933845      -0.01163693       6.39441463        1       0.00000000      -0.02641318       0.05191997       0.13010299
Pt       7.61985425      -0.04885756       6.48510370        1       0.00000000       0.07093713       0.02758945       0.17894396
Ni       1.26108527       2.23613134       6.39823184        1       1.00000000       0.02580718       0.05725056      -0.08453794
Pt       3.78469716       2.32546108       6.35427031        1       0.00000000      -0.01520719       0.11445581       0.00038554
Ni       6.36043168       2.24119704       6.43624685        1       1.00000000      -0.00935515       0.04757777       0.01691648
Pt       8.91379171       2.30065173       6.29080764        1       0.00000000       0.00799197       0.05560420      -0.05576676
Ni       2.51687985       4.42685947       6.38740506        1       1.00000000      -0.00349973       0.08205203      -0.09005291
Ni       5.09523255       4.43722140       6.41941949        1       1.00000000      -0.02501190       0.10080118      -0.02054230
Ni       7.57956451       4.38154967       6.43821792        1       1.00000000      -0.10217097       0.02077515       0.05333957
Ni      10.26779865       4.38426559       6.37445131        1       1.00000000       0.15327927      -0.00530688      -0.08710844
Ni       3.82478846       6.46692574       6.40401072        1       1.00000000      -0.01656930      -0.06230213      -0.03701268
Ni       6.33384672       6.50757972       6.39804981        1       1.00000000      -0.01026556       0.00859830      -0.16564115
Pt       8.95096734       6.44612175       6.47748163        1       0.00000000       0.05680185      -0.04426910       0.14182637
Ni      11.50895393       6.51382967       6.35989318        1       1.00000000       0.03271564       0.02602187      -0.13911791
