64
Lattice="10.216997503220508 0.047619867220131396 -0.032447823086505186 5.1497387663477285 8.84550143974093 -0.05004028996247994 -0.02649353660867926 -0.0318823873272082 8.761237271504534" Properties=species:S:1:pos:R:3:tags:I:1:initial_magmoms:R:1:forces:R:3 unique_id=4b630986e5084a37b5c7626fb77c39d5 stress="-0.003945354655741536 -1.6652437516951307e-05 2.1231007326382167e-05 -1.6652437516951307e-05 -0.003911673265310042 -2.1375066609565605e-05 2.1231007326382167e-05 -2.1375066609565605e-05 -0.003356413145388079" energy=-393.4645153862627 pbc="T T T"
Ni       0.03075682      -0.04438261       0.19370206        4       1.00000000       0.07625589      -0.07101483       0.22648920
Ni       2.50892032       0.02031443       0.16276580        4       1.00000000      -0.04716064       0.13031231       0.09189088
Pt       5.13881356       0.00634178       0.15716337        4       0.00000000      -0.02593569       0.01201627      -0.04018450
Ni       7.67431473      -0.00954512       0.15159624        4       1.00000000       0.01340408      -0.10049768       0.13181993
Ni       1.28000704       2.22928792       0.10880731        4       1.00000000      -0.04235944       0.10393850       0.16706246
Pt       3.80234809       2.30110809       0.17521840        4       0.00000000      -0.05847686       0.10218057      -0.03227671
Ni       6.40010009       2.28182997       0.09046950        4       1.00000000      -0.02002374       0.13154784       0.16911478
Pt       8.94953732       2.31067921       0.10857772        4       0.00000000      -0.02032830       0.12293445      -0.12131665
Ni       2.55073682       4.46405791       0.08282501        4       1.00000000      -0.02204765       0.07073029       0.12191367
Ni       5.14405058       4.47420425       0.07791487        4       1.00000000      -0.03630864       0.06876986       0.08296694
Ni       7.64939404       4.47903865       0.07168398        4       1.00000000      -0.08945405       0.09068688       0.15248187
Ni      10.26646347       4.48425841       0.06304068        4       1.00000000       0.06375153       0.06913491       0.10196716
Ni       3.86244162       6.60698581       0.07373624        4       1.00000000      -0.00657801      -0.07842382       0.08757006
Ni       6.37125530       6.61234431       0.02758206        4       1.00000000      -0.16779016      -0.08600914      -0.07255827
Ni       8.96238743       6.59192145       0.11973468        4       1.00000000       0.01905866      -0.14613434       0.16744628
Ni      11.56569093       6.61414902       0.02580937        4       1.00000000       0.08189643      -0.08025516       0.02659806
Ni       1.29715126       0.78370020       2.17391614        3       1.00000000       0.02965613       0.12867486       0.03540163
Ni       3.78669515       0.78549958       2.19045984        3       1.00000000      -0.10433281       0.01547846      -0.02910755
Ni       6.40092707       0.79596584       2.18589689        3       1.00000000       0.03917974       0.03297761       0.01182097
Pt       8.92190684       0.75368656       2.15624022        3       0.00000000       0.03054126       0.03690171       0.07689893
Ni       2.53064648       2.97522321       2.23677008        3       1.00000000      -0.01008188       0.06540179       0.11796457
Ni       5.12614873       3.00627128       2.16228791        3       1.00000000      -0.00472288       0.12645615      -0.03721430
Ni       7.64623101       3.01040223       2.17937178        3       1.00000000      -0.00395109       0.05502579       0.05232441
Ni      10.26671934       3.03891762       2.16606126        3       1.00000000       0.05781734       0.06590787       0.01344503
Ni       3.85493596       5.13943107       2.14114337        3       1.00000000       0.00143568      -0.09717923      -0.03773179
Ni       6.36269953       5.13857322       2.11139989        3       1.00000000      -0.08884222      -0.02686388      -0.03400125
Ni       8.96657446       5.10857711       2.13385354        3       1.00000000      -0.00981526      -0.13004495       0.01432664
Ni      11.53627916       5.12561758       2.11855399        3       1.00000000       0.06996946      -0.15356207      -0.01594931
Ni       5.11006982       7.30274266       2.12461852        3       1.00000000      -0.10676470      -0.18895125       0.00372755
Pt       7.60064841       7.36490374       2.07316825        3       0.00000000      -0.08771177      -0.04056789      -0.01693492
Pt      10.32736472       7.29647072       2.17010491        3       0.00000000       0.04510181      -0.16072628       0.07523734
Ni      12.82474726       7.34364726       2.08750386        3       1.00000000       0.08890488      -0.17781452      -0.04620040
Pt       0.07308045       1.51834468       4.29730172        2       0.00000000       0.05484479      -0.05161403       0.01546704
Ni       2.54432618       1.52443729       4.28396517        2       1.00000000       0.06277404       0.09946244      -0.13501569
Pt       5.11368298       1.49768863       4.21802642        2       0.00000000       0.00092258      -0.00447130      -0.10287235
Ni       7.65543465       1.49522666       4.29910522        2       1.00000000       0.03719233      -0.02700044      -0.09108626
Ni       1.28692121       3.67292206       4.33345518        2       1.00000000       0.03367650      -0.01149849      -0.07995117
Ni       3.80863090       3.70063134       4.27226629        2       1.00000000       0.01810461       0.01411221      -0.23838183
Pt       6.38124986       3.69373129       4.31056152        2       0.00000000       0.00751588      -0.02889053      -0.03871206
Ni       8.98629098       3.73892846       4.25726478        2       1.00000000       0.06814571       0.03119122      -0.22872923
Pt       2.53951802       5.80533127       4.30997542        2       0.00000000      -0.01753338      -0.00583361      -0.13974695
Ni       5.10872970       5.86771195       4.31550755        2       1.00000000      -0.02661728      -0.08918758      -0.14326729
Pt       7.65863166       5.87488884       4.28214510        2       0.00000000       0.01064527      -0.00304440      -0.03455072
Ni      10.24900929       5.84692786       4.30219872        2       1.00000000      -0.02698981      -0.10666723      -0.03374422
Pt       3.87068052       8.03215271       4.26329304        2       0.00000000       0.04410255      -0.01778191       0.04623113
Ni       6.39290650       8.08833326       4.27503268        2       1.00000000      -0.03387235       0.00240212      -0.08993007
Pt       8.93978524       8.11774325       4.24077143        2       0.00000000      -0.05739903      -0.03105130      -0.02615820
Ni      11.54017058       8.09965517       4.25775599        2       1.00000000       0.04920399      -0.02941296      -0.07079878
Pt      -0.00898651      -0.07892324       6.56769319        1       0.00000000      -0.00778763      -0.02410872       0.20691232
Pt       2.51115889       0.00517436       6.52074191        1       0.00000000       0.04899846       0.04861959       0.07021977
Pt       5.12099243       0.00231414       6.42887816        1       0.00000000      -0.00271196       0.03120980       0.03785734
Pt       7.64268179      -0.02640340       6.50620402        1       0.00000000       0.04102984      -0.01793704       0.11533227
Ni       1.26853731       2.26103192       6.47714912        1       1.00000000       0.03299539       0.09782254      -0.04077432
Pt       3.80249470       2.34115115       6.40404003        1       0.00000000       0.00987628       0.14400353      -0.04378295
Ni       6.37394858       2.26965213       6.47314550        1       1.00000000      -0.02837563       0.06323269      -0.02317708
Pt       8.91627535       2.34105361       6.37062621        1       0.00000000      -0.02829458       0.09699124      -0.07242072
Ni       2.52563330       4.44471916       6.47375211        1       1.00000000      -0.02728249       0.08749903      -0.01462494
Ni       5.11909473       4.47065765       6.46685347        1       1.00000000      -0.02326824       0.11492379      -0.05226339
Ni       7.60652269       4.43322441       6.47603861        1       1.00000000      -0.15837911       0.02732195       0.01885116
Ni      10.28997520       4.43206556       6.42424713        1       1.00000000       0.18777961      -0.02404203      -0.12750491
Ni       3.85111062       6.53195140       6.47690478        1       1.00000000       0.00644596      -0.12293176      -0.02539394
Ni       6.36414879       6.56241633       6.45086886        1       1.00000000      -0.01597836      -0.03618391      -0.16450952
Pt       8.97837176       6.50991203       6.51762313        1       0.00000000       0.04377083      -0.09070552       0.15966879
Ni      11.53680892       6.58486456       6.43444842        1       1.00000000       0.03217813      -0.02746050      -0.09813593
