64
Lattice="10.31563600422278 -0.002784193025044506 0.0028455953148604205 5.155406820222664 8.952016680251935 0.029950162166370715 0.002323418845287533 0.02689585719153661 8.862623708303136" Properties=species:S:1:pos:R:3:tags:I:1:initial_magmoms:R:1:forces:R:3 unique_id=611afcdcb2ac4a82b25426415d3e1420 stress="0.00035536631175147465 4.189823825217087e-06 -2.6639990236315225e-05 4.189823825217087e-06 0.00035080178324094213 -1.8213007195422667e-05 -2.6639990236315225e-05 -1.8213007195422667e-05 0.000334306123230127" energy=-400.0581323528263 pbc="T T T"
Ni       0.04091264       0.00608258       0.17003288        4       1.00000000       0.10425247       0.08020512       0.30032907
Ni       2.53937984       0.01299842       0.19991935        4       1.00000000      -0.11299423       0.09149659       0.42134096
Pt       5.09523544      -0.02374721       0.14065153        4       0.00000000      -0.13151306      -0.00157020       0.23226850
Pt       7.76831578      -0.10622186       0.17524915        4       0.00000000       0.03485783      -0.07213330       0.32912388
Ni       1.29858122       2.24979365       0.11101088        4       1.00000000       0.01291941       0.08565328       0.26448001
Pt       3.77900988       2.30087334       0.20560231        4       0.00000000      -0.03011015       0.16679783       0.11874448
Pt       6.43148785       2.27575137       0.13441694        4       0.00000000       0.03529872       0.11231532       0.03531958
Pt       9.13184206       2.27181502       0.15186208        4       0.00000000       0.08391692       0.03913902       0.17774922
Ni       2.56813722       4.50756034       0.08983713        4       1.00000000       0.04935906       0.10395932       0.02463646
Ni       5.11915932       4.50945846       0.19696037        4       1.00000000      -0.04910657       0.09942197       0.39218327
Pt       7.77521702       4.54035562       0.13335686        4       0.00000000       0.03639860       0.09466774      -0.06953294
Ni      10.36514188       4.49840302       0.09483604        4       1.00000000       0.13347991       0.07222754       0.13404137
Ni       3.85012370       6.66610621       0.13036221        4       1.00000000      -0.05952149      -0.20494874       0.28666681
Pt       6.40589781       6.76546699       0.21578033        4       0.00000000      -0.07820965       0.05870203      -0.00923154
Ni       9.03528130       6.69967727       0.19176973        4       1.00000000      -0.06189146       0.01318834       0.31303868
Ni      11.61602348       6.65603942       0.09833253        4       1.00000000       0.02093170      -0.10284878       0.08467557
Ni       1.31658546       0.75041727       2.21322155        3       1.00000000       0.10112233      -0.00933737      -0.02672699
Ni       3.83943429       0.77668589       2.24890196        3       1.00000000       0.00711153       0.04348449       0.01695665
Ni       6.42272666       0.79179765       2.25872886        3       1.00000000      -0.10453772       0.07795154       0.00210736
Pt       9.11303672       0.74483381       2.27310563        3       0.00000000       0.13696196       0.04396709      -0.13191426
Ni       2.57079895       2.99570943       2.26416774        3       1.00000000       0.02411263       0.08690968       0.01866221
Ni       5.13500219       3.01779052       2.27928709        3       1.00000000      -0.15890116       0.06648944       0.09023828
Ni       7.73675772       3.03219091       2.26249265        3       1.00000000       0.09000352       0.12648692      -0.04579952
Ni      10.34619878       2.99602956       2.28641660        3       1.00000000       0.10205811      -0.00664181       0.21549560
Ni       3.90191690       5.22220248       2.25410001        3       1.00000000       0.13278076      -0.05034406       0.11763008
Ni       6.42926016       5.23873441       2.27710749        3       1.00000000      -0.04843249       0.14186593      -0.02734711
Ni       8.99450112       5.19815917       2.27235434        3       1.00000000      -0.07500986      -0.15682174       0.17427732
Pt      11.66336978       5.15483524       2.21119624        3       0.00000000       0.14969805      -0.10530713       0.05910112
Ni       5.16950175       7.43129790       2.27718450        3       1.00000000       0.06924691      -0.18059241       0.05884425
Ni       7.69146088       7.46624851       2.26818826        3       1.00000000      -0.17767138      -0.05902988       0.06338422
Pt      10.28697247       7.41349337       2.23698587        3       0.00000000      -0.02180770      -0.06463066      -0.24350288
Ni      12.93205113       7.40144351       2.25993040        3       1.00000000       0.17407646      -0.29022755       0.04250151
Ni       0.02579701       1.54590291       4.38884544        2       1.00000000      -0.03363769       0.10086493      -0.05285468
Pt       2.51644926       1.57681166       4.30055675        2       0.00000000       0.02955905      -0.03363052       0.04878360
Ni       5.14567277       1.54346305       4.36592137        2       1.00000000      -0.13473520       0.09135638      -0.21656065
Pt       7.73286375       1.55861422       4.35257674        2       0.00000000      -0.01816612      -0.01883937       0.05027434
Ni       1.29561253       3.73209620       4.44188885        2       1.00000000       0.03514075      -0.04342641      -0.02064984
Ni       3.84297569       3.79302821       4.36822407        2       1.00000000      -0.09048401       0.11044739      -0.24587908
Pt       6.42193297       3.80696612       4.34543425        2       0.00000000      -0.09556901       0.01013328      -0.01765235
Ni       9.04244305       3.75490461       4.37514504        2       1.00000000      -0.04884695      -0.06270933      -0.31397614
Ni       2.61637766       5.91777518       4.44675517        2       1.00000000       0.08535454      -0.20767472      -0.07399466
Ni       5.14394069       5.95956360       4.36791114        2       1.00000000       0.00853957      -0.13306309      -0.26413957
Ni       7.71355493       5.96267433       4.37713558        2       1.00000000      -0.03150763       0.01127146      -0.25539726
Pt      10.33033780       5.85564086       4.43527313        2       0.00000000      -0.00136845      -0.04874957       0.05988452
Pt       3.95224740       8.11503974       4.38374596        2       0.00000000       0.01760144      -0.11963226       0.17062109
Ni       6.44027308       8.20080146       4.36822506        2       1.00000000      -0.04719627      -0.01891434      -0.25109152
Pt       8.93608403       8.21039551       4.35770206        2       0.00000000      -0.03791193      -0.03514399       0.08633253
Pt      11.62614209       8.17357588       4.35337984        2       0.00000000       0.04859823      -0.04121103       0.01564844
Pt      -0.00049638       0.04923197       6.59292823        1       0.00000000       0.05655766       0.09663701       0.07890647
Pt       2.56014409       0.04594278       6.62426046        1       0.00000000      -0.00121004       0.00297840       0.18845879
Pt       5.17604715       0.03105809       6.51240772        1       0.00000000       0.06843465      -0.00545265      -0.41032148
Pt       7.74463296      -0.03455774       6.55478314        1       0.00000000      -0.05447436      -0.04775688      -0.19961054
Ni       1.28199965       2.32295615       6.56907304        1       1.00000000       0.01577423       0.16295677      -0.18455371
Pt       3.82614555       2.32535847       6.51208817        1       0.00000000      -0.14875620       0.07436098      -0.19763336
Ni       6.45797218       2.28300600       6.51687475        1       1.00000000      -0.01210569       0.07914772      -0.23171343
Pt       9.06419549       2.36927453       6.50539057        1       0.00000000      -0.03030494       0.12915951      -0.26558014
Ni       2.52714637       4.53121113       6.56908568        1       1.00000000      -0.13275412       0.06015794      -0.25007293
Pt       5.11386002       4.51307181       6.59948576        1       0.00000000      -0.08769555       0.05108467       0.12284059
Ni       7.73759048       4.47672905       6.51096682        1       1.00000000      -0.10456369       0.00007310      -0.30091161
Ni      10.37610659       4.47746414       6.59099290        1       1.00000000       0.26830520      -0.05033394      -0.10898600
Ni       3.82254587       6.68770491       6.59038186        1       1.00000000      -0.10676504      -0.12860186      -0.13169608
Pt       6.42690775       6.70202431       6.49294785        1       0.00000000      -0.02506781       0.03531049      -0.23217856
Pt       9.07141917       6.62183369       6.64779142        1       0.00000000       0.11536349      -0.17202987       0.14938368
Ni      11.64417409       6.66330193       6.60833949        1       1.00000000       0.10501197      -0.14926576      -0.16542171
