64
Lattice="10.162720703288924 0.009768240636758269 0.0009870543701196318 5.089819896186234 8.75230866692133 -0.050615303001239564 0.0008059265183924136 -0.048185867204325675 8.686634206303827" Properties=species:S:1:pos:R:3:tags:I:1:initial_magmoms:R:1:forces:R:3 unique_id=c4c36e227fdb495681f278249a4d3cdf stress="-0.006757719800045615 1.400756149856628e-05 1.2646776597721146e-05 1.400756149856628e-05 -0.006710381163919352 -1.1222494511761464e-05 1.2646776597721146e-05 -1.1222494511761464e-05 -0.005750706483372239" energy=-390.62685464550975 pbc="T T T"
Ni       0.04327267      -0.05655736       0.20340073        4       1.00000000       0.07798983      -0.07246291       0.13240883
Ni       2.49392475      -0.03334051       0.19938623        4       1.00000000      -0.00515263      -0.03733994       0.02960724
Pt       5.10245879      -0.02979843       0.16349060        4       0.00000000      -0.02700823      -0.00098871      -0.19610371
Ni       7.63593952      -0.04809126       0.18391451        4       1.00000000       0.01532930      -0.11477568       0.07984269
Ni       1.26677066       2.20090473       0.12159820        4       1.00000000      -0.02141128       0.03859532       0.12656507
Pt       3.77168026       2.25813863       0.18968749        4       0.00000000      -0.03831367       0.01075106      -0.09571764
Ni       6.35853865       2.24236610       0.11496089        4       1.00000000      -0.02556200       0.08140380       0.10067926
Pt       8.89680788       2.25632300       0.13596406        4       0.00000000      -0.00284471       0.07727295      -0.19703307
Ni       2.52097309       4.41826634       0.08702051        4       1.00000000       0.00546857       0.03615110       0.06216093
Ni       5.10774392       4.42578571       0.09054116        4       1.00000000      -0.02081988       0.06383010       0.03622863
Ni       7.59064616       4.42149396       0.09686409        4       1.00000000      -0.05298955       0.03679222       0.05568140
Ni      10.19936276       4.41806231       0.09339145        4       1.00000000       0.04772973       0.06801973       0.05177906
Ni       3.82772431       6.53552728       0.07840188        4       1.00000000       0.05198455      -0.04795576       0.04166515
Ni       6.34686580       6.54874503       0.08517933        4       1.00000000      -0.01522193      -0.01433962      -0.01332205
Ni       8.85831353       6.50973973       0.16932239        4       1.00000000      -0.08802422      -0.06282492       0.14902312
Ni      11.47642716       6.51154066       0.05906252        4       1.00000000       0.03185834      -0.05093224      -0.00885734
Ni       1.31708729       0.71797761       2.16458306        3       1.00000000      -0.01605798       0.04570955       0.05567335
Ni       3.73957542       0.71302830       2.19650266        3       1.00000000      -0.07817109      -0.06583403      -0.02097831
Ni       6.37100451       0.75390865       2.18064636        3       1.00000000       0.02285310       0.00197771      -0.01143779
Pt       8.88352958       0.69878300       2.17570645        3       0.00000000       0.03919925      -0.03711980       0.14522708
Ni       2.51096025       2.94136233       2.23588945        3       1.00000000       0.00106577       0.02877609       0.07628930
Ni       5.09120166       2.96767376       2.15879058        3       1.00000000      -0.01591115       0.11780510      -0.00533684
Ni       7.59946027       2.95793656       2.18555872        3       1.00000000      -0.00683024       0.01881308       0.05157663
Ni      10.21558034       2.97996528       2.17949770        3       1.00000000       0.05848529       0.03981043       0.02458569
Ni       3.81206314       5.08711848       2.15183419        3       1.00000000       0.00247873      -0.02966961      -0.00069797
Ni       6.33715576       5.11051691       2.10141555        3       1.00000000      -0.01298566       0.01483030       0.01072560
Ni       8.89195947       5.04175991       2.12756522        3       1.00000000       0.01096981      -0.10184472       0.00471752
Ni      11.47130216       5.05855628       2.16535246        3       1.00000000       0.04039833      -0.03159490       0.06319869
Ni       5.12304819       7.21602654       2.11413324        3       1.00000000      -0.01938023      -0.09386877       0.05738481
Ni       7.58285663       7.28989579       2.11651171        3       1.00000000      -0.05232690      -0.01220440       0.00405252
Pt      10.17400477       7.21323164       2.21892993        3       0.00000000       0.00952335      -0.09375075       0.08511847
Ni      12.71575547       7.20386953       2.10788515        3       1.00000000       0.03790822      -0.14511538       0.01660782
Pt       0.09094295       1.49460402       4.25862030        2       0.00000000       0.04520621      -0.02992270       0.00539867
Ni       2.55117028       1.46103497       4.23978034        2       1.00000000       0.02857427       0.04691732      -0.08074601
Pt       5.06195796       1.41660629       4.17774685        2       0.00000000       0.01510834       0.01682597      -0.15606071
Ni       7.61332921       1.43550799       4.28332408        2       1.00000000      -0.00778707      -0.06294456      -0.06159904
Ni       1.30926102       3.67662658       4.28802017        2       1.00000000       0.04618475      -0.00887549      -0.05840871
Ni       3.75773407       3.69887757       4.23392476        2       1.00000000       0.00793506       0.05173845      -0.14737007
Pt       6.34471990       3.64020148       4.28504682        2       0.00000000       0.02372245      -0.00533954      -0.02844035
Ni       8.94219290       3.68856771       4.23315746        2       1.00000000       0.05886701       0.06233651      -0.16702312
Ni       2.52163997       5.75193000       4.27231431        2       1.00000000      -0.01069886      -0.01749659      -0.15747659
Ni       5.05603496       5.78047778       4.27291115        2       1.00000000       0.01710175      -0.06321391      -0.13332074
Pt       7.63725443       5.85714898       4.20206207        2       0.00000000       0.04249171       0.02207556      -0.00509727
Ni      10.22910897       5.77161326       4.29156359        2       1.00000000       0.02380277      -0.04180713       0.01425568
Pt       3.80964434       7.88143214       4.22313371        2       0.00000000       0.04106662      -0.00670217       0.03105096
Ni       6.37560298       7.99786461       4.19544699        2       1.00000000      -0.01242876       0.04616900      -0.12021297
Ni       8.87127498       8.00295902       4.22459992        2       1.00000000      -0.07341396       0.02371796      -0.05415542
Ni      11.45098388       7.93312357       4.23795656        2       1.00000000       0.06010903      -0.07947009      -0.06035850
Pt       0.00874486      -0.09461681       6.51061450        1       0.00000000      -0.08084835       0.00147884       0.16708914
Pt       2.52146345      -0.02958247       6.42865682        1       0.00000000       0.05723367       0.03123315       0.03329028
Pt       5.09677289      -0.04340155       6.34149170        1       0.00000000      -0.09437695      -0.02412703       0.02979594
Pt       7.61064602      -0.07200823       6.47770073        1       0.00000000       0.03133640       0.02096381       0.13115224
Ni       1.27552371       2.23205850       6.41823215        1       1.00000000       0.02683914       0.06890953       0.01678269
Pt       3.79034480       2.30884604       6.34653551        1       0.00000000      -0.02432950       0.08192726       0.02004073
Ni       6.34309320       2.21477878       6.42787099        1       1.00000000      -0.05179527       0.02715065       0.00414038
Pt       8.87573561       2.28725348       6.33055135        1       0.00000000      -0.07201443       0.09532106       0.04019079
Ni       2.51670421       4.40960504       6.37635415        1       1.00000000       0.00439418       0.06475670      -0.07103551
Ni       5.08793488       4.41449097       6.41397731        1       1.00000000      -0.04093294       0.08997971      -0.01108843
Ni       7.56056452       4.36428368       6.43002935        1       1.00000000      -0.15448990       0.02788545       0.01448059
Ni      10.25152936       4.35202866       6.38263980        1       1.00000000       0.13901589      -0.01199835      -0.07683877
Ni       3.81029720       6.43320480       6.39786912        1       1.00000000      -0.02393469      -0.06254048      -0.02819735
Ni       6.32389627       6.46985334       6.40058153        1       1.00000000      -0.01740935       0.00917963      -0.09638055
Pt       8.92547850       6.41230739       6.46150115        1       0.00000000       0.02173362      -0.05324548       0.19607991
Ni      11.48401915       6.46422558       6.36847807        1       1.00000000       0.01950637       0.01120053      -0.10125205
