64
Lattice="10.362704818165453 -0.03662300536179561 0.012838128365235294 5.149635956076479 8.917503827437152 -0.06824289062749822 0.0 0.0 21.619079881815104" Properties=species:S:1:pos:R:3:tags:I:1:initial_magmoms:R:1:forces:R:3 unique_id=19908f474e924f5ebdf447f55afbf25a stress="0.005664643843312682 -0.00017989140238217936 0.00010945683546207266 -0.00017989140238217936 0.006031926102035431 -0.0005364056153524269 0.00010945683546207266 -0.0005364056153524269 -0.00152959148067143" energy=-377.3394913364623 pbc="T T T"
Ni       0.01099976       0.00997617       0.14423575        1       1.00000000       0.14025039      -0.05847095      -0.12482621
Ni       2.55609187      -0.00486205       0.17468969        2       1.00000000      -0.09707155       0.04562986      -0.07223830
Pt       5.15343848      -0.07434710       0.10188799        1       0.00000000      -0.11646881       0.17963379      -1.05320210
Ni       7.80733199      -0.07354709       0.15573758        2       1.00000000      -0.02343862      -0.13467726      -0.16039596
Ni       1.25422652       2.22824071       0.05946429        1       1.00000000      -0.11745529       0.00915902       0.53390481
Pt       3.79018028       2.26428921       0.07440714        1       0.00000000       0.05637332      -0.02912698       0.03641419
Pt       6.50381329       2.22869030       0.10692010        1       0.00000000      -0.02769225       0.06682280      -0.63736796
Ni       9.10675447       2.19461094       0.11765751        1       1.00000000       0.07914257       0.13690135       0.02806777
Ni       2.57009395       4.47102283       0.00974285        0       1.00000000       0.08291762       0.02015522       0.28569935
Ni       5.13119780       4.46853280       0.12136533        1       1.00000000      -0.07142426       0.11102992       0.13035314
Pt       7.83966151       4.45878213       0.05351555        1       0.00000000       0.01553083      -0.00317345       0.05348776
Ni      10.37669915       4.41364942       0.01981989        0       1.00000000       0.05810947      -0.11464425       0.34020437
Ni       3.83513358       6.67465279       0.11013759        1       1.00000000      -0.00949733      -0.06683193       0.15889626
Pt       6.42373187       6.70884253       0.11629185        1       0.00000000      -0.14180958       0.01173548      -0.42341234
Ni       9.05087309       6.64103504       0.00000000        0       1.00000000      -0.04604665      -0.00784279       0.13266322
Ni      11.66222412       6.62053198       0.00209641        0       1.00000000       0.11611939       0.01041011       0.25353794
Ni       1.31573642       0.73941350       2.15301506        4       1.00000000       0.06934649       0.10595291      -0.01036860
Ni       3.84318376       0.74253725       2.19390421        4       1.00000000      -0.00339928       0.05146818       0.16477061
Pt       6.47900373       0.76307776       2.27515577        5       0.00000000      -0.03594725       0.18403598       0.16260326
Pt       9.13761348       0.73116176       2.17301683        4       0.00000000       0.06998248       0.09787667       0.17226173
Ni       2.58503132       2.94297580       2.17902816        4       1.00000000       0.03079504      -0.01711730       0.12652008
Ni       5.13086820       2.99146716       2.20009325        4       1.00000000      -0.19078134       0.10793497       0.14307601
Ni       7.80949057       2.98035487       2.21229829        4       1.00000000       0.17338461       0.10726021       0.18153529
Ni      10.35774696       2.92287179       2.16593635        4       1.00000000       0.12412485       0.03284757       0.04542281
Ni       3.90256446       5.17861918       2.16136175        4       1.00000000       0.11696185      -0.06233192       0.13764550
Ni       6.44454654       5.17524110       2.18390762        4       1.00000000      -0.07930733       0.04076834       0.17515570
Ni       9.02314483       5.12711787       2.18786411        4       1.00000000      -0.08381428      -0.20322251       0.22833765
Pt      11.69974449       5.09549560       2.10050286        3       0.00000000       0.15192777      -0.17208206       0.01162640
Ni       5.13918886       7.37547134       2.13306767        3       1.00000000      -0.11509392      -0.17895772       0.10149980
Ni       7.73093542       7.39421005       2.12956376        3       1.00000000       0.01829281      -0.09019547       0.01598987
Pt      10.29186088       7.30962043       2.10962562        3       0.00000000       0.02232142      -0.20805645      -0.17658581
Ni      12.96772176       7.34661105       2.10440140        3       1.00000000       0.04101596      -0.07864027       0.04055802
Ni      -0.01253634       1.48543302       4.33865415        7       1.00000000      -0.02389385      -0.03109275      -0.20109879
Pt       2.61773507       1.50129402       4.30186436        7       0.00000000      -0.03464643      -0.02559975      -0.14302236
Ni       5.16454543       1.48106028       4.34584591        7       1.00000000      -0.05948479       0.17457753      -0.24652591
Ni       7.80922919       1.46610041       4.34873043        7       1.00000000       0.16682001       0.03315991      -0.22251859
Pt       1.28360433       3.67558430       4.37686506        8       0.00000000      -0.05367669      -0.02580920      -0.05538802
Ni       3.88739363       3.70524810       4.31328907        7       1.00000000       0.06120606       0.13246774      -0.30664964
Pt       6.48146349       3.70279151       4.22938396        6       0.00000000      -0.05730569       0.02372236      -0.09555727
Ni       9.04162391       3.63922609       4.32244879        7       1.00000000      -0.05756986      -0.13332337      -0.33829780
Ni       2.60211679       5.86923900       4.31376411        7       1.00000000       0.12111203      -0.16402090      -0.21921639
Ni       5.14206771       5.86277246       4.27015694        7       1.00000000      -0.09379641      -0.07838811      -0.41026045
Ni       7.75955712       5.84979134       4.29208145        7       1.00000000      -0.06915921      -0.04229186      -0.36325252
Pt      10.29807265       5.82129723       4.39765372        8       0.00000000      -0.06203800      -0.04630525      -0.05761734
Pt       3.87217698       8.11068567       4.22740941        6       0.00000000       0.03303296      -0.03698060      -0.02846255
Pt       6.43203686       8.10039601       4.18029940        6       0.00000000      -0.08956092       0.01011254      -0.20728406
Pt       9.00489672       8.10774744       4.24785603        6       0.00000000      -0.09439009      -0.04030974      -0.09482234
Pt      11.66932613       8.09398084       4.28345520        7       0.00000000       0.08044789      -0.12808794      -0.00124351
Pt       0.02990774       0.00322639       6.59031350       11       0.00000000       0.07699592       0.06191786       0.17281283
Pt       2.60612967       0.00249850       6.61907988       11       0.00000000       0.01896161       0.03376661       0.28625264
Pt       5.16652943      -0.10414520       6.49571154       10       0.00000000      -0.03386430       0.14190984       1.13126654
Pt       7.77268929      -0.08216571       6.61439610       11       0.00000000       0.01069787       0.26416070       0.41159306
Ni       1.31666926       2.24442577       6.52774675       10       1.00000000       0.04216379       0.05668605      -0.18361583
Ni       3.84967535       2.20720579       6.45249001       10       1.00000000      -0.01533529      -0.02278692       0.04430062
Pt       6.47325150       2.19179078       6.43434616        9       0.00000000       0.05024272      -0.06633211       0.57391081
Pt       9.12874856       2.27322521       6.51151446       10       0.00000000      -0.00655597       0.07880805      -0.01800404
Ni       2.53148154       4.38739421       6.50565068       10       1.00000000      -0.04751306      -0.01570128      -0.24326288
Pt       5.10269506       4.36356923       6.50825426       10       0.00000000      -0.10608374       0.06762171      -0.02407764
Ni       7.81151328       4.42127413       6.42948660        9       1.00000000       0.08759608       0.09567603      -0.11622936
Ni      10.37192582       4.41875998       6.53240234       10       1.00000000       0.03161142       0.05459034      -0.16953696
Pt       3.79131911       6.57806364       6.50719688       10       0.00000000       0.09175593      -0.12265983      -0.01165833
Pt       6.52260992       6.57502623       6.42342000        9       0.00000000      -0.09083226      -0.06134121       0.34618462
Ni       9.07251585       6.56887680       6.50586315       10       1.00000000      -0.08234152      -0.01139565      -0.09659904
Ni      11.61449288       6.55372726       6.51050424       10       1.00000000      -0.00194533      -0.07100186      -0.11395379
