64
Lattice="10.338759542409889 -0.010532791831070872 0.016393620596911646 5.1602581059064665 8.874750298408262 0.0147587066053012 0.013385335166404713 0.0061866151680179515 8.80224908636876" Properties=species:S:1:pos:R:3:tags:I:1:initial_magmoms:R:1:forces:R:3 unique_id=4ab48f64c73445059a513cb0dc51ec94 stress="0.000243433396165893 4.007618531686567e-06 -1.4674038171789005e-05 4.007618531686567e-06 0.00024559789877526966 3.424160983462217e-06 -1.4674038171789005e-05 3.424160983462217e-06 0.000236054662250261" energy=-398.46900873027244 pbc="T T T"
Ni       0.00109075       0.02304177       0.18265453        4       1.00000000       0.04646385       0.09453937       0.25917247
Ni       2.58344775       0.00670168       0.21677526        4       1.00000000       0.01042393       0.03462115       0.40590541
Ni       5.16484943      -0.01303959       0.16526250        4       1.00000000      -0.04201803       0.13010870       0.20897127
Ni       7.76038677      -0.04484703       0.19385817        4       1.00000000      -0.02069757      -0.11023599       0.35586265
Ni       1.26130559       2.22601200       0.19167236        4       1.00000000      -0.13280943       0.02921878       0.31516400
Pt       3.81665731       2.22465259       0.11754274        4       0.00000000      -0.04674187       0.07035789      -0.16460263
Pt       6.48385352       2.16698950       0.12234208        4       0.00000000       0.09240105      -0.04704840      -0.08180991
Ni       9.08461528       2.21556161       0.16153934        4       1.00000000       0.14529407       0.06614608       0.12035723
Ni       2.56196069       4.45770949       0.06505170        4       1.00000000      -0.05232077       0.02769325      -0.08182020
Ni       5.15927796       4.44423830       0.16854236        4       1.00000000       0.19387277      -0.06106297       0.22582217
Pt       7.82617948       4.44554415       0.12095114        4       0.00000000       0.13569624       0.01478808      -0.12070114
Ni      10.35918293       4.42701247       0.09526283        4       1.00000000       0.08648469      -0.05495248       0.09585251
Ni       3.83555055       6.67606881       0.09808657        4       1.00000000      -0.08278033       0.10962576       0.09662298
Pt       6.43250597       6.70467307       0.21335823        4       0.00000000      -0.05157108       0.03595438       0.17606443
Ni       9.06249990       6.66528355       0.09763305        4       1.00000000      -0.00305408       0.03255803       0.02908656
Ni      11.64159782       6.64998486       0.08335732        4       1.00000000       0.09977753      -0.00527513      -0.01805471
Ni       1.30554804       0.76391961       2.16896794        3       1.00000000      -0.01411475       0.12255560      -0.02337705
Ni       3.86890171       0.76191861       2.20746270        3       1.00000000       0.04825190       0.06955418       0.02933461
Ni       6.45851851       0.76235967       2.23630520        3       1.00000000      -0.02531357       0.11575996       0.12132709
Pt       9.05465808       0.77964232       2.19653208        3       0.00000000      -0.03461046       0.12722448       0.14796426
Ni       2.56773393       2.93664002       2.21100972        3       1.00000000      -0.06257119       0.03849563      -0.05872834
Ni       5.17527028       2.92701789       2.24708788        3       1.00000000      -0.04179759      -0.11829932       0.05001721
Ni       7.76949297       2.96619621       2.25333572        3       1.00000000       0.10070629       0.04804884      -0.03618745
Ni      10.33444522       2.94349453       2.23264604        3       1.00000000      -0.02694541       0.02960999       0.11106054
Pt       3.88887186       5.15631667       2.17065549        3       0.00000000      -0.04980276      -0.06381259      -0.03300945
Ni       6.49730247       5.15919635       2.24033217        3       1.00000000       0.12459967      -0.02537256      -0.01587088
Ni       9.01796944       5.14972180       2.25421043        3       1.00000000      -0.04625442      -0.07854650       0.14973070
Pt      11.60886447       5.10541519       2.19434813        3       0.00000000      -0.03579057      -0.06150164      -0.00606262
Ni       5.15466884       7.41330167       2.20973600        3       1.00000000      -0.13323259       0.01136617      -0.05104097
Ni       7.75183053       7.39241605       2.22221111        3       1.00000000       0.03607442      -0.08956879      -0.00645338
Pt      10.31188729       7.40527278       2.13421335        3       0.00000000       0.01430160      -0.11588166      -0.06279592
Ni      12.92552469       7.38830874       2.19377553        3       1.00000000      -0.01146700      -0.09151774      -0.04260222
Ni      -0.01005566       1.55214861       4.34737354        2       1.00000000       0.02960018       0.18428373      -0.07467511
Pt       2.60705278       1.58499838       4.29112210        2       0.00000000      -0.06246986       0.01101662      -0.01328820
Ni       5.18308977       1.51203539       4.36488615        2       1.00000000      -0.00962587      -0.00204462      -0.16743055
Ni       7.76821355       1.50041840       4.36454613        2       1.00000000       0.06723093      -0.06644852      -0.11248237
Ni       1.29573290       3.71040249       4.37006336        2       1.00000000       0.00725766      -0.03137519      -0.14882071
Ni       3.85687978       3.69996408       4.37950862        2       1.00000000      -0.02503646       0.04187509      -0.17714251
Pt       6.51570413       3.63690049       4.33036389        2       0.00000000      -0.01125987      -0.02832001      -0.05926580
Ni       9.05810413       3.67323978       4.35353146        2       1.00000000       0.05861730      -0.13362118      -0.29602775
Ni       2.56966242       5.86919324       4.42537313        2       1.00000000      -0.04584896      -0.09121621      -0.06299024
Pt       5.14440916       5.86490232       4.34048859        2       0.00000000       0.09016464      -0.02201965       0.04348303
Ni       7.78061965       5.86536788       4.36223601        2       1.00000000       0.01481201      -0.08407024      -0.22533003
Pt      10.32979991       5.81126312       4.45810138        2       0.00000000      -0.03062262      -0.01224412      -0.06808284
Pt       3.85793666       8.14491197       4.33971560        2       0.00000000      -0.04249559      -0.03507224       0.10179256
Pt       6.45921022       8.16401645       4.26568689        2       0.00000000      -0.05281062       0.04567041       0.00859644
Pt       9.03770131       8.12344228       4.34445979        2       0.00000000      -0.07494826       0.04027302       0.06560776
Pt      11.63860298       8.14967426       4.33500886        2       0.00000000       0.05346614       0.01670341      -0.00327430
Pt       0.00072352      -0.00784800       6.59050049        1       0.00000000      -0.00094673       0.00657117       0.11111812
Pt       2.62131468       0.01191534       6.61909642        1       0.00000000      -0.01899480       0.04588887       0.23489136
Pt       5.18494400       0.00445403       6.58926622        1       0.00000000      -0.02436861      -0.06292916       0.04862563
Pt       7.74110211      -0.04105148       6.61828999        1       0.00000000       0.00849721      -0.12089649       0.18152356
Pt       1.32389836       2.34675263       6.55726931        1       0.00000000       0.02143754       0.18913418       0.18268681
Ni       3.89100879       2.23854776       6.45831805        1       1.00000000      -0.04939014      -0.06617117      -0.30461078
Ni       6.46056372       2.22216125       6.46352234        1       1.00000000      -0.01608024      -0.05710502      -0.25196689
Pt       9.00867959       2.30875528       6.52225113        1       0.00000000      -0.04434105       0.05159098       0.00473124
Ni       2.57504123       4.48936965       6.51695749        1       1.00000000      -0.06899209       0.18300595      -0.26507038
Pt       5.10961357       4.36289495       6.57945317        1       0.00000000      -0.06391329      -0.07814830       0.09883937
Ni       7.78730685       4.44453971       6.46288232        1       1.00000000       0.04378509       0.04187816      -0.30311531
Ni      10.34414170       4.47494474       6.56136448        1       1.00000000      -0.03367698       0.09387099      -0.01617869
Ni       3.83149107       6.61408337       6.54768963        1       1.00000000      -0.07024277      -0.10715360      -0.15023751
Pt       6.51358304       6.58292092       6.51017470        1       0.00000000       0.03552218      -0.06962329      -0.22247058
Ni       9.08330859       6.59800715       6.56001494        1       1.00000000       0.06778778      -0.07067959      -0.11322427
Ni      11.64286951       6.58864831       6.56443289        1       1.00000000       0.02743163      -0.09777450      -0.14141029
