64
Lattice="10.149350957347869 -0.005303880630773438 -0.0015789533491542553 5.070082183309098 8.714514601107638 -0.035165755375075526 -0.0012892100110288931 -0.03241026637477503 8.673277607901593" Properties=species:S:1:pos:R:3:tags:I:1:initial_magmoms:R:1:forces:R:3 unique_id=90083d07c0d14b02910bc88317322b63 stress="-0.007030263638921716 8.308245379812973e-06 -3.7913241599706914e-06 8.308245379812973e-06 -0.0069981192872689765 -2.2286458551374355e-05 -3.7913241599706914e-06 -2.2286458551374355e-05 -0.006024646015533278" energy=-389.555476198412 pbc="T T T"
Ni       0.04239628      -0.05175254       0.20811595        4       1.00000000       0.07908408      -0.04061117       0.15646335
Ni       2.49035936      -0.03431981       0.22166460        4       1.00000000       0.03162338      -0.02165450       0.15858999
Pt       5.10041047      -0.01878764       0.15703041        4       0.00000000      -0.00504298       0.05567350      -0.20895768
Ni       7.62424496      -0.05731352       0.18414186        4       1.00000000      -0.00449288      -0.07441929       0.11203487
Ni       1.25995759       2.19301571       0.12650595        4       1.00000000      -0.02749232       0.04281751       0.13865284
Pt       3.76458806       2.25232741       0.17770376        4       0.00000000      -0.02382217       0.04737963      -0.12605441
Ni       6.34570634       2.23158874       0.12156522        4       1.00000000      -0.03108759       0.10402528       0.13096849
Pt       8.87893399       2.23850413       0.13509545        4       0.00000000      -0.00630308       0.09123411      -0.20680905
Ni       2.51101676       4.40213172       0.09353958        4       1.00000000       0.01135365       0.04622777       0.05091647
Ni       5.09460486       4.40818171       0.09975975        4       1.00000000      -0.00364535       0.07347589       0.07057766
Ni       7.57164730       4.39937203       0.10637553        4       1.00000000      -0.05394191       0.05453705       0.08413885
Ni      10.17877054       4.39199276       0.09925489        4       1.00000000       0.02471808       0.09107320       0.07420475
Ni       3.81411910       6.50935526       0.08913327        4       1.00000000       0.06749372      -0.03046288       0.02932194
Ni       6.32746167       6.51825971       0.09151275        4       1.00000000      -0.02167317      -0.00456061      -0.03328942
Ni       8.83048082       6.47372594       0.15929016        4       1.00000000      -0.09574532      -0.04988503       0.08635776
Ni      11.45860484       6.47290836       0.05442507        4       1.00000000       0.07855034      -0.03458528      -0.09545537
Ni       1.31598472       0.71693333       2.16845608        3       1.00000000       0.03029746       0.01303983       0.11931484
Ni       3.77292549       0.75487266       2.21066384        3       1.00000000       0.01611215       0.02139066       0.00553972
Ni       6.32798562       0.76615673       2.23029310        3       1.00000000      -0.05189004       0.01991626       0.05178387
Pt       8.86035695       0.69058671       2.17681912        3       0.00000000       0.00047293      -0.01645001       0.17251659
Ni       2.50935391       2.93008036       2.23369193        3       1.00000000      -0.00164947       0.02409563       0.04153134
Ni       5.07612280       2.92667572       2.19381438        3       1.00000000      -0.04281666       0.07632871      -0.00667973
Ni       7.58101839       2.94155129       2.18903267        3       1.00000000      -0.01470991       0.01126290       0.04146395
Ni      10.19286917       2.96283365       2.18117590        3       1.00000000       0.02011214       0.04523803       0.03607707
Ni       3.80641168       5.06402772       2.15864054        3       1.00000000       0.04062824      -0.04621575      -0.00708497
Ni       6.33403295       5.08843119       2.13692761        3       1.00000000      -0.02777850      -0.02021759       0.02283007
Ni       8.84746266       5.02332483       2.16737164        3       1.00000000      -0.04018870      -0.04821302       0.04229175
Ni      11.45568838       5.01546832       2.16922438        3       1.00000000       0.07543912      -0.06176925       0.06030544
Ni       5.10662572       7.18376592       2.12599038        3       1.00000000      -0.02785556      -0.08987725       0.04731368
Ni       7.54621608       7.21597066       2.12401622        3       1.00000000      -0.02862725      -0.10004037       0.04085618
Pt      10.19071888       7.14795863       2.16726135        3       0.00000000       0.02556544      -0.12646203       0.03868526
Ni      12.69788804       7.16317726       2.11477777        3       1.00000000       0.08514037      -0.15680952       0.01244981
Pt       0.09042579       1.49733677       4.25570675        2       0.00000000       0.08201833      -0.07032708       0.00113052
Ni       2.56632414       1.49467509       4.23103980        2       1.00000000       0.08549391       0.06740460      -0.07803773
Ni       5.08009611       1.45710559       4.21972644        2       1.00000000      -0.05298045       0.02208292      -0.14564688
Ni       7.56356945       1.43001565       4.27592211        2       1.00000000      -0.01951768      -0.06602376      -0.02615507
Ni       1.30265268       3.67065461       4.28955681        2       1.00000000       0.04012984      -0.01435204      -0.05451507
Ni       3.76730511       3.67422072       4.22029219        2       1.00000000       0.01183701       0.09004402      -0.16116160
Pt       6.33063854       3.62914028       4.27680699        2       0.00000000       0.00825714      -0.03540242      -0.01264775
Ni       8.89695857       3.69468662       4.23163824        2       1.00000000       0.02744624       0.05428779      -0.13565545
Ni       2.51056725       5.73105374       4.27524868        2       1.00000000      -0.01583001      -0.01798219      -0.16015960
Ni       5.07135746       5.76004691       4.27456063        2       1.00000000      -0.00281698      -0.06621829      -0.13651831
Ni       7.58606910       5.77790527       4.23868582        2       1.00000000      -0.00790419      -0.00572089      -0.11966999
Ni      10.18696100       5.72864002       4.28279735        2       1.00000000       0.01011843      -0.01373299      -0.04457328
Pt       3.79068480       7.85339362       4.23341033        2       0.00000000       0.01042580      -0.00207207       0.04270471
Ni       6.33080218       7.90801375       4.21212714        2       1.00000000      -0.04985708      -0.05718203      -0.08176630
Pt       8.81832977       7.96293037       4.18868784        2       0.00000000      -0.07922438      -0.05299407      -0.04308952
Ni      11.42435451       7.92969149       4.23063786        2       1.00000000       0.02500701      -0.08304756      -0.11589944
Pt       0.00621545      -0.08730975       6.50294958        1       0.00000000      -0.09315410      -0.02132451       0.17250620
Pt       2.51021777      -0.01391036       6.47396263        1       0.00000000       0.07906787       0.05398935       0.15336928
Pt       5.10191850      -0.01041339       6.32103430        1       0.00000000      -0.07173375       0.06226799      -0.00047830
Pt       7.60285135      -0.07536622       6.46395857        1       0.00000000       0.04087485      -0.00246756       0.15354652
Ni       1.27672240       2.23771153       6.41340307        1       1.00000000       0.03739450       0.06851362       0.01721597
Pt       3.80147903       2.29998474       6.30030110        1       0.00000000       0.00850519       0.06033304      -0.03817889
Ni       6.33402789       2.21546705       6.40583195        1       1.00000000      -0.03567593       0.02359703       0.01034737
Pt       8.85890833       2.27727522       6.31590593        1       0.00000000      -0.05914988       0.07229934       0.03179464
Ni       2.51032998       4.39586684       6.37304835        1       1.00000000       0.00850683       0.05934247      -0.07200596
Ni       5.07934054       4.40052949       6.40459583        1       1.00000000      -0.03567157       0.07765624       0.00083206
Ni       7.53523190       4.34610819       6.41202293        1       1.00000000      -0.14341342       0.02428102       0.01425429
Ni      10.23203342       4.33333566       6.37560336        1       1.00000000       0.13001674      -0.00641488      -0.07552182
Ni       3.79531296       6.41017615       6.39941054        1       1.00000000      -0.02408613      -0.07726107      -0.02356144
Ni       6.30943391       6.44031372       6.37626711        1       1.00000000       0.00040273       0.00533644      -0.14869859
Pt       8.88035556       6.37483112       6.42684398        1       0.00000000       0.00861235      -0.05369042       0.10269589
Ni      11.44934322       6.43615385       6.36087126        1       1.00000000      -0.00092748       0.00929556      -0.16731237
