64
Lattice="10.345526480638018 -0.01918856625718657 0.025851631372557065 5.156145454478088 8.929571948603234 -0.005486819191335623 0.0 0.0 21.600746538128366" Properties=species:S:1:pos:R:3:tags:I:1:initial_magmoms:R:1:forces:R:3 unique_id=c0d250955525482e9c766249c17aed94 energy=-378.5831027112997 stress="0.006136501481368459 -0.00025871260634303836 8.230309759341392e-05 -0.00025871260634303836 0.005648966941758574 -8.56564192077919e-05 8.230309759341392e-05 -8.56564192077919e-05 -0.0010394328577258138" pbc="T T T"
Ni       0.05390447       0.00227243       0.11497250        1       1.00000000       0.17940628       0.03203211      -0.00731806
Ni       2.54006480       0.00870731       0.15142355        2       1.00000000      -0.12355347       0.06662369       0.07535296
Pt       5.07780668      -0.02554297       0.08483008        1       0.00000000      -0.13381119       0.06777585      -0.91623550
Pt       7.82928868      -0.08104526       0.12601861        1       0.00000000       0.00801483      -0.15401884      -0.89113643
Ni       1.29943905       2.23799505       0.04915849        0       1.00000000      -0.01484735       0.00817029       0.48719342
Pt       3.78415357       2.29006030       0.06091056        1       0.00000000       0.03226461      -0.06375974       0.20437083
Pt       6.43559143       2.28831959       0.02489711        0       0.00000000       0.05130656       0.05262927      -0.20954437
Pt       9.15333599       2.25064804       0.11716910        1       0.00000000      -0.07823378       0.12061838      -0.49254005
Ni       2.58786486       4.45184220       0.02061230        0       1.00000000       0.03677468       0.01941377       0.36862355
Ni       5.12468530       4.49014720       0.05515549        1       1.00000000      -0.08068314       0.14786152       0.43684434
Pt       7.78728099       4.51862541       0.07427675        1       0.00000000       0.00293772       0.07936738       0.07375104
Ni      10.37148160       4.43428398       0.04687149        0       1.00000000       0.09691748      -0.07635023       0.32483606
Ni       3.88684190       6.65000449       0.12571555        1       1.00000000      -0.00339461      -0.15174297       0.17374236
Pt       6.41917798       6.73531858       0.14455479        1       0.00000000      -0.02083365       0.06683945      -0.17511014
Ni       9.02347443       6.67412320       0.12011635        1       1.00000000      -0.14862995      -0.00132408      -0.21559618
Pt      11.64928045       6.57976087       0.00000000        0       0.00000000       0.13659542       0.13374674      -0.25890075
Ni       1.33572431       0.73850596       2.17875750        3       1.00000000       0.17895854       0.01284182       0.09923789
Ni       3.81803866       0.77055358       2.20509815        3       1.00000000      -0.12185606       0.09830472       0.20815201
Pt       6.42165948       0.80851510       2.25180656        4       0.00000000      -0.14079024       0.19289873       0.00978898
Pt       9.18415028       0.72471441       2.25146765        4       0.00000000       0.17750743       0.06340423       0.05529184
Ni       2.59034755       2.95661769       2.19825933        3       1.00000000       0.07536522      -0.07443361       0.12854727
Ni       5.12852015       3.02581715       2.22272824        3       1.00000000      -0.16403954       0.22261029       0.19174673
Ni       7.77288488       3.02699775       2.22480626        3       1.00000000       0.02027070       0.16540770       0.22256408
Ni      10.37675366       2.96221773       2.24995657        3       1.00000000       0.12383237      -0.04302994       0.30811038
Ni       3.91318211       5.19239124       2.19309802        3       1.00000000       0.17551126      -0.08066555       0.12121170
Ni       6.44337713       5.20507140       2.23220734        3       1.00000000      -0.09994414       0.03803139       0.22713719
Ni       9.01158392       5.15525491       2.21939733        3       1.00000000      -0.10862687      -0.22208479       0.26082187
Pt      11.69679915       5.08336027       2.22514865        3       0.00000000       0.16452612      -0.16121446       0.05475256
Ni       5.18622637       7.39667247       2.20384807        3       1.00000000       0.06572713      -0.16270024       0.27408600
Ni       7.69691878       7.43160730       2.20443775        3       1.00000000      -0.16985462      -0.01597220       0.28340913
Pt      10.26659065       7.35732916       2.19027295        3       0.00000000      -0.00840299      -0.20334696      -0.03452669
Ni      12.96960617       7.36031855       2.20912156        3       1.00000000       0.09961546      -0.23046176       0.22456002
Ni       0.04677096       1.52618056       4.35138116        6       1.00000000       0.06581171       0.07406900      -0.16674704
Pt       2.55900986       1.57144210       4.31744620        5       0.00000000       0.00451531       0.01692895      -0.06066616
Ni       5.14671148       1.53186020       4.38236794        6       1.00000000      -0.16456055       0.16840802      -0.27822368
Pt       7.78129903       1.54913397       4.36369496        6       0.00000000       0.03041523      -0.00120186      -0.09822199
Ni       1.30501696       3.69909805       4.39342249        6       1.00000000       0.01327356      -0.02739349      -0.04167659
Ni       3.86965689       3.74444934       4.37915696        6       1.00000000      -0.06149850       0.18392761      -0.19008964
Pt       6.41486675       3.78013554       4.35775108        6       0.00000000      -0.10409318       0.10133616      -0.18806083
Ni       9.06688944       3.71429699       4.34664448        5       1.00000000      -0.07091464      -0.00899564      -0.40145444
Ni       2.61788824       5.86612695       4.36016222        6       1.00000000       0.13924932      -0.29718236      -0.22194230
Ni       5.16389340       5.91019810       4.31625848        5       1.00000000      -0.04942744      -0.07951401      -0.41124705
Ni       7.73702286       5.91374570       4.32701551        5       1.00000000      -0.05872292      -0.00753616      -0.45395935
Pt      10.34199428       5.79858854       4.39590881        6       0.00000000      -0.05302559      -0.06224074      -0.05342517
Pt       3.96488174       8.09565035       4.29214026        5       0.00000000       0.12027210      -0.13435350      -0.01863459
Ni       6.45967308       8.15672355       4.31602340        5       1.00000000      -0.03648809      -0.02060026      -0.36608973
Pt       8.95305723       8.16633709       4.30215718        5       0.00000000      -0.14077974      -0.00863219      -0.13808940
Pt      11.65285136       8.10174689       4.33872851        5       0.00000000       0.05464094      -0.20047660      -0.16877908
Pt       0.03115643       0.03149211       6.55732416        9       0.00000000       0.00249161       0.07106481       0.16721451
Pt       2.59765443       0.06287053       6.60074654        9       0.00000000       0.02623896      -0.00666639       0.17439843
Pt       5.17832081       0.05560092       6.48798903        8       0.00000000      -0.04548200       0.20586041       0.79643459
Pt       7.76720874      -0.02169521       6.53785073        8       0.00000000       0.05586612       0.08049417       1.00144359
Ni       1.32715298       2.29339012       6.53238984        8       1.00000000       0.04297105       0.17452788      -0.32214435
Ni       3.88729527       2.29491912       6.47116469        8       1.00000000       0.01920276       0.16391080      -0.18685872
Ni       6.44729327       2.26963314       6.47684162        8       1.00000000      -0.07101896       0.06848107       0.10105020
Pt       9.10838263       2.33546782       6.49626742        8       0.00000000       0.12049331       0.05499866       0.61603947
Ni       2.57280457       4.40827715       6.51917893        8       1.00000000      -0.04114441      -0.16666804      -0.54435136
Ni       5.16085887       4.38905755       6.53721843        8       1.00000000      -0.13487430      -0.10694681      -0.38233356
Ni       7.74725574       4.42293738       6.48068291        8       1.00000000      -0.00957917       0.00820956      -0.09038700
Ni      10.41044236       4.42972000       6.55906593        9       1.00000000       0.22267246      -0.01382003      -0.23520762
Pt       3.82762108       6.55193011       6.54961540        8       0.00000000      -0.04309557      -0.12937485      -0.06762772
Pt       6.45816975       6.59624684       6.44888095        7       0.00000000      -0.02183960      -0.00600092       0.23688068
Pt       9.08801637       6.58726688       6.59931768        9       0.00000000      -0.08081798       0.06324557       0.19642494
Ni      11.64414239       6.61656510       6.48406450        8       1.00000000       0.06121801      -0.10533085       0.18310689
