64
Lattice="10.459958189375651 0.03998153590018287 0.06486934355933346 5.264604120459707 9.131488506039554 0.019141890147653152 0.05296559722322184 -0.01253255471043844 9.047038721445933" Properties=species:S:1:pos:R:3:tags:I:1:initial_magmoms:R:1:forces:R:3 unique_id=4796e5a4fa794a3c890e068aa912ad3a stress="0.0029538580727347247 5.535217703941611e-05 -4.372903380523339e-06 5.535217703941611e-05 0.003013303907112866 6.347450739071744e-07 -4.372903380523339e-06 6.347450739071744e-07 0.002475641312009315" energy=-408.01075973977754 pbc="T T T"
Pt      -0.06761547       0.05193652       0.01225822        4       0.00000000      -0.10381558       0.06064622      -0.15870061
Ni       2.65293675      -0.01245838       0.07926981        4       1.00000000       0.10335759      -0.04802395       0.12858614
Ni       5.27912413      -0.01500422       0.19365554        4       1.00000000       0.15275886      -0.06590960       0.22500226
Ni       7.79983848       0.07103439       0.15844872        4       1.00000000      -0.09811059       0.09763056       0.17339087
Pt       1.26792047       2.29877622      -0.01511554        4       0.00000000      -0.02238272       0.04749329      -0.20663580
Pt       4.00988185       2.21868713       0.15191041        4       0.00000000       0.09584973      -0.06714619      -0.01756809
Ni       6.60322012       2.25317752       0.19453196        4       1.00000000       0.08037360      -0.13136565       0.12118001
Ni       9.11517967       2.32774838       0.13311788        4       1.00000000      -0.11722356       0.04144042       0.11882492
Pt       2.53953430       4.61374263       0.14390090        4       0.00000000      -0.06533787       0.02891043      -0.09576980
Pt       5.35798048       4.51660252       0.19655885        4       0.00000000       0.16330413      -0.08596100       0.01798655
Ni       7.93155498       4.56413261       0.19731541        4       1.00000000       0.15319982      -0.01653624       0.15234561
Ni      10.42111154       4.63412340       0.13980080        4       1.00000000      -0.11671028       0.10596250       0.09678353
Pt       3.85913399       6.91161606       0.14492569        4       0.00000000      -0.06215743       0.05330160      -0.12519245
Pt       6.66496882       6.83645685       0.16018975        4       0.00000000       0.07072081      -0.03618210      -0.06005245
Ni       9.23243006       6.84618892       0.11831992        4       1.00000000       0.12415338      -0.05458743       0.07692317
Ni      11.75887041       6.89985362       0.20813374        4       1.00000000      -0.01110223       0.02535770       0.06695517
Pt       1.30189743       0.76377618       2.26407148        3       0.00000000      -0.01001075       0.02283780      -0.09565952
Pt       4.05709853       0.75279751       2.32886376        3       0.00000000       0.06033387      -0.06762705       0.18002583
Ni       6.60430170       0.78983476       2.29257535        3       1.00000000       0.08261552      -0.00924976       0.01242131
Ni       9.09500733       0.80479640       2.31216590        3       1.00000000      -0.08193624       0.05930371      -0.02623948
Pt       2.63041512       3.06213051       2.30286296        3       0.00000000      -0.02806729      -0.01641236      -0.00140611
Ni       5.30843256       3.02684425       2.32921794        3       1.00000000       0.02662037      -0.07207497       0.09169784
Pt       7.80445143       3.05298586       2.32732567        3       0.00000000      -0.01265968      -0.01414931       0.03821211
Pt      10.39858983       3.14620946       2.29860097        3       0.00000000      -0.01639280      -0.02440864      -0.10736333
Pt       3.96031760       5.33352171       2.30291624        3       0.00000000       0.02220072       0.01156124       0.04310258
Ni       6.62523429       5.29408035       2.33195152        3       1.00000000       0.10666299      -0.05808050       0.08966652
Ni       9.18277629       5.33699908       2.32653941        3       1.00000000      -0.00734810      -0.03186846       0.06139455
Ni      11.75500932       5.37424639       2.33968172        3       1.00000000      -0.05521216      -0.05893824       0.05585727
Pt       5.23253670       7.63244958       2.29833866        3       0.00000000       0.00185554       0.04635079      -0.04050494
Pt       7.94791888       7.52343947       2.33040244        3       0.00000000       0.03482746       0.00388224       0.10476374
Pt      10.57910926       7.55637847       2.26749012        3       0.00000000       0.00065577      -0.07363084       0.14834461
Ni      13.09071412       7.69730938       2.33099644        3       1.00000000       0.00958888       0.13034524       0.01817828
Pt      -0.08882422       1.58677771       4.56648489        2       0.00000000      -0.14025148       0.10586185      -0.18653661
Pt       2.64370591       1.51022351       4.53940516        2       0.00000000      -0.06321010       0.00918789      -0.09227082
Ni       5.32615843       1.55358947       4.50644704        2       1.00000000       0.10355789       0.07517069      -0.04064870
Ni       7.84369539       1.59424036       4.52266169        2       1.00000000      -0.08914470       0.09871698      -0.11725593
Pt       1.22543924       3.85078593       4.50965270        2       0.00000000      -0.08437055       0.05175438      -0.12635286
Pt       4.05533007       3.75010949       4.47246421        2       0.00000000       0.04535693       0.03265977      -0.07162630
Ni       6.65101970       3.77902381       4.50581571        2       1.00000000       0.09542640      -0.03200170      -0.01341561
Ni       9.13496765       3.86414057       4.53958616        2       1.00000000      -0.11398266       0.05447570      -0.14031742
Pt       2.59104627       6.10414868       4.43986941        2       0.00000000      -0.05929379       0.07526685      -0.07744139
Pt       5.38879432       6.03860390       4.47643051        2       0.00000000       0.07034482      -0.03839273      -0.08698900
Ni       7.95677055       6.02168594       4.52028938        2       1.00000000       0.08469474      -0.15579978      -0.09991628
Ni      10.44177616       6.08060830       4.56023353        2       1.00000000      -0.12298638      -0.04387936      -0.04155350
Pt       3.93241345       8.43903999       4.48964722        2       0.00000000      -0.05535830       0.05350576      -0.12823481
Pt       6.59632105       8.37888418       4.55762167        2       0.00000000      -0.06903221       0.07642165      -0.10106735
Pt       9.22670067       8.29406030       4.60159226        2       0.00000000      -0.06020506      -0.03587221       0.11454640
Pt      11.81107904       8.48386989       4.51259601        2       0.00000000      -0.05577200       0.09844660       0.05710811
Ni       0.03055212       0.05111427       6.64245672        1       1.00000000      -0.04076291       0.08428746      -0.18691574
Ni       2.62408184       0.00759052       6.74817131        1       1.00000000      -0.09447777       0.07229247      -0.02756148
Pt       5.23591485      -0.01444741       6.82478706        1       0.00000000      -0.03692836      -0.01081279       0.20216666
Ni       7.90724153       0.05017252       6.77467721        1       1.00000000       0.03536466       0.00774790      -0.04319737
Ni       1.28809970       2.24928932       6.63302199        1       1.00000000      -0.12731013      -0.01327645      -0.22366817
Pt       3.92899845       2.23282822       6.69507545        1       0.00000000       0.01737614      -0.02491921       0.10751242
Pt       6.67813753       2.24394226       6.73347753        1       0.00000000       0.04552301      -0.03987276       0.07348799
Ni       9.22568779       2.29192969       6.79097351        1       1.00000000       0.04233297      -0.01078682       0.03983080
Pt       2.59475973       4.52164817       6.67942751        1       0.00000000       0.01310684      -0.02172668      -0.01542474
Pt       5.33110185       4.55406072       6.70112005        1       0.00000000       0.08831786      -0.02581105       0.08281854
Pt       8.02323889       4.57147815       6.73135712        1       0.00000000       0.04717108      -0.03152358       0.09087439
Ni      10.49053844       4.56797289       6.77547992        1       1.00000000       0.01509070      -0.07474987      -0.04713643
Pt       3.97532440       6.91997049       6.67920797        1       0.00000000       0.00552006       0.00365050      -0.04858891
Pt       6.69233421       6.90719316       6.70250225        1       0.00000000       0.07084498      -0.00766952       0.06423776
Ni       9.21461998       6.84436832       6.76780347        1       1.00000000       0.00068053      -0.06838011      -0.02757510
Pt      11.74218030       6.84713687       6.82020719        1       0.00000000      -0.04823500      -0.06684325       0.02456115
