64
Lattice="10.164056276552524 0.015699007280644755 -0.007195051036802987 5.095623877395557 8.758483783820603 -0.04678318658877388 0.0 0.0 21.415829069402015" Properties=species:S:1:pos:R:3:tags:I:1:initial_magmoms:R:1:forces:R:3 unique_id=9bae06f5660f4970bcba004af37e76f2 stress="0.002280443155147145 -6.025846206386942e-05 7.882191570916755e-06 -6.025846206386942e-05 0.0015819119936778987 -0.00014693619817307785 7.882191570916755e-06 -0.00014693619817307785 -0.005255559364697442" energy=-369.35231525843056 pbc="T T T"
Ni       0.03118119      -0.05169207       0.14166750        1       1.00000000       0.06184920      -0.06185685      -0.35139665
Ni       2.49562212       0.00397541       0.10392871        1       1.00000000       0.05091145       0.11794029      -0.38417076
Pt       5.10728540      -0.06170119       0.15363112        2       0.00000000      -0.08293645       0.00590852      -0.82623131
Ni       7.63564243      -0.04424506       0.10947550        1       1.00000000      -0.04642780      -0.08845430      -0.32583841
Ni       1.26700561       2.20945371       0.06713513        1       1.00000000      -0.03678477       0.04794454       0.20573196
Pt       3.78033496       2.25759478       0.13533800        1       0.00000000       0.01296713      -0.04541164      -0.76360384
Ni       6.35934740       2.23914145       0.06266057        1       1.00000000      -0.03304101      -0.02293352       0.14299446
Pt       8.89854255       2.25194664       0.09306813        1       0.00000000       0.03726935       0.15983929      -0.93516035
Ni       2.52127749       4.42113883       0.04068131        0       1.00000000       0.05441477      -0.01730131       0.31571954
Ni       5.10796879       4.42642421       0.03718806        0       1.00000000      -0.10461269       0.01042164       0.23822896
Ni       7.59775029       4.42093976       0.04318601        0       1.00000000       0.07403456       0.01318359       0.22180850
Ni      10.20537990       4.42389230       0.03877702        0       1.00000000      -0.04032097      -0.05745986       0.31482134
Ni       3.82128841       6.54232905       0.03261884        0       1.00000000       0.02060126       0.02494519       0.29217093
Ni       6.32836491       6.54368524       0.00000000        0       1.00000000      -0.04985140       0.00683751       0.16074108
Ni       8.91525478       6.50402566       0.10791697        1       1.00000000       0.13365959      -0.05745312      -0.47456409
Ni      11.47395847       6.52274706       0.03621124        0       1.00000000      -0.02459371       0.05326176       0.24697035
Ni       1.29575797       0.76380178       2.10180650        3       1.00000000      -0.02318270       0.13808594       0.09083139
Ni       3.77114993       0.73614667       2.14392551        3       1.00000000      -0.12039043      -0.00091709       0.19036979
Ni       6.36633186       0.72986234       2.13053043        3       1.00000000       0.02072910       0.06265857       0.09136851
Pt       8.86838203       0.66839307       2.14346129        3       0.00000000       0.02989199      -0.15082315       0.15413463
Ni       2.50730088       2.95097150       2.17686616        4       1.00000000      -0.02988143       0.07061681       0.10254629
Ni       5.09556866       2.96593101       2.10168653        3       1.00000000       0.03857293       0.04292341       0.05291128
Ni       7.60337059       2.95864293       2.13025113        3       1.00000000      -0.01842033       0.00920446       0.11686129
Ni      10.21189974       2.98630109       2.12357483        3       1.00000000       0.06293731       0.04515347       0.11869817
Ni       3.82018959       5.09067564       2.06965638        3       1.00000000      -0.03099175      -0.05116998      -0.00139467
Ni       6.32528902       5.09080092       2.05191607        3       1.00000000      -0.00514255       0.00693984       0.05427940
Ni       8.93875065       5.06705023       2.07984711        3       1.00000000       0.01604722      -0.06482420       0.06909563
Ni      11.43372263       5.10317693       2.07562753        3       1.00000000      -0.00923696      -0.02693111       0.06515832
Ni       5.06884772       7.22541007       2.09353852        3       1.00000000      -0.08127372      -0.09890074       0.11093699
Pt       7.61600485       7.30593038       2.05178064        3       0.00000000      -0.07705954      -0.04117761      -0.01188489
Ni      10.21390309       7.23968843       2.14873927        3       1.00000000       0.02943711      -0.08480321       0.17667246
Ni      12.69360286       7.24486366       2.06390739        3       1.00000000      -0.01919326      -0.08839374       0.02434458
Pt       0.06658845       1.46951905       4.20617067        6       0.00000000       0.09439277      -0.03122634       0.00897691
Ni       2.54055035       1.46205854       4.18397718        6       1.00000000       0.03299896      -0.03925527      -0.23300770
Pt       5.06529015       1.41461756       4.12752041        5       0.00000000       0.08424496      -0.00635206      -0.13585395
Ni       7.61604636       1.42654015       4.22163294        6       1.00000000      -0.02963988      -0.06634678      -0.19418330
Ni       1.28319769       3.64783777       4.23309846        6       1.00000000       0.05532424       0.01888161      -0.11501537
Ni       3.78413714       3.66536060       4.17132728        6       1.00000000      -0.00139052       0.03820673      -0.21399710
Pt       6.34154069       3.64157253       4.22793225        6       0.00000000      -0.00743431      -0.03224268      -0.00184919
Ni       8.94598488       3.68657491       4.16948400        6       1.00000000       0.09212928       0.04412060      -0.19908029
Pt       2.54693799       5.80898679       4.19993999        6       0.00000000       0.00773118       0.03697965      -0.00039593
Ni       5.06653344       5.84943981       4.21600837        6       1.00000000       0.00447670       0.02596093      -0.13324431
Pt       7.63929245       5.83995960       4.20075393        6       0.00000000      -0.00251154       0.06439116       0.03174806
Ni      10.19403175       5.81182762       4.18358089        6       1.00000000       0.01188695       0.03090755      -0.13952529
Ni       3.83127212       7.96999963       4.18440721        6       1.00000000       0.04717728       0.01789226      -0.09136690
Ni       6.33804653       7.99789034       4.16931646        6       1.00000000      -0.02795340       0.00977363      -0.14784586
Ni       8.91106594       8.00173709       4.15816600        6       1.00000000      -0.01905309       0.00457205      -0.23844550
Ni      11.45199469       7.98243885       4.12585898        5       1.00000000       0.02886375      -0.02908268      -0.21514685
Pt      -0.00291649      -0.10429510       6.41582907        8       0.00000000      -0.25003866       0.05029108       0.20271886
Pt       2.51680309      -0.02381197       6.35257124        8       0.00000000       0.26034115       0.04175200       0.20701034
Pt       5.10034005      -0.03641773       6.30062371        7       0.00000000      -0.22879921      -0.17213655       0.90465810
Pt       7.61936360      -0.07506796       6.35865120        8       0.00000000       0.18566894       0.09628902       0.19753711
Ni       1.26916004       2.22979010       6.35693391        8       1.00000000       0.03700140       0.05211582      -0.02624369
Pt       3.78915775       2.30879916       6.28810611        7       0.00000000      -0.12890820      -0.03613593       0.70620177
Ni       6.34407545       2.21734641       6.36517766        8       1.00000000       0.01471927       0.00459176       0.05456233
Pt       8.87319962       2.29165885       6.27487970        7       0.00000000      -0.15123623      -0.11349500       0.98162883
Ni       2.51375277       4.40348273       6.34956713        7       1.00000000       0.05928946      -0.05245783      -0.19546900
Ni       5.08861071       4.42267249       6.35509743        8       1.00000000      -0.09776438       0.01546781      -0.19165163
Ni       7.56214276       4.37192609       6.37202943        8       1.00000000      -0.02282671      -0.04356721      -0.00234853
Ni      10.24658780       4.36204242       6.32264471        7       1.00000000       0.04395665      -0.02535381      -0.22130351
Ni       3.82630474       6.45900745       6.34333864        7       1.00000000       0.01648805      -0.00003864      -0.19129184
Ni       6.32252861       6.48076908       6.33666658        7       1.00000000      -0.00642515       0.03682939      -0.08411930
Pt       8.93314122       6.42901111       6.40572279        8       0.00000000       0.13730193       0.14884556       0.31997434
Ni      11.47278646       6.48656574       6.33763801        7       1.00000000      -0.04999312       0.05276876      -0.12678251
