64
Lattice="10.213460723942177 0.03259485603725214 -0.04728886865526968 5.134958335332041 8.78979954822514 -0.05051884152628788 0.0 0.0 21.535929746605614" Properties=species:S:1:pos:R:3:tags:I:1:initial_magmoms:R:1:forces:R:3 unique_id=fd02d027a6aa4fa783cb4cb8e756c773 energy=-369.81841912038703 stress="0.005245853377631465 5.461194149229356e-05 -0.0002292111015920757 5.461194149229356e-05 0.004196765630695853 0.00011644702562486904 -0.0002292111015920757 0.00011644702562486904 -0.0015990343454396778" pbc="T T T"
Ni       0.03715433      -0.04447799       0.21515707        2       1.00000000       0.12552107      -0.04479251      -0.19998453
Ni       2.52252762      -0.02766527       0.22102488        2       1.00000000      -0.03658491      -0.04277994      -0.09050307
Ni       5.09579582      -0.00564269       0.17573419        2       1.00000000      -0.07461317       0.15885885      -0.48994428
Ni       7.65375546      -0.00581368       0.14513874        1       1.00000000       0.00359344       0.12940052      -0.49007448
Ni       1.28352682       2.20289065       0.12731336        1       1.00000000      -0.01224062       0.01000257       0.34617583
Pt       3.76698128       2.21640143       0.18931931        2       0.00000000       0.02346445      -0.01190197      -0.55142984
Pt       6.38409490       2.23690015       0.09560233        1       0.00000000       0.01192241       0.06088772      -0.20677337
Pt       9.00502347       2.28146333       0.09382968        1       0.00000000      -0.02693402       0.09455715      -0.69492499
Ni       2.55738424       4.42492815       0.06981299        1       1.00000000       0.05733522       0.05287508       0.23807257
Ni       5.11823396       4.46326096       0.09512210        1       1.00000000      -0.05790383       0.04032544       0.33356249
Ni       7.66164531       4.47543970       0.08802824        1       1.00000000       0.02742539       0.08309654       0.29376724
Ni      10.23731154       4.45317244       0.03699967        0       1.00000000      -0.05149628       0.11471998       0.17583774
Ni       3.87707198       6.56757307       0.06155065        1       1.00000000       0.13153883      -0.04697566       0.18937195
Ni       6.39638911       6.59245484       0.09286542        1       1.00000000      -0.00556102       0.04178758       0.38094026
Ni       8.91535709       6.58383218       0.12387144        1       1.00000000      -0.21010842      -0.09713055      -0.29472731
Ni      11.50724356       6.59806736       0.00000000        0       1.00000000      -0.04531851      -0.04289666       0.03607683
Ni       1.30794287       0.73357854       2.22273534        4       1.00000000       0.05273559       0.06185831       0.18762303
Ni       3.76863817       0.74795086       2.20271686        4       1.00000000      -0.15113524      -0.04409141       0.12186383
Ni       6.37122864       0.77479767       2.19120608        4       1.00000000       0.03958865       0.06153335       0.15794282
Pt       8.98036411       0.79390237       2.22098021        4       0.00000000       0.03253668       0.05762072      -0.00033604
Ni       2.54322010       2.89649702       2.26440935        5       1.00000000       0.02892917      -0.13127235       0.24668565
Ni       5.10012058       2.98680324       2.20580980        4       1.00000000      -0.00608808       0.16455371       0.04218793
Ni       7.65787090       3.00114543       2.21108513        4       1.00000000       0.03205973       0.09456806       0.10316477
Ni      10.23842431       2.95147609       2.22028279        4       1.00000000       0.03432265      -0.10363256       0.24208954
Ni       3.89192652       5.08549984       2.18504957        4       1.00000000       0.08647865      -0.11539149       0.06229920
Ni       6.39121561       5.15540545       2.14782655        3       1.00000000       0.01001938       0.02493936      -0.00765281
Ni       8.89078468       5.11023783       2.16795982        4       1.00000000      -0.09157626      -0.10012682       0.11096848
Pt      11.49482438       5.05087718       2.16768802        4       0.00000000       0.02337950      -0.16769480       0.12736612
Ni       5.18815577       7.27653958       2.15540852        4       1.00000000       0.03995741      -0.11177496       0.08563775
Ni       7.60347173       7.30753638       2.13539375        3       1.00000000      -0.12755124      -0.10657906       0.10942700
Pt      10.17723295       7.33202954       2.11182116        3       0.00000000      -0.07741316      -0.08792960       0.12624756
Pt      12.81343335       7.29514193       2.09405439        3       0.00000000       0.15485668      -0.10436431       0.02073397
Ni       0.04698083       1.49088688       4.33418020        7       1.00000000       0.17744047       0.02984188      -0.09784407
Ni       2.47301834       1.49874587       4.29312263        7       1.00000000      -0.06531133       0.01638182      -0.16272150
Pt       5.10199713       1.48234122       4.23211481        6       0.00000000      -0.07283108      -0.05089709      -0.07062396
Ni       7.65477080       1.48797446       4.29031436        7       1.00000000       0.02122689      -0.02291672      -0.25173522
Ni       1.27151895       3.63726930       4.37309825        8       1.00000000       0.04364137      -0.05938542      -0.01611506
Ni       3.77955021       3.72535251       4.28728317        7       1.00000000      -0.02347383       0.10226877      -0.23325879
Pt       6.40599772       3.73880834       4.29956157        7       0.00000000       0.00275407      -0.00671060      -0.03597501
Ni       8.97093636       3.71911599       4.25002266        7       1.00000000       0.08757867       0.10627820      -0.27308269
Ni       2.54630035       5.79494195       4.37642980        8       1.00000000      -0.03704597      -0.06010026      -0.05990709
Ni       5.10813204       5.84288139       4.32258866        7       1.00000000       0.05631632      -0.03705354      -0.16884134
Ni       7.64253968       5.85315448       4.27725731        7       1.00000000      -0.01965822       0.06904360      -0.25103705
Ni      10.23852850       5.80926762       4.31029708        7       1.00000000       0.02119735      -0.05074783      -0.07798608
Pt       3.87068876       7.97839308       4.30628021        7       0.00000000       0.04509246      -0.03812277       0.14691899
Ni       6.38098815       8.02518774       4.24973451        6       1.00000000      -0.03879675      -0.05956062      -0.24819619
Pt       8.87554292       8.01742493       4.23232056        6       0.00000000      -0.08844104       0.03696974      -0.00983510
Ni      11.50401175       8.01683400       4.26616901        7       1.00000000      -0.03666742      -0.13080977      -0.16263822
Pt      -0.01224027      -0.05689862       6.53592975       11       0.00000000      -0.00974448       0.11296178       0.35107483
Pt       2.50445967      -0.00139707       6.51070672       11       0.00000000       0.02252350       0.09722600       0.29064840
Pt       5.09859363      -0.02099800       6.51227706       11       0.00000000       0.02508169       0.01993366       0.45947652
Pt       7.62829687      -0.03751302       6.47918903       11       0.00000000      -0.04181003       0.13213078       0.43242590
Ni       1.25104792       2.24478842       6.44310792       10       1.00000000       0.04434847       0.06797457      -0.19298519
Pt       3.78297626       2.32038116       6.39376987       10       0.00000000      -0.07728899       0.11959810       0.54590643
Ni       6.36993972       2.24547141       6.38006336       10       1.00000000       0.00664135       0.03429386       0.25951872
Pt       8.93031586       2.30510141       6.31346341        9       0.00000000      -0.00579867      -0.06173270       0.63747674
Ni       2.51252145       4.43331793       6.43080319       10       1.00000000       0.04105499      -0.02936021      -0.31355367
Ni       5.10187897       4.44485681       6.44473121       10       1.00000000      -0.05013344       0.00788691      -0.27517760
Ni       7.60253606       4.40084276       6.44239712       10       1.00000000      -0.08400099      -0.04500550      -0.09448900
Ni      10.27002262       4.39802119       6.39519828       10       1.00000000       0.10744825      -0.03328860      -0.26118048
Ni       3.82365689       6.48709831       6.44499311       10       1.00000000       0.01010678      -0.10832119      -0.20963821
Ni       6.35016840       6.51585019       6.42479376       10       1.00000000      -0.00946179      -0.00636582      -0.31128893
Pt       8.93257513       6.45286915       6.45381942       11       0.00000000       0.03310452      -0.10429257       0.13042910
Ni      11.51861911       6.52599013       6.38923190       10       1.00000000      -0.02623326       0.05963125      -0.18745704
