64
Lattice="10.017611109054092 0.0161236265127347 -0.022447572811932128 5.02276902468826 8.697849383710723 0.02032819419911956 -0.018328366451068896 0.029747492594296803 8.598196259317119" Properties=species:S:1:pos:R:3:tags:I:1:initial_magmoms:R:1:forces:R:3 unique_id=af6f24492a014bc8a88e61d3f8e8b387 stress="-0.001133128555128246 -1.1921416893987678e-06 1.7822626219591935e-05 -1.1921416893987678e-06 -0.001143062341983879 -2.046050743044611e-05 1.7822626219591935e-05 -2.046050743044611e-05 -0.0009739006715422938" energy=-386.14570113233367 pbc="T T T"
Ni      -0.01081036       0.00459693       0.10524846        4       1.00000000       0.00911652       0.04849030       0.06180752
Ni       2.50194649       0.04238056       0.05765031        4       1.00000000      -0.01511186       0.11255627      -0.02956754
Ni       5.01355766       0.01956981       0.10102292        4       1.00000000       0.00353451       0.02899550       0.09206774
Ni       7.51319840       0.01531163       0.09694160        4       1.00000000      -0.02284216       0.02932503       0.07167517
Ni       1.25173633       2.12288314       0.19812657        4       1.00000000      -0.04695071      -0.00829153       0.24056125
Ni       3.78331186       2.13617647       0.11318344        4       1.00000000       0.02376183      -0.03828358       0.07369803
Ni       6.26334517       2.17302943       0.19924802        4       1.00000000       0.01643963      -0.04183616       0.24316441
Ni       8.74245500       2.14113392       0.10056852        4       1.00000000      -0.03374559      -0.07936490       0.08155558
Pt       2.56280756       4.35591299       0.20236734        4       0.00000000       0.07521462       0.02238840       0.43108682
Ni       5.03749029       4.34166837       0.06439736        4       1.00000000      -0.01220015      -0.05154477      -0.04375976
Ni       7.48363527       4.34118042       0.07641630        4       1.00000000      -0.04391215      -0.03706196       0.04303653
Pt       9.96520603       4.35666946       0.07889918        4       0.00000000      -0.11255391       0.00575071      -0.09589479
Ni       3.78569729       6.57979460       0.11777517        4       1.00000000       0.01569306       0.10588071       0.07911164
Ni       6.24546757       6.55013945       0.06225112        4       1.00000000      -0.04569893       0.10780681      -0.00876203
Ni       8.77474597       6.57017733       0.18709402        4       1.00000000      -0.00783907       0.06593410       0.38011605
Ni      11.28281103       6.60294934       0.11291459        4       1.00000000       0.01592554       0.07188501       0.14216878
Ni       1.21559628       0.76794969       2.17659253        3       1.00000000      -0.08504742      -0.00209540       0.08288724
Ni       3.77828411       0.77813815       2.15610785        3       1.00000000       0.02762006      -0.01895224       0.04942092
Ni       6.25270492       0.73174805       2.11101347        3       1.00000000       0.02828667      -0.06371265       0.02065060
Ni       8.77796632       0.73275887       2.11300945        3       1.00000000       0.01602816      -0.04931585      -0.02576942
Ni       2.48266766       2.85347419       2.19595343        3       1.00000000      -0.08891277      -0.04235814      -0.03168962
Ni       4.99545406       2.85575514       2.12935517        3       1.00000000       0.01238414      -0.02140378      -0.00456177
Ni       7.54558766       2.88985824       2.11998595        3       1.00000000       0.08033347       0.03257464      -0.00604826
Ni      10.01598956       2.89307560       2.18925458        3       1.00000000      -0.04796085       0.02468347       0.00655704
Ni       3.74433606       5.14055868       2.21191873        3       1.00000000      -0.09124606       0.15011913      -0.05035295
Pt       6.22212998       5.03928991       2.13503759        3       0.00000000      -0.08136021      -0.03625844      -0.05834228
Ni       8.80146364       5.06808142       2.19865472        3       1.00000000       0.05883688      -0.03713566       0.02680039
Ni      11.26359002       5.11640497       2.22540952        3       1.00000000      -0.00134838      -0.02528541      -0.01886426
Ni       4.96594628       7.29754742       2.17941893        3       1.00000000      -0.01767889       0.07396474       0.07319195
Pt       7.52344656       7.34777185       2.15996846        3       0.00000000      -0.05465397       0.15331642      -0.03060508
Ni      10.06358974       7.26942890       2.14144214        3       1.00000000      -0.02216243       0.00993277       0.03750053
Ni      12.54332327       7.27319985       2.13454864        3       1.00000000       0.03028635       0.05696082      -0.01449270
Ni       0.02678895       1.44343225       4.23261542        2       1.00000000       0.07877933      -0.03167332      -0.08449805
Ni       2.48807591       1.42717392       4.23945096        2       1.00000000      -0.05128683      -0.03245194      -0.09240884
Ni       4.96981837       1.44500267       4.24137934        2       1.00000000       0.04235101      -0.02005490      -0.08652256
Pt       7.56463889       1.49249440       4.20493228        2       0.00000000       0.01552272       0.03721510       0.04182392
Ni       1.20548099       3.62941998       4.22229032        2       1.00000000       0.07080183      -0.09531254      -0.06163461
Pt       3.77526594       3.61583673       4.20266702        2       0.00000000      -0.05107003      -0.00070708       0.08477939
Ni       6.26135379       3.63766660       4.27811592        2       1.00000000       0.04582162      -0.12189473      -0.02455080
Ni       8.80763229       3.64406295       4.25737913        2       1.00000000       0.01830000      -0.06634601      -0.13690437
Ni       2.51832447       5.83464383       4.23328777        2       1.00000000       0.03390539      -0.03272313      -0.06777791
Ni       4.97312894       5.86300872       4.30971394        2       1.00000000      -0.03269115       0.05227347      -0.06968388
Pt       7.50318096       5.80440840       4.30034784        2       0.00000000       0.09981753       0.03958500       0.24105705
Ni      10.04703073       5.78008647       4.24438883        2       1.00000000       0.02861670       0.01389301      -0.05064834
Ni       3.81112714       7.96103045       4.29388934        2       1.00000000       0.01306586       0.01791124      -0.13746548
Ni       6.23182254       8.02782126       4.31524109        2       1.00000000      -0.05603392       0.02360666      -0.02118294
Ni       8.74878574       8.04885518       4.28679584        2       1.00000000       0.00509708       0.00207816       0.00839693
Pt      11.25727787       7.96068253       4.26039258        2       0.00000000      -0.01769715      -0.07570602      -0.00384478
Ni      -0.03450060      -0.02764017       6.35080700        1       1.00000000      -0.01914678      -0.02694164      -0.08954238
Ni       2.48833663       0.01154337       6.33533287        1       1.00000000      -0.04312517      -0.08100066      -0.21009600
Ni       4.98629070       0.04184936       6.36258686        1       1.00000000      -0.00047970       0.02742693      -0.06900225
Ni       7.53884930      -0.00322773       6.37248755        1       1.00000000       0.08067357      -0.01802707      -0.02166351
Pt       1.21665125       2.13355822       6.37184218        1       0.00000000      -0.04353974      -0.11152792       0.10273720
Ni       3.74611968       2.15225738       6.36581630        1       1.00000000      -0.04736885      -0.07770789      -0.12572392
Pt       6.23581880       2.20594057       6.42596960        1       0.00000000       0.00383692      -0.03197026       0.18199036
Ni       8.75796088       2.20070322       6.36041507        1       1.00000000       0.00058156      -0.06567002      -0.08046252
Pt       2.50222419       4.43080934       6.32463373        1       0.00000000       0.04570503       0.04899954      -0.33211100
Ni       5.03757547       4.42545607       6.36275796        1       1.00000000       0.05965026       0.09874555      -0.21893325
Ni       7.50777646       4.36401372       6.37265660        1       1.00000000       0.05007997      -0.04450322      -0.09503062
Ni       9.98142773       4.36487557       6.25016680        1       1.00000000      -0.02796295      -0.07079610      -0.31312681
Ni       3.78234606       6.58714967       6.36569516        1       1.00000000      -0.00306485       0.01515488      -0.10501307
Ni       6.20609221       6.56396758       6.37487837        1       1.00000000      -0.02297128       0.05296897      -0.10051486
Pt       8.79404272       6.57348351       6.43906567        1       0.00000000       0.04379534      -0.06438495       0.16142724
Ni      11.29489582       6.59170878       6.37738251        1       1.00000000       0.09780072       0.09187655      -0.04221709
