64
Lattice="10.376624072556853 -0.03699374936529546 -0.0031326416223242414 5.156274509546845 8.95690903965193 -0.03350399100867811 -0.002557791173899536 -0.030111124229284008 8.876062003780433" Properties=species:S:1:pos:R:3:tags:I:1:initial_magmoms:R:1:forces:R:3 unique_id=4425eb7ccb404744a6bb5a83eb6b7b40 stress="0.0001021476472111843 1.0206283698761522e-06 -5.1849278025419105e-06 1.0206283698761522e-06 0.0001029172412540455 9.549072480270635e-06 -5.1849278025419105e-06 9.549072480270635e-06 9.162961208999953e-05" energy=-402.19434785016074 pbc="T T T"
Ni       0.05782971       0.02458380       0.18682023        4       1.00000000       0.10837134       0.01749125       0.08163801
Ni       2.58247419      -0.00676208       0.23063553        4       1.00000000      -0.00731022      -0.02226603       0.19783060
Ni       5.13468104      -0.01387960       0.17181939        4       1.00000000      -0.06614492       0.06479142       0.09070013
Pt       7.83759792      -0.06998495       0.16819133        4       0.00000000       0.01406326      -0.06877729      -0.09401345
Ni       1.24816694       2.24229792       0.11768588        4       1.00000000      -0.06485242      -0.01518182       0.13957335
Pt       3.79288989       2.23531903       0.10142760        4       0.00000000      -0.04864586      -0.03014533      -0.13271345
Pt       6.45859875       2.26764143       0.15504079        4       0.00000000      -0.01327790       0.08927563      -0.10464120
Ni       9.12349875       2.23108529       0.17377909        4       1.00000000       0.01199215       0.01809267       0.13514202
Ni       2.58774922       4.45151088       0.07497040        4       1.00000000       0.04865723      -0.06980975       0.04188129
Ni       5.12770430       4.49195438       0.18765218        4       1.00000000      -0.03236714       0.01513276       0.15565733
Pt       7.85387400       4.49181884       0.08531440        4       0.00000000       0.06947996       0.02026064      -0.15158986
Ni      10.38054965       4.38578317       0.07255430        4       1.00000000       0.06468912      -0.15883696       0.09699334
Ni       3.87628539       6.66993502       0.18830446        4       1.00000000      -0.01724989      -0.11264343       0.17024127
Pt       6.43631448       6.74166564       0.16549793        4       0.00000000      -0.01872273      -0.02844872      -0.15862761
Ni       9.03328377       6.71812204       0.04754249        4       1.00000000      -0.06337773       0.05850524      -0.03128714
Pt      11.64067221       6.60618506      -0.02698421        4       0.00000000      -0.00316567      -0.09765463      -0.24133429
Ni       1.34230971       0.76263777       2.18432799        3       1.00000000       0.05555676       0.07570226       0.04892634
Ni       3.83437945       0.75429938       2.21537171        3       1.00000000       0.00523754       0.02014558       0.04133281
Pt       6.40973397       0.77364292       2.26661498        3       0.00000000      -0.01835686       0.03530972       0.13028204
Pt       9.20280592       0.75887338       2.22018277        3       0.00000000       0.06280226       0.00318743       0.12980393
Ni       2.59098908       2.96324377       2.21834947        3       1.00000000       0.00379121       0.01509304      -0.00079177
Ni       5.10844031       3.02726497       2.24513262        3       1.00000000      -0.13387400       0.03277048       0.00269600
Ni       7.81236655       3.02541476       2.22381838        3       1.00000000       0.03663523       0.06517579      -0.01196500
Ni      10.38167378       2.95736425       2.20272968        3       1.00000000       0.05758069       0.03230294       0.07611605
Ni       3.91321690       5.20230988       2.22700223        3       1.00000000       0.00677791      -0.04348278       0.08933477
Ni       6.44828653       5.22069099       2.22284951        3       1.00000000      -0.00440603       0.02682219      -0.03087590
Ni       9.02653201       5.15761854       2.24468892        3       1.00000000      -0.03566261      -0.06176116       0.02258225
Pt      11.70489637       5.11189262       2.18867264        3       0.00000000       0.03327512       0.00646264      -0.03456818
Ni       5.14923572       7.39923298       2.18944422        3       1.00000000      -0.05113326      -0.06221831       0.01189059
Ni       7.72597355       7.43242697       2.18934899        3       1.00000000      -0.01074319      -0.06508662       0.01229574
Pt      10.26147914       7.38991119       2.12350303        3       0.00000000       0.02008800      -0.04098055      -0.02118634
Ni      12.98476348       7.35812223       2.19173270        3       1.00000000      -0.02537888      -0.09011010       0.00363461
Ni       0.02382916       1.50684154       4.39366472        2       1.00000000       0.05879506      -0.03167250       0.01432576
Pt       2.61847798       1.52373627       4.34327844        2       0.00000000      -0.00067703      -0.03301250      -0.00131718
Ni       5.15471285       1.51084901       4.38920009        2       1.00000000      -0.00226552       0.04171301      -0.03908751
Pt       7.84119453       1.53387225       4.35903191        2       0.00000000       0.09254541       0.00288524      -0.02666671
Pt       1.28184473       3.70573157       4.44043185        2       0.00000000      -0.03720364      -0.00501607      -0.02019019
Ni       3.88022777       3.74683534       4.34959538        2       1.00000000      -0.02146225       0.03413439      -0.11494977
Pt       6.44400001       3.78459481       4.28255849        2       0.00000000      -0.04011623       0.01767985      -0.05829026
Ni       9.05630800       3.71226883       4.35127919        2       1.00000000      -0.01188763      -0.02264681      -0.13725397
Ni       2.60645384       5.89196345       4.36363678        2       1.00000000       0.04804831      -0.09003139      -0.08877288
Ni       5.13690557       5.91025515       4.31510756        2       1.00000000      -0.03449573      -0.03788627      -0.08505951
Ni       7.75984217       5.90500887       4.33216917        2       1.00000000      -0.06055141       0.01480248      -0.19215745
Pt      10.28579102       5.85843871       4.43026309        2       0.00000000      -0.06050552      -0.02601912      -0.13028988
Pt       3.87993339       8.11024674       4.29427989        2       0.00000000      -0.01110060      -0.06555986      -0.00070603
Pt       6.44064102       8.15345534       4.24697517        2       0.00000000       0.00653110       0.01762625      -0.03508566
Pt       9.01968001       8.17127685       4.33492336        2       0.00000000      -0.00712329       0.01568002       0.01740533
Pt      11.64998168       8.11553553       4.33985789        2       0.00000000      -0.01883445       0.00274796      -0.10582050
Pt       0.02657445       0.02933719       6.63177672        1       0.00000000       0.00766193       0.04147599       0.06624496
Pt       2.60564355       0.03217238       6.68840241        1       0.00000000       0.00569502       0.04870333       0.20495079
Pt       5.16850724      -0.09586454       6.64299094        1       0.00000000       0.04772753      -0.05246066       0.11373387
Pt       7.78325157      -0.05620004       6.54942842        1       0.00000000       0.02516222       0.08712851       0.13171476
Ni       1.32535828       2.28487326       6.58678255        1       1.00000000       0.06796667       0.05692224       0.04757473
Ni       3.84112744       2.24435525       6.49288119        1       1.00000000      -0.01482357       0.03290157      -0.15199322
Pt       6.45436217       2.23999545       6.50109856        1       0.00000000      -0.00219718       0.02405529       0.08375427
Pt       9.16455461       2.33670151       6.61429718        1       0.00000000       0.09077287       0.14200757       0.13638001
Ni       2.52221985       4.42662563       6.56235636        1       1.00000000      -0.04122934       0.00560789      -0.03513623
Pt       5.09073609       4.40999828       6.58419276        1       0.00000000      -0.08021939       0.02684537       0.12275645
Ni       7.81665016       4.47088503       6.46807279        1       1.00000000       0.03680591       0.06295261      -0.19486994
Ni      10.38981790       4.47901738       6.58517719        1       1.00000000       0.06236817       0.14300060       0.04391817
Pt       3.78764642       6.62625979       6.59076921        1       0.00000000      -0.05599071       0.00267970       0.16420049
Pt       6.52648093       6.63057753       6.48045335        1       0.00000000      -0.04309781      -0.00181830      -0.09381318
Ni       9.07879730       6.62082227       6.56282277        1       1.00000000      -0.02440866      -0.03591949      -0.06129730
Ni      11.62247265       6.60024703       6.45041592        1       1.00000000       0.03378131      -0.04862511      -0.23916050
