64
Lattice="10.335836772601661 -0.013672844692185113 0.0077245799750362875 5.156077355455402 8.900379679699173 -0.017289826358237236 0.006307093138719925 -0.019942406539373993 8.802357581937574" Properties=species:S:1:pos:R:3:tags:I:1:initial_magmoms:R:1:forces:R:3 unique_id=12331279477c4b05953127eb66d666c4 stress="0.00022517316595007525 3.938818925448692e-06 -1.5117947576925741e-05 3.938818925448692e-06 0.0002291467622408741 9.132314635451075e-06 -1.5117947576925741e-05 9.132314635451075e-06 0.00022184574004784074" energy=-397.8342807949621 pbc="T T T"
Ni       0.00147476       0.02008221       0.17884242        4       1.00000000       0.01493315       0.04255530       0.23562716
Ni       2.58050321      -0.00005125       0.21318337        4       1.00000000       0.00971534       0.00741350       0.38944344
Ni       5.16536069      -0.01700133       0.17067411        4       1.00000000      -0.02953619       0.14696305       0.25858723
Ni       7.75783593      -0.05681132       0.19196972        4       1.00000000      -0.03171309      -0.14195571       0.35305795
Ni       1.25791370       2.23033877       0.10653070        4       1.00000000      -0.11457248       0.02313538       0.23510492
Pt       3.81056625       2.23296609       0.19564739        4       0.00000000      -0.06390733       0.05259161       0.15965654
Pt       6.48116644       2.17140253       0.19823405        4       0.00000000       0.06648841      -0.02511004       0.21208897
Ni       9.08442923       2.21602901       0.15499868        4       1.00000000       0.10496319       0.03967095       0.16076273
Ni       2.57660120       4.47035868       0.06452725        4       1.00000000       0.08688976       0.03754430       0.03211042
Ni       5.13160633       4.46450379       0.17917457        4       1.00000000      -0.00823556       0.00982402       0.33585580
Pt       7.82159452       4.45404996       0.10504555        4       0.00000000       0.10634801       0.00413149      -0.09049169
Ni      10.35865909       4.43053731       0.07190036        4       1.00000000       0.10519967      -0.06246191       0.12300934
Ni       3.83189296       6.67109083       0.09942724        4       1.00000000      -0.08093245      -0.04660240       0.20357567
Pt       6.41984583       6.71265565       0.17999319        4       0.00000000      -0.08063158       0.00058094       0.05311875
Ni       9.05690512       6.67989690       0.06734717        4       1.00000000      -0.02068245       0.01617303       0.02904036
Ni      11.64249609       6.66196291       0.05568594        4       1.00000000       0.12422107      -0.01845968      -0.04320429
Ni       1.30040474       0.75241565       2.15997434        3       1.00000000      -0.04894339       0.09915116      -0.13045626
Ni       3.87307016       0.74329115       2.20775227        3       1.00000000       0.10047045       0.03100557      -0.02330170
Ni       6.45403882       0.74607842       2.24759400        3       1.00000000      -0.00988933       0.13193339       0.13914949
Pt       9.05140882       0.75999484       2.19265147        3       0.00000000      -0.01495222       0.07681700       0.13925502
Ni       2.57591807       2.96614030       2.21387691        3       1.00000000      -0.01668386       0.10979387      -0.03669875
Ni       5.14617044       2.97706019       2.24773321        3       1.00000000      -0.14293717       0.00763004      -0.00649869
Ni       7.77402569       2.97179479       2.24699797        3       1.00000000       0.12975048       0.06398960      -0.02041549
Ni      10.33124493       2.94530601       2.19452956        3       1.00000000       0.03833931       0.06112805       0.03368366
Ni       3.90373840       5.18566528       2.20650757        3       1.00000000       0.05540687      -0.01464671       0.06234905
Ni       6.43888920       5.18619077       2.22330154        3       1.00000000      -0.01560940       0.12030927      -0.08169307
Ni       9.01594897       5.15870865       2.23036663        3       1.00000000      -0.01529928      -0.07509935       0.12272911
Pt      11.66868232       5.14227544       2.13865060        3       0.00000000       0.08002091      -0.00731089       0.01798259
Ni       5.12863078       7.37852869       2.19018938        3       1.00000000      -0.18942580      -0.15582439      -0.12860987
Ni       7.73937660       7.40131713       2.18696785        3       1.00000000       0.03627566      -0.12934482      -0.10325332
Pt      10.30982622       7.41373589       2.09994291        3       0.00000000       0.03439598      -0.13878951      -0.07226162
Ni      12.94326371       7.37808357       2.15567464        3       1.00000000       0.06590887      -0.13438722      -0.06992600
Ni      -0.02353841       1.50125671       4.34646447        2       1.00000000      -0.03304429       0.00172124      -0.12524204
Pt       2.58345257       1.50493436       4.24983750        2       0.00000000       0.03341459       0.01741236      -0.01602977
Ni       5.18006830       1.49718862       4.31872419        2       1.00000000       0.00088012       0.09146306      -0.14844151
Ni       7.77850487       1.49354663       4.33403702        2       1.00000000       0.05176463       0.05156421      -0.07535581
Pt       1.28589761       3.69439645       4.40264096        2       0.00000000      -0.01618094      -0.06439352      -0.04363631
Ni       3.88434887       3.74568903       4.31337177        2       1.00000000      -0.01579798       0.05365619      -0.23184837
Pt       6.47089880       3.72573117       4.25413594        2       0.00000000      -0.06969977      -0.05964506       0.11160216
Ni       9.02258404       3.67458173       4.33780834        2       1.00000000      -0.01139065      -0.08478443      -0.28546096
Ni       2.61635873       5.89143915       4.38289866        2       1.00000000       0.01635389      -0.09277628      -0.11851118
Ni       5.12947737       5.88651281       4.30699833        2       1.00000000      -0.04520712      -0.09017060      -0.23135691
Ni       7.74954621       5.87430262       4.32857625        2       1.00000000      -0.02009885      -0.03703264      -0.27663685
Pt      10.29212720       5.86371615       4.42348764        2       0.00000000      -0.01158166      -0.00493200      -0.09720890
Pt       3.87075078       8.09220174       4.30482367        2       0.00000000      -0.05147494      -0.07895432       0.09696395
Pt       6.42923781       8.10488276       4.21974598        2       0.00000000      -0.05456045      -0.08568737      -0.06098357
Pt       9.01728888       8.13077150       4.30801769        2       0.00000000      -0.01731441       0.03203336       0.06801119
Pt      11.64451825       8.15721904       4.29468445        2       0.00000000       0.03925326       0.03804270       0.03817868
Pt       0.01178214       0.00073125       6.58316957        1       0.00000000       0.00792145       0.01725486       0.07463192
Pt       2.58066764      -0.01998097       6.61751021        1       0.00000000       0.02580658       0.04432259       0.22054621
Pt       5.17095616      -0.10716507       6.59765773        1       0.00000000       0.02263964      -0.16718141       0.06497152
Pt       7.76585838      -0.10141950       6.60969350        1       0.00000000      -0.00438996      -0.07099587       0.16244396
Ni       1.28457862       2.26429582       6.53585171        1       1.00000000       0.01583251       0.11695430      -0.06648487
Pt       3.81413361       2.26865095       6.47099234        1       0.00000000      -0.12496448       0.01663418      -0.28668356
Pt       6.48582674       2.22799778       6.45710040        1       0.00000000      -0.00257419       0.06830015      -0.21623631
Pt       9.11001635       2.30467865       6.51533579        1       0.00000000       0.05160733       0.10329945       0.01873965
Ni       2.53248061       4.48421618       6.51954694        1       1.00000000      -0.14491702       0.13780443      -0.13402042
Pt       5.09187123       4.48800750       6.52588237        1       0.00000000      -0.10596201       0.08255738       0.07891187
Ni       7.79984110       4.45895167       6.43912740        1       1.00000000       0.09051305       0.05905476      -0.31243283
Ni      10.35295869       4.45692791       6.54927437        1       1.00000000       0.07040118       0.13100610      -0.00108902
Ni       3.82468785       6.62286721       6.51062780        1       1.00000000      -0.10192540      -0.04065040      -0.14629895
Pt       6.49514995       6.60505553       6.45152156        1       0.00000000       0.05067535      -0.01216606      -0.29007176
Ni       9.06058864       6.58473922       6.53473033        1       1.00000000       0.02486031      -0.16117456      -0.09815393
Ni      11.63520988       6.57834287       6.53768931        1       1.00000000       0.05378468      -0.14488569      -0.16219468
