64
Lattice="10.27441632544231 -0.01530023052614277 -0.008828219006626947 5.123957774401758 8.83354778762757 -0.04129755368199555 0.0 0.0 21.54324554902805" Properties=species:S:1:pos:R:3:tags:I:1:initial_magmoms:R:1:forces:R:3 unique_id=5ddecdaedeab447ab739647e1da7c7b5 stress="0.005246467911916779 2.8972793599551034e-05 4.454841510585443e-05 2.8972793599551034e-05 0.0053669501402790675 -0.0001848314878292377 4.454841510585443e-05 -0.0001848314878292377 -0.001928154038739088" energy=-373.0204479852311 pbc="T T T"
Ni      -0.02423878       0.03121726       0.18955799        2       1.00000000      -0.03073520       0.00642471      -0.09185804
Ni       2.56058688      -0.00132627       0.19131392        2       1.00000000      -0.05730396       0.03218010      -0.18948431
Ni       5.13534192      -0.02421817       0.14312112        1       1.00000000       0.01177625       0.21876975      -0.48379718
Ni       7.73304410      -0.05351575       0.09147228        1       1.00000000       0.03691507      -0.02779266       0.35078562
Ni       1.24137664       2.20763436       0.08148799        1       1.00000000      -0.07581498      -0.01270199       0.38490516
Pt       3.77901548       2.20972006       0.07418213        1       0.00000000       0.03670806      -0.01166111      -0.07639063
Pt       6.44552239       2.13902591       0.15854853        2       0.00000000       0.03552055      -0.04159486      -0.50587869
Ni       9.03046896       2.16406305       0.14419322        1       1.00000000       0.01005353      -0.01154847       0.08616720
Ni       2.55666818       4.43122945       0.03239435        0       1.00000000       0.08613992       0.02316945       0.16443108
Ni       5.09567184       4.42594461       0.14468720        1       1.00000000      -0.03393445       0.01518045      -0.01387015
Pt       7.77438712       4.41173474       0.05982876        1       0.00000000       0.01320490      -0.05287689      -0.01248917
Ni      10.29903133       4.39073619       0.02132962        0       1.00000000       0.01763911      -0.08198278       0.21197802
Ni       3.80643878       6.62578738       0.14319528        1       1.00000000      -0.02806754      -0.04139983      -0.03318940
Pt       6.37676051       6.66398890       0.13370448        1       0.00000000      -0.10142847       0.02901366      -0.60402082
Ni       9.00222324       6.62759622       0.01153652        0       1.00000000      -0.10853840      -0.02758401       0.06337615
Ni      11.57010418       6.61385374       0.00000000        0       1.00000000       0.14154763       0.00295283       0.13405745
Ni       1.25693502       0.75064510       2.12388155        4       1.00000000      -0.09967273       0.11754107       0.02792001
Ni       3.84452706       0.74431877       2.16015574        5       1.00000000       0.06779281       0.05697077       0.17291468
Ni       6.45119331       0.72460646       2.20457457        5       1.00000000       0.11867589       0.08998806       0.20943271
Ni       8.98745157       0.73596886       2.13801931        4       1.00000000      -0.03551231       0.07922736       0.10408314
Ni       2.56245933       2.93003361       2.15553124        5       1.00000000      -0.00457482       0.02473349       0.08870827
Ni       5.10176044       2.94301287       2.18467177        5       1.00000000      -0.17248221      -0.01253787       0.13198494
Ni       7.75059381       2.91195226       2.18973062        5       1.00000000       0.19189962      -0.04665623       0.12797604
Ni      10.24476023       2.88511737       2.13831438        4       1.00000000       0.01882750      -0.03765228       0.08526991
Ni       3.87399886       5.14325125       2.15486953        5       1.00000000       0.07534755      -0.04998161       0.13432372
Ni       6.39526975       5.14075512       2.17160138        5       1.00000000      -0.03781526       0.05647504       0.12046386
Ni       8.96599458       5.11187663       2.18982978        5       1.00000000      -0.03148030      -0.14091859       0.21280747
Pt      11.58340160       5.10109366       2.09549772        4       0.00000000       0.06963930      -0.08241104      -0.03237943
Ni       5.08045886       7.34807742       2.12577427        4       1.00000000      -0.10933432      -0.07996638       0.01076695
Ni       7.69302379       7.34243247       2.12768592        4       1.00000000       0.05580901      -0.11108371       0.01988493
Pt      10.24697063       7.34532703       2.04888852        3       0.00000000      -0.00415962      -0.07678043      -0.05171167
Ni      12.86338795       7.35133289       2.08063442        4       1.00000000      -0.00575301       0.02233381      -0.00329825
Ni      -0.03068126       1.49443132       4.26158345        8       1.00000000      -0.05116494       0.02766842      -0.33317076
Pt       2.58845660       1.51440738       4.24685119        7       0.00000000      -0.03996771      -0.01092332      -0.08895457
Ni       5.13306371       1.47254711       4.25816151        8       1.00000000       0.02606422       0.05717738      -0.33453893
Ni       7.73055787       1.46880083       4.24534672        7       1.00000000       0.11182340       0.07806443      -0.34098448
Pt       1.23067232       3.70765213       4.34393417        8       0.00000000      -0.07246911      -0.02872254      -0.02288830
Ni       3.84778695       3.69558482       4.26110891        8       1.00000000       0.03502599       0.10995261      -0.28589350
Pt       6.43382126       3.67815793       4.18184701        7       0.00000000      -0.01889074      -0.00650122      -0.00485860
Ni       8.98155029       3.67385738       4.26271572        8       1.00000000      -0.01342559      -0.02073136      -0.29530928
Ni       2.56539212       5.83878143       4.28193896        8       1.00000000       0.10862319      -0.03023807      -0.16755788
Ni       5.09316484       5.83466939       4.22870041        7       1.00000000      -0.08643522      -0.00985069      -0.33690850
Ni       7.74126619       5.81057049       4.24555858        7       1.00000000       0.05818731      -0.05454062      -0.28122944
Ni      10.23694209       5.82852531       4.32127746        8       1.00000000      -0.03779649       0.01048311      -0.12578025
Pt       3.82804170       8.09591323       4.18412316        7       0.00000000       0.03715782       0.08626876      -0.00499798
Pt       6.38698479       8.05117497       4.14798359        6       0.00000000      -0.06221432      -0.01040001      -0.14185452
Pt       8.97291713       8.01548685       4.24231835        7       0.00000000      -0.04513758      -0.01930725       0.01335234
Pt      11.57093317       8.05945110       4.25605929        8       0.00000000       0.03464321       0.00739326       0.04117361
Pt      -0.02420403       0.01804216       6.52099033       11       0.00000000       0.09137150       0.06984377       0.22405684
Pt       2.58278992       0.02633390       6.54324555       11       0.00000000       0.03169699       0.00204006       0.44176793
Pt       5.16970571      -0.10004499       6.52709855       11       0.00000000      -0.06721647       0.05906587       0.54727096
Ni       7.69806341      -0.03977891       6.46531563       11       1.00000000       0.03306719       0.12435016      -0.03693292
Ni       1.29504616       2.24851721       6.46073041       11       1.00000000      -0.01324647       0.00706106      -0.09518235
Ni       3.81636494       2.21038223       6.37333290       10       1.00000000       0.03817470      -0.08906409       0.17723211
Pt       6.42980930       2.15743104       6.36972312       10       0.00000000       0.00822889      -0.03973869       0.58100554
Pt       9.02767025       2.26758993       6.42642555       10       0.00000000       0.06906893       0.12771475      -0.02886264
Ni       2.50047061       4.37184106       6.43979826       10       1.00000000      -0.02285322       0.04636848      -0.11799498
Pt       5.05157656       4.34985796       6.44261736       10       0.00000000      -0.10744939       0.09540177       0.16015470
Ni       7.74893583       4.40629629       6.34404288        9       1.00000000       0.05697326       0.02967766       0.02653905
Ni      10.27434962       4.43530079       6.42755341       10       1.00000000      -0.04957069       0.07971890      -0.16630174
Pt       3.72024476       6.58435012       6.45686360       11       0.00000000       0.12589593      -0.18877231       0.03553208
Pt       6.46946188       6.53815253       6.35808314       10       0.00000000      -0.12776205      -0.06090659       0.53610959
Ni       9.01909449       6.52082775       6.41134815       10       1.00000000      -0.00848427      -0.07466836      -0.14513623
Ni      11.50897366       6.52917124       6.41888217       10       1.00000000      -0.09280739      -0.20171515      -0.17272648
