64
Lattice="10.315832220917079 -0.003502697855944387 0.05007490167524362 5.154882685133516 8.88523742612926 0.025896273875012858 0.0 0.0 21.585141128640196" Properties=species:S:1:pos:R:3:tags:I:1:initial_magmoms:R:1:forces:R:3 unique_id=8add240378dc415ca7a6cf30f1521d40 energy=-376.27009269475883 stress="0.0057747095201198225 9.854340229127945e-05 0.00043393171431113474 9.854340229127945e-05 0.0057731342098152495 0.00021311906710086363 0.00043393171431113474 0.00021311906710086363 -0.0016516244273538858" pbc="T T T"
Ni       0.01644124      -0.00053420       0.10847033        1       1.00000000       0.10407239       0.01873619      -0.05140885
Ni       2.58115226       0.00960823       0.14615203        1       1.00000000      -0.03027306       0.06061892       0.06374055
Ni       5.15756447      -0.01226476       0.11157830        1       1.00000000      -0.06064164       0.16219557      -0.37267117
Ni       7.73690385      -0.05665141       0.15578918        2       1.00000000      -0.05933625      -0.08654147      -0.15660706
Ni       1.30320837       2.22885371       0.04673764        0       1.00000000       0.03720579       0.00253052       0.43045401
Pt       3.80198843       2.22853933       0.13506616        1       0.00000000      -0.00114702      -0.01321683      -0.26350676
Pt       6.43272921       2.17054150       0.07675843        1       0.00000000       0.05170798      -0.08014415      -0.09577804
Pt       9.11807254       2.22334872       0.09705779        1       0.00000000      -0.02467368       0.09838995      -0.53806085
Ni       2.56509432       4.46653016       0.00000000        0       1.00000000       0.01591226      -0.02607321       0.18385268
Ni       5.14167775       4.45492282       0.11862696        1       1.00000000       0.08694591      -0.05183977      -0.36114418
Pt       7.74749879       4.47971253       0.00893341        0       0.00000000      -0.05388848      -0.01731734      -0.28236172
Ni      10.37116745       4.46633893       0.04257744        0       1.00000000       0.06366384      -0.00820643       0.12374373
Ni       3.83112349       6.67998755       0.03957858        0       1.00000000      -0.02874593       0.10838395       0.31084088
Pt       6.42097637       6.73087642       0.15802540        2       0.00000000       0.00559553       0.06640297      -0.50083961
Ni       9.05760673       6.69338106       0.04743120        0       1.00000000      -0.08273125       0.05954856       0.10078978
Ni      11.62741892       6.66537636       0.05148955        1       1.00000000       0.11863054       0.05207413       0.23345742
Ni       1.33133790       0.75166188       2.17226556        4       1.00000000       0.06864825       0.08126777       0.20455638
Ni       3.84558933       0.77179904       2.19278009        4       1.00000000      -0.08345603       0.14330494       0.24982579
Ni       6.44854087       0.77297375       2.20171802        4       1.00000000      -0.04068967       0.17426255       0.24310414
Pt       9.05145316       0.73873117       2.22233038        4       0.00000000       0.04434411       0.16632102       0.01144514
Ni       2.56487184       2.91177533       2.22482251        4       1.00000000      -0.05697431      -0.16533849       0.31836248
Ni       5.16578838       2.93156652       2.21958130        4       1.00000000      -0.05292230      -0.13202492       0.26611443
Ni       7.72495166       2.93854505       2.22436168        4       1.00000000       0.00883573      -0.05848269       0.14952620
Ni      10.36979613       2.92817968       2.24441496        4       1.00000000       0.13638043      -0.13803829       0.23411431
Pt       3.90212897       5.16480899       2.13456568        3       0.00000000      -0.00131568      -0.08338376      -0.02383064
Ni       6.45467475       5.17179944       2.19176845        4       1.00000000       0.06440093      -0.11043552       0.09139936
Pt       8.98646690       5.15153656       2.23709571        4       0.00000000      -0.07820488      -0.12474808      -0.03269853
Pt      11.63540068       5.12421943       2.17797467        4       0.00000000      -0.00858318      -0.09956771       0.08243676
Ni       5.18448417       7.42939672       2.19080292        4       1.00000000       0.06870506       0.07634481       0.19798453
Ni       7.70822010       7.44646181       2.20854326        4       1.00000000      -0.12698584       0.11484881       0.21237134
Pt      10.31877004       7.45534498       2.11531488        3       0.00000000      -0.01198619      -0.01663049      -0.10573595
Ni      12.91806377       7.39864347       2.17791601        4       1.00000000       0.06754440      -0.04382209       0.02479502
Ni       0.07841343       1.52964082       4.28690419        5       1.00000000       0.19083891       0.04956510      -0.21266890
Ni       2.55367692       1.52430316       4.27611400        5       1.00000000      -0.10798352       0.03301935      -0.27296278
Ni       5.16255414       1.50469227       4.30033675        5       1.00000000      -0.12822184       0.00393769      -0.32730169
Ni       7.76325304       1.50029674       4.33444896        5       1.00000000       0.04094023      -0.08586079      -0.25577390
Ni       1.33057408       3.65124770       4.34762046        5       1.00000000       0.06431563      -0.12690806      -0.09154492
Ni       3.83528034       3.68556533       4.29585265        5       1.00000000      -0.09154777      -0.08867885      -0.28735603
Pt       6.50454349       3.64377322       4.29784755        5       0.00000000      -0.04376012      -0.04341691      -0.10827295
Ni       9.06253171       3.67728060       4.33061971        5       1.00000000       0.09252243      -0.18475026      -0.31637164
Ni       2.59345640       5.87454152       4.37862876        6       1.00000000       0.04227074      -0.14906096      -0.00923118
Pt       5.18329027       5.90881574       4.28489515        5       0.00000000       0.05011871      -0.10079979      -0.00204298
Ni       7.76325359       5.90671357       4.34730698        5       1.00000000      -0.05714788      -0.02381746      -0.18871251
Pt      10.34299980       5.83478919       4.46698591        7       0.00000000       0.05672291      -0.04143477       0.07884120
Pt       3.92107883       8.15523727       4.30947929        5       0.00000000       0.00797169       0.04143392       0.06356520
Ni       6.46934840       8.18674003       4.29060780        5       1.00000000      -0.05670182       0.16212274      -0.32820930
Pt       8.96388953       8.17639860       4.29861007        5       0.00000000      -0.11410457       0.11284243      -0.00137970
Pt      11.63408439       8.16685491       4.31076979        5       0.00000000       0.00925872       0.03705466      -0.06947485
Pt       0.03172085       0.02035282       6.50405807        9       0.00000000       0.06771863       0.12378197       0.26376320
Pt       2.59086114       0.01663215       6.53027845        9       0.00000000      -0.02921332       0.03714484       0.21914566
Pt       5.18392730      -0.04751583       6.55188560       10       0.00000000      -0.01555906       0.12892523       0.32317880
Pt       7.75329491      -0.03879753       6.58514113       10       0.00000000      -0.04578454       0.16714605       0.32397187
Ni       1.30468546       2.28682916       6.45163694        9       1.00000000      -0.08322826       0.15564172      -0.34289222
Pt       3.83892872       2.26314707       6.38691033        8       0.00000000       0.01916301       0.02473816       0.29730358
Ni       6.48393381       2.22399226       6.43238224        8       1.00000000      -0.03872250      -0.09868241       0.10004202
Pt       9.06337777       2.31275873       6.40018662        8       0.00000000       0.01557423      -0.06035454       0.45336976
Ni       2.54743610       4.46807430       6.46565110        9       1.00000000      -0.06417567      -0.00159323      -0.39204321
Pt       5.15519533       4.43721435       6.54444085        9       0.00000000      -0.08098208      -0.07990294       0.18677768
Ni       7.79765064       4.44885401       6.41176851        8       1.00000000       0.05423680       0.08671338       0.05787533
Ni      10.37302210       4.44569886       6.53628833        9       1.00000000       0.05628196      -0.10825672      -0.17941121
Ni       3.84308794       6.62423076       6.50401640        9       1.00000000      -0.07088828      -0.06832467      -0.20843824
Pt       6.52713075       6.62421516       6.45144870        9       0.00000000       0.06347689       0.05024266       0.50738082
Ni       9.07827967       6.60154145       6.53322286        9       1.00000000      -0.00684849      -0.09380640      -0.06498438
Ni      11.64202842       6.59188696       6.54875869        9       1.00000000       0.06342042       0.01191940      -0.16441413
