64
Lattice="10.15932987372536 0.0029385985976608377 -0.03265907950834394 5.082209837899835 8.771526974102432 -0.06683860705574085 0.0 0.0 21.48011433808157" Properties=species:S:1:pos:R:3:tags:I:1:initial_magmoms:R:1:forces:R:3 unique_id=e8aa6e51a6114b1e9e102b12aab6fa4c stress="0.004746194003422266 -4.01954941285011e-05 -0.000232164303154488 -4.01954941285011e-05 0.004230867642008841 -8.262637319958971e-05 -0.000232164303154488 -8.262637319958971e-05 -0.001472165699455165" energy=-369.18519419722463 pbc="T T T"
Ni       0.03856830      -0.04918170       0.17334110        2       1.00000000       0.10112524      -0.00711477      -0.27718200
Ni       2.50628530      -0.04669438       0.10221610        1       1.00000000       0.00465167      -0.03005483       0.27899896
Ni       5.06824627      -0.04998627       0.16121008        2       1.00000000      -0.07703844       0.00900816      -0.44433852
Ni       7.60891370      -0.06881120       0.14949405        1       1.00000000      -0.08037032      -0.02298523      -0.31032901
Ni       1.26667949       2.19803493       0.08710921        1       1.00000000      -0.02578596       0.00168985       0.33588385
Pt       3.71804864       2.15792020       0.15697078        2       0.00000000       0.06383369       0.04348874      -0.56541670
Pt       6.35813187       2.15592221       0.06460888        1       0.00000000      -0.01657188      -0.00154519      -0.25866018
Pt       8.96619769       2.24641354       0.07468996        1       0.00000000       0.01722877       0.10788382      -0.75374043
Ni       2.48390059       4.42059917       0.06532641        1       1.00000000      -0.02993947       0.02142641       0.37645370
Pt       5.06869703       4.48325029       0.04869295        0       0.00000000      -0.08028843      -0.02989992      -0.04425099
Ni       7.64797575       4.44575226       0.05409366        1       1.00000000       0.05539104       0.06666281       0.23458460
Ni      10.19078965       4.43124018       0.04157180        0       1.00000000       0.02182642       0.13638706       0.39802028
Ni       3.77866785       6.60795160       0.05296326        1       1.00000000      -0.02523702       0.03905691       0.25069783
Ni       6.37117664       6.61724886       0.04709014        0       1.00000000      -0.00352981       0.01485146       0.25874416
Ni       8.86421614       6.55751384       0.09329322        1       1.00000000      -0.08666990      -0.06647689      -0.24380585
Ni      11.45047315       6.55424819       0.00000000        0       1.00000000      -0.00047797      -0.03785896       0.25700148
Ni       1.30106313       0.72727478       2.17561791        4       1.00000000       0.05517628       0.10172037       0.11474606
Ni       3.75054489       0.70483213       2.16728281        4       1.00000000      -0.19133835      -0.08260591       0.03989591
Ni       6.34666784       0.71382879       2.16205119        4       1.00000000       0.05964734      -0.00798892       0.14032850
Pt       8.90403595       0.72423458       2.16510545        4       0.00000000       0.07715355       0.13729592      -0.04842600
Ni       2.49120896       2.93694867       2.21443624        4       1.00000000      -0.04591747       0.02573472       0.14939160
Ni       5.05783969       2.94565130       2.17285743        4       1.00000000      -0.07279081       0.15022291       0.09576750
Ni       7.62689309       2.96178001       2.16667291        4       1.00000000       0.09799906       0.05769512       0.00919487
Ni      10.20672301       2.96293226       2.18437472        4       1.00000000       0.10299693       0.03955822       0.15829330
Ni       3.75852275       5.10621605       2.15057888        4       1.00000000      -0.12871550      -0.08595369       0.06424397
Ni       6.38297160       5.13519705       2.11958258        3       1.00000000       0.11173183       0.02499200      -0.01644473
Ni       8.87775396       5.07562653       2.12802850        3       1.00000000       0.04471640      -0.12445375       0.11496646
Ni      11.44088875       5.06986854       2.12068523        3       1.00000000       0.03393687      -0.12214776       0.19459270
Ni       5.10787278       7.26471389       2.08041889        3       1.00000000       0.00270946      -0.08746087       0.01043975
Ni       7.56661558       7.28906469       2.08067226        3       1.00000000      -0.07903853      -0.01844057       0.05722582
Pt      10.18491102       7.24646263       2.08305678        3       0.00000000       0.05780532      -0.20009314       0.07835146
Ni      12.70183944       7.24451947       2.07169236        3       1.00000000       0.06317662      -0.15119272       0.09398394
Ni       0.04781610       1.48297362       4.27399953        6       1.00000000       0.10707017       0.08944807      -0.18498950
Ni       2.45422442       1.46763090       4.25522525        6       1.00000000      -0.08731411       0.05998108      -0.18444619
Pt       5.07152990       1.44146846       4.18699611        5       0.00000000      -0.02947277      -0.01614538      -0.10650447
Ni       7.61953269       1.44853199       4.25066314        6       1.00000000       0.05143909      -0.05718074      -0.24947378
Ni       1.25774508       3.63796672       4.28854462        6       1.00000000       0.02819827      -0.00319794      -0.11201386
Ni       3.72320216       3.66351385       4.23689163        5       1.00000000      -0.15760060       0.02776952      -0.29661022
Pt       6.42057270       3.64542662       4.24909460        5       0.00000000       0.10476865      -0.07153045      -0.09177734
Ni       8.94144231       3.67991990       4.20601582        5       1.00000000       0.20855833       0.07336312      -0.25145542
Ni       2.47681613       5.77935730       4.27571939        6       1.00000000      -0.09810373      -0.08207304      -0.18006736
Pt       5.06683587       5.82131860       4.24526060        5       0.00000000       0.05474584      -0.03823346      -0.12746561
Ni       7.62698301       5.80529297       4.22214553        5       1.00000000       0.07583107      -0.01312863      -0.27929960
Ni      10.18120450       5.76825565       4.24670793        5       1.00000000       0.05847870      -0.06285701      -0.11629361
Pt       3.77413517       8.00549414       4.21495977        5       0.00000000      -0.11244412       0.05152421       0.03016107
Ni       6.34339302       8.03790410       4.20888968        5       1.00000000      -0.14864507       0.06935214      -0.25724290
Pt       8.80174872       7.98445464       4.19120826        5       0.00000000      -0.07176134       0.02426188       0.03375329
Ni      11.41526628       7.96311213       4.20905161        5       1.00000000      -0.06823651      -0.13694465      -0.06855794
Pt       0.08110633      -0.05838854       6.47450449        9       0.00000000      -0.04236152       0.13343772       0.18420621
Ni       2.51649274      -0.03421576       6.43053229        8       1.00000000       0.06918091       0.00748799      -0.06557361
Pt       5.04053796      -0.04294629       6.48011434        9       0.00000000       0.07148212       0.02118865       0.50329560
Pt       7.60282677      -0.07331810       6.45664173        9       0.00000000       0.00771290       0.14355988       0.49196297
Ni       1.25547423       2.20460427       6.38910203        8       1.00000000      -0.01273313       0.13257991      -0.22792718
Pt       3.72539296       2.24443417       6.34337551        7       0.00000000      -0.08232103       0.16447129       0.58500376
Ni       6.33117490       2.20230072       6.33705134        7       1.00000000      -0.03075288      -0.05044839       0.34228714
Pt       8.89382064       2.25578916       6.27393388        7       0.00000000       0.03750624      -0.08523671       0.66987188
Ni       2.48909148       4.39916590       6.37425657        8       1.00000000       0.03573813       0.00351105      -0.33854087
Ni       5.06488848       4.38522403       6.32834265        7       1.00000000      -0.09184062      -0.03037506       0.23629485
Ni       7.56958682       4.36256040       6.39224775        8       1.00000000      -0.03465576      -0.00555748      -0.03344857
Ni      10.20361742       4.36384662       6.35223272        8       1.00000000       0.10492836      -0.02067199      -0.30448811
Ni       3.78277001       6.48115101       6.40302041        8       1.00000000       0.00811491      -0.08304332      -0.13388640
Ni       6.33100934       6.50986094       6.38909125        8       1.00000000      -0.00892758      -0.06084136      -0.13898869
Pt       8.84526601       6.44836307       6.40678999        8       0.00000000       0.06405288      -0.16129482       0.14868731
Ni      11.43698312       6.47876561       6.34413425        7       1.00000000      -0.03803247       0.07542257      -0.22568512
