64
Lattice="10.192577235095857 0.039065856568679766 -0.025403357603405462 5.130120641757004 8.811852193412973 -0.042235984104546445 -0.020741754627265012 -0.027845210076366398 8.737489197060096" Properties=species:S:1:pos:R:3:tags:I:1:initial_magmoms:R:1:forces:R:3 unique_id=caa5a63919fd4aa09e644f1bc7109b43 stress="-0.007211709305510294 -1.5818233498432236e-05 2.9740553234157897e-05 -1.5818233498432236e-05 -0.007147236060831744 -2.6829742114000165e-05 2.9740553234157897e-05 -2.6829742114000165e-05 -0.006172013333218457" energy=-392.2996936399417 pbc="T T T"
Ni       0.03253692      -0.04676215       0.19988779        4       1.00000000       0.05736379      -0.05320617       0.16626506
Ni       2.50087504       0.02197608       0.16738968        4       1.00000000      -0.03505239       0.12060598       0.04497827
Pt       5.12621224       0.00105460       0.16472558        4       0.00000000      -0.03184555       0.03053006      -0.12726265
Ni       7.65817807      -0.01768799       0.16187336        4       1.00000000       0.01219154      -0.08690702       0.10008197
Ni       1.27371318       2.22445806       0.11758526        4       1.00000000      -0.03932909       0.10746601       0.11500694
Pt       3.78994965       2.29475285       0.17857375        4       0.00000000      -0.04031887       0.07219388      -0.10668118
Ni       6.38363826       2.27418106       0.10225130        4       1.00000000      -0.02186151       0.11232902       0.12450974
Pt       8.92699260       2.29620424       0.11880218        4       0.00000000      -0.01686489       0.09906371      -0.16614320
Ni       2.54041660       4.45058490       0.08870693        4       1.00000000      -0.00978540       0.05864326       0.05785059
Ni       5.12894565       4.45885035       0.08543781        4       1.00000000      -0.05673858       0.05679534       0.03585229
Ni       7.62565155       4.46140680       0.08458311        4       1.00000000      -0.06509676       0.07075189       0.10809808
Ni      10.24097852       4.46435737       0.07582983        4       1.00000000       0.06165523       0.06117065       0.06957226
Ni       3.84824062       6.58056300       0.07997255        4       1.00000000      -0.00907278      -0.06086025       0.02531936
Ni       6.34589986       6.58255607       0.03336802        4       1.00000000      -0.13253553      -0.05311481      -0.10439715
Ni       8.93694868       6.55771461       0.13525407        4       1.00000000       0.01616399      -0.11228964       0.10649956
Ni      11.53629922       6.57894481       0.03118833        4       1.00000000       0.06639397      -0.04915073      -0.05149366
Ni       1.29492272       0.78570544       2.17053990        3       1.00000000       0.01730592       0.10395359       0.05541288
Ni       3.77444930       0.78122545       2.18656049        3       1.00000000      -0.08198812       0.00170911      -0.01019838
Ni       6.38820101       0.78876788       2.18593019        3       1.00000000       0.02603549       0.01055688       0.03000510
Pt       8.90099386       0.73798479       2.16683313        3       0.00000000       0.04235703      -0.02042885       0.13728861
Ni       2.52498106       2.97375576       2.24324636        3       1.00000000       0.02231681       0.04038877       0.07209180
Ni       5.10866793       3.00038619       2.16165997        3       1.00000000      -0.02899768       0.09973920      -0.01006936
Ni       7.62640147       2.99586714       2.18378138        3       1.00000000      -0.00530359       0.02781023       0.06069183
Ni      10.24589005       3.02654352       2.17120749        3       1.00000000       0.06378174       0.04612417       0.02341747
Ni       3.82726594       5.12397680       2.16738047        3       1.00000000      -0.01948639      -0.07404548      -0.00369907
Ni       6.33856850       5.11608373       2.11164487        3       1.00000000      -0.07173284      -0.00980858      -0.00251024
Ni       8.94432853       5.07974648       2.13878460        3       1.00000000      -0.00037503      -0.08706180       0.02820574
Ni      11.52826915       5.10242766       2.15808964        3       1.00000000       0.09131352      -0.08224136       0.05568537
Ni       5.08731429       7.26517564       2.12787135        3       1.00000000      -0.09441224      -0.16153269       0.02202240
Pt       7.57580015       7.33406695       2.07585395        3       0.00000000      -0.07499498      -0.02767377       0.00218302
Pt      10.30671480       7.25419564       2.17760375        3       0.00000000       0.02711767      -0.14500872       0.08392031
Ni      12.79087542       7.28717999       2.10495634        3       1.00000000       0.07093084      -0.17099551      -0.00760821
Pt       0.07663611       1.51616914       4.28854713        2       0.00000000       0.06711473      -0.04370064       0.01663025
Ni       2.54241243       1.52851813       4.26987126        2       1.00000000       0.04860559       0.09300342      -0.09882879
Pt       5.10033671       1.49203342       4.20763361        2       0.00000000       0.00480753       0.00575513      -0.10958117
Ni       7.64119231       1.47722942       4.29225999        2       1.00000000       0.01510929      -0.05860866      -0.05661737
Ni       1.31286706       3.70615549       4.32031617        2       1.00000000       0.05609186      -0.00463694      -0.06062221
Ni       3.76664955       3.74416260       4.26349322        2       1.00000000      -0.00447960       0.06760593      -0.15710045
Pt       6.35973100       3.67889121       4.30481871        2       0.00000000       0.01484789      -0.03246474      -0.02130860
Ni       8.97289936       3.72694682       4.24592859        2       1.00000000       0.07890620       0.03494751      -0.17699661
Ni       2.53772678       5.80000052       4.30988383        2       1.00000000      -0.02780060      -0.01498088      -0.15756043
Ni       5.06258236       5.82912425       4.30481911        2       1.00000000      -0.03024595      -0.09174823      -0.13634971
Pt       7.63951499       5.85080812       4.27857386        2       0.00000000       0.02045492      -0.01483343      -0.00873964
Ni      10.27634677       5.81947532       4.30251496        2       1.00000000       0.02383344      -0.05278901      -0.01635096
Pt       3.82685556       7.94673516       4.26115766        2       0.00000000       0.01268385      -0.01989388       0.04388041
Ni       6.36292937       8.05538467       4.26733634        2       1.00000000      -0.05227345      -0.00855597      -0.07582122
Pt       8.91622704       8.08217406       4.24002225        2       0.00000000      -0.05376737      -0.04152861      -0.04603980
Ni      11.51687957       8.02509018       4.26088909        2       1.00000000       0.02440597      -0.07979975      -0.04959108
Pt      -0.00880154      -0.08252538       6.54629084        1       0.00000000      -0.05393564      -0.02667893       0.18068761
Pt       2.50715752       0.00613056       6.50571190        1       0.00000000       0.06643042       0.04954127       0.05585443
Pt       5.11384453       0.00202303       6.41023785        1       0.00000000      -0.03306793       0.03137523       0.11343818
Pt       7.62692500      -0.03667654       6.49423912        1       0.00000000       0.05888024      -0.00336120       0.12915800
Ni       1.26835449       2.26193188       6.45762665        1       1.00000000       0.04127248       0.07988066      -0.00487238
Pt       3.79312720       2.34573436       6.38159206        1       0.00000000      -0.00830382       0.10552870      -0.00972964
Ni       6.35915429       2.26148880       6.46007055        1       1.00000000      -0.02626816       0.03625046       0.01651868
Pt       8.89671129       2.33271888       6.35522151        1       0.00000000      -0.04253768       0.07865152       0.01673318
Ni       2.52194788       4.45330261       6.41909370        1       1.00000000       0.00844794       0.07413826      -0.08441363
Ni       5.10098850       4.46192269       6.44911180        1       1.00000000      -0.02801476       0.08614687      -0.02047589
Ni       7.58170118       4.41535350       6.46590614        1       1.00000000      -0.13444247       0.01786614       0.05109352
Ni      10.27968120       4.41278008       6.40598388        1       1.00000000       0.15927647      -0.02026836      -0.08887987
Ni       3.82596254       6.49263639       6.44258767        1       1.00000000      -0.01893433      -0.08995137      -0.03275316
Ni       6.34438799       6.53527455       6.43419824        1       1.00000000      -0.01530980      -0.01485411      -0.15464342
Pt       8.96209182       6.47827185       6.51073589        1       0.00000000       0.05544775      -0.06912825       0.14360476
Ni      11.52328781       6.54564743       6.39340557        1       1.00000000       0.03362967       0.00158550      -0.13521853
