64
Lattice="10.265077791086895 -0.004467586501710193 -0.02620694221491746 5.128669852139362 8.825225537937142 -0.0781996792767948 -0.02139787871505062 -0.061373293634758457 8.748531068209163" Properties=species:S:1:pos:R:3:tags:I:1:initial_magmoms:R:1:forces:R:3 unique_id=c636c4e0f31c49fb9660de79867f0129 stress="0.00016692536932980812 -2.6033408174465984e-06 9.383723105293435e-06 -2.6033408174465984e-06 0.00018060765481300173 9.70410944485674e-06 9.383723105293435e-06 9.70410944485674e-06 0.00016943233406692404" energy=-395.8968635799769 pbc="T T T"
Ni       0.01603952      -0.07196025       0.17681260        4       1.00000000       0.05916169      -0.13232783       0.25344463
Ni       2.55428902      -0.06628459       0.10929886        4       1.00000000      -0.03247968      -0.12239623       0.19700859
Ni       5.12847172      -0.04797615       0.15384628        4       1.00000000      -0.03581420      -0.08703098       0.23760451
Ni       7.68550694      -0.07328783       0.15598373        4       1.00000000      -0.05316892      -0.12537560       0.28832089
Pt       1.27690958       2.19353147       0.08351144        4       0.00000000       0.01193217      -0.05174436      -0.03686501
Pt       3.83351605       2.15952156       0.16646865        4       0.00000000      -0.05855352      -0.05434821       0.23258397
Pt       6.41801851       2.16516138       0.06954757        4       0.00000000       0.01201984      -0.03966355      -0.05134321
Pt       8.98213986       2.24500730       0.08505563        4       0.00000000      -0.02567336       0.07666548       0.15781616
Ni       2.55997077       4.45491304       0.10424429        4       1.00000000       0.05774074       0.03202752       0.19848371
Pt       5.13088460       4.51258842       0.05353029        4       0.00000000      -0.01757509       0.12505122      -0.08710987
Ni       7.69708920       4.46117008       0.02009033        4       1.00000000      -0.07871577       0.14707697       0.10396121
Ni      10.26645638       4.45738408       0.00670960        4       1.00000000       0.04488410       0.14676131       0.04724043
Ni       3.82553953       6.65063238       0.05073849        4       1.00000000      -0.06558267       0.08590115       0.20538601
Ni       6.42657513       6.65646296       0.04442414        4       1.00000000       0.02766024       0.08113662       0.17331460
Ni       8.95196115       6.61637892       0.07713982        4       1.00000000      -0.11230103       0.01897110       0.21071134
Ni      11.56313215       6.61207956      -0.00305112        4       1.00000000       0.05798892      -0.06755377       0.04006239
Ni       1.31004321       0.70191582       2.22362594        3       1.00000000       0.02933316      -0.02618512       0.09804675
Ni       3.79046472       0.71307600       2.19306315        3       1.00000000      -0.21114949      -0.07029220      -0.01613315
Ni       6.42312790       0.72665391       2.18316189        3       1.00000000       0.10943878      -0.01191722       0.01472260
Pt       8.99113086       0.70963235       2.19130000        3       0.00000000       0.09892692       0.15743476      -0.12334987
Ni       2.56811967       2.90676331       2.24989952        3       1.00000000       0.02208372      -0.09975226       0.13672419
Ni       5.11826934       2.95390547       2.20210670        3       1.00000000      -0.05940986       0.17608068      -0.02807584
Ni       7.66835806       2.92304308       2.19970455        3       1.00000000       0.01911604      -0.06675701      -0.03310897
Ni      10.28822044       2.91033367       2.22898220        3       1.00000000       0.08558740      -0.08532980       0.12731693
Ni       3.85384357       5.13938138       2.16822832        3       1.00000000       0.00033906       0.00826377       0.07968774
Ni       6.39877401       5.15997229       2.14165420        3       1.00000000       0.01975161       0.08588578      -0.01851171
Pt       8.91684710       5.10019068       2.15558680        3       0.00000000      -0.02468332      -0.02470801       0.03504346
Pt      11.59838716       5.09194030       2.16148249        3       0.00000000       0.03915091      -0.11932152       0.05212345
Ni       5.15510719       7.31202625       2.09681205        3       1.00000000       0.03974534      -0.07167823      -0.00069092
Ni       7.62613835       7.35929410       2.09832968        3       1.00000000      -0.13062011      -0.01655488       0.01861287
Pt      10.28437672       7.37833255       2.09198208        3       0.00000000       0.05173428      -0.02141564       0.09659392
Ni      12.84593106       7.31579485       2.08672657        3       1.00000000       0.08130148      -0.10415192       0.02963385
Ni       0.04325479       1.47469577       4.30776862        2       1.00000000       0.07487580       0.00397567      -0.11497674
Ni       2.48717631       1.46007601       4.28969022        2       1.00000000      -0.04149784       0.04295516      -0.13903062
Pt       5.13525488       1.43408586       4.21601486        2       0.00000000      -0.10493491      -0.01934550       0.04052394
Ni       7.69625888       1.44281770       4.29110308        2       1.00000000       0.04520901      -0.04479929      -0.08464507
Ni       1.25799457       3.62648255       4.31158513        2       1.00000000       0.01574679      -0.02826797      -0.05914661
Ni       3.78756952       3.66083046       4.25949019        2       1.00000000      -0.08803472       0.01983307      -0.15863416
Pt       6.48046163       3.65566658       4.28990316        2       0.00000000       0.05711432      -0.04905264      -0.07183853
Ni       9.02034413       3.66973993       4.26877452        2       1.00000000       0.16600034       0.00660220      -0.11546678
Ni       2.52314447       5.84621802       4.29950649        2       1.00000000      -0.00608936       0.01376842      -0.05448958
Pt       5.12492729       5.85357515       4.27884675        2       0.00000000       0.03064058      -0.03282993      -0.07011221
Ni       7.68567970       5.84025049       4.28514169        2       1.00000000      -0.01563744       0.02950558      -0.07248666
Ni      10.27975543       5.81191795       4.31157075        2       1.00000000       0.03473790      -0.01776813       0.02353906
Pt       3.81582806       8.05398436       4.23774216        2       0.00000000      -0.02458007       0.03084497       0.12789305
Ni       6.40879519       8.08228280       4.23685748        2       1.00000000      -0.12883590       0.05697946      -0.20251760
Pt       8.88532569       8.03251267       4.22476359        2       0.00000000      -0.09020933      -0.05657327       0.06947310
Ni      11.53580607       8.01310184       4.23996178        2       1.00000000      -0.01955864      -0.08428202      -0.02326162
Pt       0.08191255      -0.07162307       6.51193529        1       0.00000000       0.13606941       0.01818171       0.13978948
Ni       2.54140374      -0.05516610       6.47517053        1       1.00000000       0.04828078      -0.00878782      -0.11438775
Pt       5.10716396      -0.06801479       6.52438355        1       0.00000000      -0.00249655       0.02628680       0.05462613
Pt       7.68461951      -0.08393178       6.50102352        1       0.00000000       0.00914894       0.01564276       0.16558744
Ni       1.26477598       2.17658797       6.35706048        1       1.00000000       0.01059201       0.08937774      -0.29470487
Pt       3.80036081       2.19025071       6.38538712        1       0.00000000       0.00174138       0.08678980      -0.26731518
Ni       6.40669987       2.19667541       6.38459474        1       1.00000000      -0.01617011       0.00922663      -0.24773815
Pt       8.98265425       2.24541851       6.32197105        1       0.00000000       0.04561627       0.08146037      -0.37007313
Pt       2.50566777       4.43470671       6.41858808        1       0.00000000      -0.01458573       0.11984447       0.03370086
Ni       5.14269042       4.39309574       6.37378838        1       1.00000000      -0.00710344       0.02200632      -0.22486617
Ni       7.65514802       4.37421110       6.43075626        1       1.00000000      -0.10987891      -0.04615989      -0.11493247
Ni      10.25762845       4.37722175       6.39131926        1       1.00000000       0.05301503       0.01022500      -0.25866120
Ni       3.84539832       6.55313882       6.43805706        1       1.00000000       0.09676441       0.00469249      -0.05119627
Ni       6.40141578       6.54347212       6.42650110        1       1.00000000       0.00659236      -0.07937353      -0.08936538
Pt       8.92749491       6.48198701       6.44117892        1       0.00000000      -0.03666801      -0.06128753       0.11598518
Ni      11.52482336       6.55228734       6.38875543        1       1.00000000      -0.08803375       0.09757693      -0.21052712
