64
Lattice="10.813453697140984 -3.359078424916274e-14 -3.305028391833853e-15 5.406726848570522 9.364725604370832 -1.6675128021879206e-15 -2.698544381801406e-15 -1.4140821603415242e-17 9.495346984463568" Properties=species:S:1:pos:R:3:tags:I:1:initial_magmoms:R:1:forces:R:3 unique_id=59c419435f6645b4bd7131f5f3bba9bc stress="0.00012607528495944126 -1.2494737064242127e-16 -2.029413253338193e-17 -1.2494737064242127e-16 0.00012607528495926085 1.9106176893674228e-16 -2.029413253338193e-17 1.9106176893674228e-16 0.00011763062848323819" energy=-434.9301430411799 pbc="T T T"
Pt       0.00000000      -0.00000000       0.08621267        4       0.00000000       0.00000000       0.00000000       0.09531752
Pt       2.70333933       0.00011302       0.08656079        4       0.00000000       0.00558401      -0.00527427       0.09183980
Pt       5.40672685       0.00064927       0.08464792        4       0.00000000      -0.00000000      -0.01396126       0.10617920
Pt       8.11011437       0.00011302       0.08656079        4       0.00000000      -0.00558401      -0.00527427       0.09183980
Pt       1.35176754       2.34110402       0.08656079        4       0.00000000      -0.00177565       0.00747303       0.09183980
Pt       4.05478417       2.34103073       0.08752639        4       0.00000000      -0.00232908      -0.00134469       0.11259429
Pt       6.75866953       2.34103073       0.08752639        4       0.00000000       0.00232908      -0.00134469       0.11259429
Pt       9.46168616       2.34110402       0.08656079        4       0.00000000       0.00177565       0.00747303       0.09183980
Pt       2.70392570       4.68203817       0.08464792        4       0.00000000      -0.01209080       0.00698063       0.10617920
Pt       5.40672685       4.68266415       0.08752639        4       0.00000000      -0.00000000       0.00268939       0.11259429
Pt       8.10952799       4.68203817       0.08464792        4       0.00000000       0.01209080       0.00698063       0.10617920
Pt      10.81345370       4.68412108       0.08509644        4       0.00000000      -0.00000000       0.01740825       0.07909117
Pt       4.05515506       7.02350856       0.08656079        4       0.00000000      -0.00735966      -0.00219876       0.09183980
Pt       6.75829864       7.02350856       0.08656079        4       0.00000000       0.00735966      -0.00219876       0.09183980
Pt       9.46329470       7.02266506       0.08509644        4       0.00000000       0.01507598      -0.00870412       0.07909117
Pt      12.16361269       7.02266506       0.08509644        4       0.00000000      -0.01507598      -0.00870412       0.07909117
Pt       1.35192477       0.78053413       2.39420129        3       0.00000000       0.00478206       0.00276092       0.12884721
Pt       4.05650609       0.77739524       2.39711253        3       0.00000000       0.00887011      -0.02117836       0.14369026
Pt       6.75694761       0.77739524       2.39711253        3       0.00000000      -0.00887011      -0.02117836       0.14369026
Pt       9.46152893       0.78053413       2.39420129        3       0.00000000      -0.00478206       0.00276092       0.12884721
Pt       2.70149707       3.12433971       2.39711253        3       0.00000000      -0.01390595       0.01827092       0.14369026
Pt       5.40672685       3.12157520       2.39575324        3       0.00000000       0.00000000      -0.00000000       0.14020319
Pt       8.11195663       3.12433971       2.39711253        3       0.00000000       0.01390595       0.01827092       0.14369026
Pt      10.81345370       3.12446834       2.39669926        3       0.00000000      -0.00000000       0.00644802       0.11258734
Pt       4.05171783       5.46299066       2.39711253        3       0.00000000      -0.02277606       0.00290744       0.14369026
Pt       6.76173587       5.46299066       2.39711253        3       0.00000000       0.02277606       0.00290744       0.14369026
Pt       9.47179123       5.46854121       2.41958475        3       0.00000000       0.05081303       0.02933692       0.19602267
Pt      12.15511617       5.46854121       2.41958475        3       0.00000000      -0.05081303       0.02933692       0.19602267
Pt       5.40672685       7.80365734       2.39420129        3       0.00000000      -0.00000000      -0.00552185       0.12884721
Pt       8.11259581       7.80249143       2.39669926        3       0.00000000       0.00558415      -0.00322401       0.11258734
Pt      10.81345370       7.79236878       2.41958475        3       0.00000000       0.00000000      -0.05867383       0.19602267
Pt      13.51431159       7.80249143       2.39669926        3       0.00000000      -0.00558415      -0.00322401       0.11258734
Pt       0.00000000       1.56686526       4.72774022        2       0.00000000       0.00000000       0.03615172      -0.11986910
Pt       2.70325660       1.56072592       4.72753610        2       0.00000000       0.00040921       0.00023626      -0.12526356
Pt       5.40672685       1.55461050       4.72674527        2       0.00000000      -0.00000000      -0.03331846      -0.12819237
Pt       8.11019710       1.56072592       4.72753610        2       0.00000000      -0.00040921       0.00023626      -0.12526356
Pt       1.33463399       3.93188626       4.72647876        2       0.00000000      -0.03878990       0.06368497      -0.12193172
Pt       4.04969561       3.90505755       4.72674527        2       0.00000000      -0.02885463       0.01665923      -0.12819237
Pt       6.76375809       3.90505755       4.72674527        2       0.00000000       0.02885463       0.01665923      -0.12819237
Pt       9.47881971       3.93188626       4.72647876        2       0.00000000       0.03878990       0.06368497      -0.12193172
Pt       2.66893045       6.24295554       4.72647876        2       0.00000000      -0.07454775       0.00175055      -0.12193172
Pt       5.40672685       6.24327376       4.72753610        2       0.00000000      -0.00000000      -0.00047251      -0.12526356
Pt       8.14452324       6.24295554       4.72647876        2       0.00000000       0.07454775       0.00175055      -0.12193172
Ni      10.81345370       6.24315040       4.74336973        2       1.00000000      -0.00000000       0.00000000      -0.04020425
Pt       4.04978173       8.58129298       4.72774022        2       0.00000000      -0.03130831      -0.01807586      -0.11986910
Pt       6.76367197       8.58129298       4.72774022        2       0.00000000       0.03130831      -0.01807586      -0.11986910
Pt       9.47915723       8.55460941       4.72647876        2       0.00000000       0.03575785      -0.06543552      -0.12193172
Pt      12.14775016       8.55460941       4.72647876        2       0.00000000      -0.03575785      -0.06543552      -0.12193172
Pt       0.00000000      -0.00000000       7.03316977        1       0.00000000       0.00000000      -0.00000000      -0.12302518
Pt       2.70516792      -0.00167582       7.03074235        1       0.00000000       0.01355039      -0.01500243      -0.12806342
Pt       5.40672685      -0.00180260       7.03030296        1       0.00000000      -0.00000000       0.00510083      -0.10949820
Pt       8.10828577      -0.00167582       7.03074235        1       0.00000000      -0.01355039      -0.01500243      -0.12806342
Pt       1.35113266       2.34358205       7.03074235        1       0.00000000      -0.00621729       0.01923620      -0.12806342
Pt       4.05524751       2.34129824       7.03458063        1       0.00000000      -0.00252785      -0.00145946      -0.10972141
Pt       6.75820619       2.34129824       7.03458063        1       0.00000000       0.00252785      -0.00145946      -0.10972141
Pt       9.46232104       2.34358205       7.03074235        1       0.00000000       0.00621729       0.01923620      -0.12806342
Pt       2.70180233       4.68326410       7.03030296        1       0.00000000       0.00441745      -0.00255042      -0.10949820
Pt       5.40672685       4.68212913       7.03458063        1       0.00000000      -0.00000000       0.00291892      -0.10972141
Pt       8.11165137       4.68326410       7.03030296        1       0.00000000      -0.00441745      -0.00255042      -0.10949820
Pt      10.81345370       4.69262596       7.01349062        1       0.00000000      -0.00000000       0.03196926      -0.13794414
Pt       4.05269158       7.02281937       7.03074235        1       0.00000000      -0.01976768      -0.00423377      -0.12806342
Pt       6.76076211       7.02281937       7.03074235        1       0.00000000       0.01976768      -0.00423377      -0.12806342
Pt       9.47066014       7.01841263       7.01349062        1       0.00000000       0.02768619      -0.01598463      -0.13794414
Pt      12.15624726       7.01841263       7.01349062        1       0.00000000      -0.02768619      -0.01598463      -0.13794414
