64
Lattice="10.294322143301574 0.005633415174292016 0.032369558885600405 5.152039752301789 8.907224042728991 0.003964955458339118 0.0 0.0 21.584859215119906" Properties=species:S:1:pos:R:3:tags:I:1:initial_magmoms:R:1:forces:R:3 unique_id=32c9f321c91b4a75a659dee63c8d924c energy=-376.1660277744059 stress="0.005675168180035026 0.0001603951566382666 0.00028339952022731933 0.0001603951566382666 0.006051863019453845 1.9785256268605032e-05 0.00028339952022731933 1.9785256268605032e-05 -0.0012269466257806491" pbc="T T T"
Ni       0.01518329      -0.00702483       0.12105570        1       1.00000000       0.10205596       0.01819292      -0.01416450
Ni       2.54579716       0.01423140       0.15122531        2       1.00000000      -0.07563611       0.08953068       0.04562760
Pt       5.14131099      -0.03105734       0.09270435        1       0.00000000      -0.06587092       0.19492254      -0.89771339
Ni       7.74809058      -0.05085835       0.15265630        2       1.00000000      -0.05064025      -0.10744812      -0.14918459
Ni       1.29737301       2.23347028       0.05348065        1       1.00000000       0.02351411       0.02570215       0.45522235
Pt       3.77950811       2.28212912       0.13998983        1       0.00000000       0.01570990      -0.00675939      -0.25164588
Pt       6.43611284       2.23350786       0.07954194        1       0.00000000      -0.00898491      -0.04889539      -0.11509234
Pt       9.10563249       2.23259314       0.09377912        1       0.00000000       0.00242747       0.14637393      -0.47013005
Ni       2.57651742       4.48732762       0.01510095        0       1.00000000       0.10162131       0.02180939       0.29021898
Ni       5.10821698       4.48806538       0.14891318        1       1.00000000      -0.10144798       0.09397145      -0.02803549
Pt       7.73637431       4.49975735       0.00000000        0       0.00000000      -0.07361770       0.01353690      -0.23817214
Ni      10.35739386       4.47979522       0.03512427        0       1.00000000       0.10926931      -0.03881458       0.22374942
Ni       3.82853591       6.67422840       0.05959864        1       1.00000000      -0.01691864      -0.03297072       0.45423897
Pt       6.40088934       6.74020912       0.15029789        2       0.00000000      -0.05681619       0.04415720      -0.44212809
Ni       9.03289094       6.67892457       0.03913157        0       1.00000000      -0.04821649       0.03452976       0.12120366
Ni      11.62283708       6.65462426       0.04293062        0       1.00000000       0.09956171       0.07491554       0.26206435
Ni       1.32502888       0.75183196       2.18526128        3       1.00000000       0.07202959       0.08287678       0.20989538
Ni       3.82685270       0.78357719       2.21151210        3       1.00000000      -0.06599560       0.13450602       0.27489028
Ni       6.44017122       0.78687604       2.21839459        3       1.00000000      -0.06115698       0.17243085       0.26654505
Pt       9.03486621       0.74154289       2.22057518        3       0.00000000       0.07081431       0.14680883       0.00506969
Ni       2.57546387       2.93772770       2.24101359        3       1.00000000       0.02221383      -0.15131229       0.30701279
Ni       5.13155565       2.97874977       2.22065923        3       1.00000000      -0.11891222      -0.03090322       0.21582149
Ni       7.70945616       2.95078118       2.22553793        3       1.00000000      -0.00400393      -0.07419565       0.16568518
Ni      10.35315373       2.94509062       2.23928627        3       1.00000000       0.18922136      -0.12576930       0.24557087
Ni       3.89391406       5.18048059       2.15030387        3       1.00000000       0.04001311      -0.10592756      -0.01780864
Ni       6.40606422       5.18260270       2.18112390        3       1.00000000       0.02834087      -0.14174216       0.02425281
Pt       8.97084482       5.15127866       2.22986646        3       0.00000000      -0.08558309      -0.20719966      -0.03892887
Pt      11.68430786       5.13470662       2.16958414        3       0.00000000       0.11561512      -0.14507962       0.08619421
Ni       5.15586741       7.41600461       2.18094859        3       1.00000000       0.00477927       0.01379344       0.13352663
Ni       7.68702161       7.45976141       2.19604314        3       1.00000000      -0.13773946       0.08333450       0.18910706
Pt      10.30608026       7.40907517       2.18205026        3       0.00000000       0.01017521      -0.08883976      -0.27546221
Ni      12.91848320       7.39791671       2.15468755        3       1.00000000       0.13484523      -0.09451056       0.01885298
Ni       0.07230979       1.52656928       4.30108488        5       1.00000000       0.19364508       0.05273031      -0.20746575
Ni       2.54344861       1.52564407       4.28137634        5       1.00000000      -0.09284277       0.04972011      -0.29989932
Ni       5.14411317       1.51301514       4.29720884        5       1.00000000      -0.13239139       0.02957306      -0.40274237
Ni       7.74122364       1.50483058       4.33341972        5       1.00000000       0.04020682      -0.07782428      -0.27576895
Ni       1.32660879       3.65454212       4.35405271        6       1.00000000       0.08538354      -0.13298296      -0.08026400
Ni       3.82276063       3.69741751       4.28342568        5       1.00000000      -0.10647357      -0.05011379      -0.32298591
Pt       6.48241965       3.65355016       4.29323850        5       0.00000000      -0.05268356      -0.02713425      -0.08929833
Ni       9.04073566       3.68543354       4.32776732        5       1.00000000       0.09310934      -0.17634949      -0.30235532
Ni       2.59470897       5.87672940       4.36577698        6       1.00000000       0.05670945      -0.15702517      -0.03646096
Pt       5.14296958       5.89973854       4.23729661        4       0.00000000      -0.02257464      -0.14905491      -0.08262008
Ni       7.73945944       5.91747023       4.34123314        5       1.00000000      -0.10101513      -0.03788928      -0.21617392
Pt      10.32422744       5.84440375       4.45702537        7       0.00000000       0.07851291      -0.02720029       0.07924850
Pt       3.92099378       8.16507818       4.30113464        5       0.00000000       0.08242609       0.02248516       0.08057266
Ni       6.45037674       8.19588405       4.28343831        5       1.00000000      -0.09744397       0.11422624      -0.34245622
Pt       8.92749433       8.19327645       4.28006867        5       0.00000000      -0.15767591       0.08493720      -0.00922910
Pt      11.63070394       8.18176818       4.28575740        5       0.00000000       0.07393631       0.01363559      -0.06661751
Pt       0.02165643       0.01504875       6.52245791        9       0.00000000       0.06527470       0.13571571       0.24860651
Pt       2.57470126       0.01379470       6.54147695        9       0.00000000      -0.02400915       0.03288757       0.23166354
Pt       5.16257611      -0.03779124       6.45423609        9       0.00000000      -0.02010855       0.15350229       0.95045964
Pt       7.72910190      -0.03620251       6.58485922       10       0.00000000      -0.04846561       0.18187305       0.34666833
Ni       1.29392034       2.28628128       6.46219387        9       1.00000000      -0.08450034       0.17370822      -0.35747055
Pt       3.82007421       2.27149471       6.39293937        8       0.00000000       0.01619285       0.04137888       0.27399652
Ni       6.46282263       2.23193719       6.43346125        8       1.00000000      -0.03811648      -0.07181936       0.07026926
Pt       9.03830135       2.32138372       6.40058285        8       0.00000000       0.00140135      -0.05859738       0.42515386
Ni       2.53366088       4.47574494       6.47260886        9       1.00000000      -0.05515272       0.02626043      -0.43051933
Pt       5.13760277       4.44950258       6.54718305        9       0.00000000      -0.08622123      -0.06383862       0.04294017
Ni       7.77614232       4.46026508       6.40866764        8       1.00000000       0.04444193       0.09954942       0.03406087
Ni      10.34456796       4.46002537       6.52876142        9       1.00000000       0.05985365      -0.11537759      -0.18372519
Ni       3.83159907       6.63539780       6.50670502        9       1.00000000      -0.06963142      -0.07938675      -0.27005979
Pt       6.50246297       6.63572792       6.44131692        8       0.00000000       0.06732722       0.06617675       0.39065299
Ni       9.05493830       6.61457223       6.52396198        9       1.00000000      -0.00474281      -0.06834628      -0.08935872
Ni      11.61467691       6.61051141       6.53780939        9       1.00000000       0.06496077       0.02355553      -0.16510509
