64
Lattice="10.172856900314699 -0.00561362101682917 0.00039023152970954353 5.081566911749559 8.794652382725266 0.01772934061163137 0.00031862270977803573 0.016531425722673923 8.711435702805364" Properties=species:S:1:pos:R:3:tags:I:1:initial_magmoms:R:1:forces:R:3 unique_id=ebad0ca8aa1c4144bc42c718edfdbd40 stress="-5.0293867803051506e-05 2.755416677678591e-07 3.474677458386653e-06 2.755416677678591e-07 -5.28340442433467e-05 -2.936502488462649e-06 3.474677458386653e-06 -2.936502488462649e-06 -2.5070065082032078e-05" energy=-392.0109233785753 pbc="T T T"
Ni       0.03642975      -0.01231004       0.17204698        4       1.00000000       0.18039550      -0.01829782       0.21467442
Ni       2.52131637      -0.02837023       0.19704388        4       1.00000000      -0.02544458      -0.04087417       0.24201987
Ni       5.08560409      -0.02657369       0.07952074        4       1.00000000      -0.03869286      -0.00136032       0.08412832
Ni       7.63008947      -0.01640075       0.15526279        4       1.00000000       0.03959926       0.04649810       0.25166018
Ni       1.23122137       2.20859878       0.11368910        4       1.00000000      -0.10985493       0.05295026       0.17223588
Pt       3.75272104       2.20700602       0.19034342        4       0.00000000      -0.10989023       0.00660900       0.29562885
Pt       6.40674577       2.21462814       0.09683978        4       0.00000000       0.05546387       0.11290547      -0.05592648
Ni       8.94129585       2.24213622       0.15716727        4       1.00000000       0.11159542       0.17579571       0.25332128
Ni       2.52883160       4.42582343       0.07401764        4       1.00000000      -0.04388303       0.07396479       0.02097263
Ni       5.07114509       4.44415883       0.08095268        4       1.00000000      -0.05757373       0.06857668       0.05056270
Ni       7.66267441       4.42494105       0.08960715        4       1.00000000       0.13637509       0.09804590       0.06423185
Ni      10.15957266       4.38584226       0.08398888        4       1.00000000      -0.03980487       0.02035397       0.03219590
Ni       3.83728003       6.58050408       0.08046686        4       1.00000000       0.12447831      -0.03547438       0.01690688
Ni       6.34980882       6.61602127       0.09085568        4       1.00000000       0.00805311       0.09810337      -0.05677398
Ni       8.87328099       6.58070093       0.16146599        4       1.00000000      -0.12608196      -0.05218713       0.16770799
Ni      11.43440607       6.58247888       0.05524705        4       1.00000000      -0.08520784      -0.05698840      -0.08192782
Ni       1.31888162       0.76600182       2.17161934        3       1.00000000       0.09347898       0.15045511       0.04586287
Ni       3.76403509       0.73244897       2.20706614        3       1.00000000      -0.16387261      -0.03711150       0.02112757
Ni       6.33225464       0.75205047       2.18030463        3       1.00000000      -0.00591408       0.01306153      -0.05671893
Pt       8.97190866       0.78612794       2.14287261        3       0.00000000       0.08955630      -0.04346195       0.05239768
Ni       2.52664937       2.90978829       2.25506353        3       1.00000000      -0.00970077      -0.05816335       0.17482860
Ni       5.06505318       2.94908184       2.21986413        3       1.00000000      -0.05528630       0.06678048      -0.01203098
Ni       7.65800826       2.97410455       2.19147468        3       1.00000000       0.07969118       0.11163447       0.04593375
Ni      10.18132840       2.93265968       2.20134200        3       1.00000000       0.04582612      -0.00713059       0.13902847
Ni       3.82591170       5.08981251       2.19735041        3       1.00000000      -0.01256923      -0.12870322       0.01573720
Pt       6.35968271       5.16272497       2.15094619        3       0.00000000      -0.00258591       0.05232635      -0.02456396
Ni       8.88717013       5.09740646       2.20086337        3       1.00000000       0.01322574      -0.05838937       0.05328639
Pt      11.42954021       5.03795078       2.21402288        3       0.00000000      -0.00884942      -0.08959114       0.01069099
Ni       5.11658621       7.32588661       2.15913459        3       1.00000000       0.00425451      -0.02083238      -0.05781998
Ni       7.60876085       7.34860944       2.17171164        3       1.00000000      -0.01229511      -0.02780179      -0.05766017
Pt      10.09384123       7.35166895       2.21375068        3       0.00000000      -0.05225855      -0.04585821       0.00612045
Pt      12.73321526       7.28613878       2.15628732        3       0.00000000       0.04861748      -0.09765218      -0.00693874
Ni       0.05683277       1.53465544       4.32389735        2       1.00000000       0.08479361       0.06940900      -0.00659989
Ni       2.49726869       1.51997710       4.28652766        2       1.00000000      -0.04890848       0.08701624      -0.03533913
Pt       5.02170470       1.42125363       4.25805444        2       0.00000000      -0.15732385       0.02899457       0.04237393
Pt       7.65394212       1.49789852       4.29206714        2       0.00000000       0.06094780       0.01302117       0.10295778
Ni       1.27188918       3.66754017       4.37053898        2       1.00000000       0.00484136      -0.03597764      -0.00166576
Ni       3.75628919       3.72830662       4.30059865        2       1.00000000      -0.10721698       0.05575156      -0.17688908
Pt       6.34068220       3.74974321       4.37612898        2       0.00000000      -0.02572944       0.01464221      -0.05197986
Ni       8.95879278       3.73087905       4.31026042        2       1.00000000       0.10709845       0.08797024      -0.13583318
Ni       2.51488928       5.80840046       4.38842203        2       1.00000000      -0.08950122      -0.12065662      -0.07296336
Ni       5.05354393       5.84532681       4.36845042        2       1.00000000      -0.08022918      -0.03031729      -0.11161194
Ni       7.67247383       5.86326510       4.33606560        2       1.00000000       0.17948129      -0.00231199      -0.15922687
Ni      10.18584266       5.83490302       4.35382619        2       1.00000000       0.05528511      -0.11087555      -0.07376330
Pt       3.80212311       7.97566630       4.35088503        2       0.00000000      -0.04432457      -0.05262030       0.12044616
Pt       6.41750674       8.04367339       4.25431736        2       0.00000000       0.03597785       0.03199636       0.06950398
Ni       8.91661584       8.03166431       4.33748905        2       1.00000000      -0.01050677      -0.14837694       0.02505980
Ni      11.39615729       7.99937478       4.35769565        2       1.00000000      -0.02322373      -0.15142045      -0.03296055
Pt       0.00285175      -0.02428579       6.52347755        1       0.00000000       0.01354760      -0.09651721       0.09928241
Pt       2.58616098       0.01256702       6.49503827        1       0.00000000      -0.00794447       0.02217520       0.13600045
Ni       5.08853270      -0.01124432       6.44953497        1       1.00000000      -0.05709895      -0.02743222      -0.20953843
Pt       7.53329822      -0.05667551       6.52415253        1       0.00000000      -0.10336782      -0.07586719       0.09990065
Ni       1.27710232       2.26832656       6.43616723        1       1.00000000       0.04184567       0.06005473      -0.15889693
Pt       3.80792467       2.31535241       6.40846727        1       0.00000000       0.02509158       0.20814473      -0.28760926
Ni       6.34373856       2.23099171       6.40505309        1       1.00000000      -0.05021078       0.01908144      -0.22834467
Pt       8.92702365       2.31502162       6.49380079        1       0.00000000       0.00615254       0.11512178       0.04768945
Ni       2.51553163       4.45286500       6.43657947        1       1.00000000      -0.06602161       0.08336385      -0.18899234
Ni       5.07951107       4.46375306       6.47010864        1       1.00000000      -0.04989529       0.15480373      -0.08436730
Ni       7.59823895       4.42809393       6.47438940        1       1.00000000      -0.09927538       0.03455595      -0.07766434
Ni      10.23346586       4.41401147       6.44111379        1       1.00000000       0.25144666      -0.01453585      -0.19715617
Ni       3.80487111       6.51409333       6.47258026        1       1.00000000      -0.05803806      -0.19127769      -0.10820270
Ni       6.33391911       6.53792722       6.46662328        1       1.00000000       0.01156830      -0.06766295      -0.22032505
Pt       8.94095458       6.52522721       6.46285778        1       0.00000000       0.06294160      -0.11941766       0.10746017
Ni      11.45515569       6.54209393       6.44288465        1       1.00000000       0.06695228      -0.16901853      -0.25164435
