64
Lattice="10.366514618519599 -0.01821379720795524 0.010532915489818004 5.16748369817833 8.84382430038621 -0.05274099803385172 0.0 0.0 21.54732026173744" Properties=species:S:1:pos:R:3:tags:I:1:initial_magmoms:R:1:forces:R:3 unique_id=cb2d2ccdb9da40a69c0fa5e1a10ba3b4 energy=-376.8842400192191 stress="0.006249541318125119 -6.330849478629318e-05 -6.96920793266981e-05 -6.330849478629318e-05 0.005087535952075544 6.139818347900088e-05 -6.96920793266981e-05 6.139818347900088e-05 -0.00214711301307572" pbc="T T T"
Ni      -0.01421498      -0.02062518       0.16898609        2       1.00000000      -0.00792911       0.05619622      -0.13538933
Ni       2.61156155      -0.02038417       0.19088605        2       1.00000000       0.06948812       0.03839811       0.03428073
Ni       5.18538833      -0.05030588       0.14961680        1       1.00000000      -0.00582263       0.00686248      -0.25096679
Ni       7.76438839      -0.08518529       0.17387280        2       1.00000000      -0.11065408      -0.13721738      -0.10509498
Pt       1.29650786       2.21553516       0.16538752        2       0.00000000       0.00008158      -0.05839685      -0.29860935
Pt       3.86496408       2.15558429       0.16681621        2       0.00000000       0.01113370      -0.03717820      -0.37229922
Pt       6.47342723       2.11452947       0.08970393        1       0.00000000       0.04523437      -0.07841449      -0.12632688
Pt       9.08982434       2.18356421       0.11068365        1       0.00000000       0.01339960       0.06374384      -0.62735076
Ni       2.55753094       4.46915077       0.02504286        0       1.00000000      -0.01759698       0.01533544       0.15694947
Pt       5.12887423       4.45491059       0.00000000        0       0.00000000       0.12296740      -0.01979821      -0.28431080
Pt       7.80422731       4.45956172       0.00712167        0       0.00000000      -0.10069010       0.06768064      -0.26569947
Ni      10.39195857       4.45401409       0.03914175        0       1.00000000       0.01957007       0.05179267       0.16762959
Ni       3.82643464       6.66942428       0.03505362        0       1.00000000      -0.06367710       0.10615383       0.29789638
Pt       6.46282606       6.73184915       0.06293538        1       0.00000000       0.02736574      -0.02669941       0.00414804
Ni       9.09078886       6.65516789       0.10554357        1       1.00000000      -0.03165532       0.06139625      -0.16774807
Ni      11.67050509       6.62022797       0.02679601        0       1.00000000       0.07416015       0.06622172       0.29371975
Ni       1.32574874       0.70518574       2.24843064        4       1.00000000       0.07652480      -0.01672585       0.32428107
Ni       3.86394572       0.73647508       2.23944591        4       1.00000000      -0.07751135       0.11016615       0.27195649
Ni       6.47585911       0.73122165       2.25087002        5       1.00000000      -0.00401717       0.16517745       0.34629618
Pt       9.07459289       0.70188057       2.24322333        4       0.00000000       0.03354623       0.16338998      -0.05079389
Ni       2.59129416       2.89364519       2.27580552        5       1.00000000       0.01704294      -0.12061049       0.37572234
Ni       5.18565317       2.89335224       2.24676852        4       1.00000000      -0.02988052      -0.08661159       0.22885109
Ni       7.74820731       2.90835701       2.23862052        4       1.00000000      -0.03312375      -0.03442560       0.14881459
Ni      10.37593321       2.90291525       2.27523186        5       1.00000000       0.00960550      -0.07822379       0.38319328
Pt       3.88437150       5.14933991       2.20702540        4       0.00000000       0.04009469      -0.06626121      -0.09776577
Ni       6.47553184       5.14762673       2.19867584        4       1.00000000       0.00417027      -0.01247408       0.09457881
Pt       9.02749226       5.11568194       2.26427583        5       0.00000000      -0.09318273      -0.04468084       0.03493369
Pt      11.66297085       5.09099354       2.19813650        4       0.00000000      -0.02122402      -0.13330482       0.04742359
Ni       5.19997635       7.36907951       2.16735219        4       1.00000000       0.07937147      -0.01208980       0.20396261
Ni       7.72861191       7.38494218       2.17869290        4       1.00000000      -0.11330781       0.04881816       0.25008932
Pt      10.39397007       7.40738713       2.13168232        3       0.00000000       0.07729820       0.00205227       0.08206591
Ni      12.94207627       7.34943902       2.14688077        3       1.00000000       0.01424635      -0.03189585       0.07232698
Ni       0.03383656       1.47466485       4.30250602        7       1.00000000       0.13458121       0.01914606      -0.24342626
Ni       2.57718752       1.47050435       4.28227425        7       1.00000000      -0.04415236       0.04762946      -0.28164512
Ni       5.20202432       1.43969943       4.30003044        7       1.00000000      -0.02425435      -0.09288062      -0.34053893
Ni       7.74400649       1.43134464       4.32675290        7       1.00000000      -0.08629673      -0.12145575      -0.24482997
Ni       1.29512038       3.68182881       4.31352363        7       1.00000000       0.01473756      -0.02114908      -0.13833673
Ni       3.84262113       3.65241670       4.30843386        7       1.00000000      -0.14854002      -0.07377896      -0.25181600
Pt       6.50550496       3.60001500       4.31918946        7       0.00000000       0.00092582      -0.06035350      -0.21747273
Ni       9.10293353       3.66401947       4.32443758        7       1.00000000       0.17118673      -0.03533883      -0.15070505
Ni       2.54546576       5.84295996       4.37791683        8       1.00000000      -0.08699327      -0.09116054       0.02042204
Pt       5.20178637       5.86641790       4.36147525        8       0.00000000       0.07815241       0.04020672      -0.05398792
Ni       7.76785400       5.85113999       4.33387415        7       1.00000000      -0.04581826       0.04318938      -0.17465641
Ni      10.39658646       5.82106704       4.36575650        8       1.00000000       0.09532236       0.00941127      -0.01486133
Pt       3.83898317       8.06527451       4.26401486        7       0.00000000      -0.08847045      -0.01697735       0.05418715
Ni       6.47696774       8.09714987       4.26352672        7       1.00000000      -0.02399086       0.17409338      -0.31021589
Pt       9.03597287       8.08476493       4.24066843        6       0.00000000      -0.04718783       0.06674259       0.04912928
Ni      11.65077017       8.05498871       4.29482132        7       1.00000000      -0.06961426      -0.04403560      -0.17120664
Pt       0.00127668      -0.11025931       6.53024800       10       0.00000000       0.06460186       0.09402899       0.21511416
Pt       2.58459200      -0.07408139       6.52903030       10       0.00000000      -0.02251641       0.09644023       0.23317719
Pt       5.21770274      -0.05794460       6.52263559       10       0.00000000       0.04992687       0.07129390       0.17826953
Pt       7.76125019      -0.10854079       6.54732026       10       0.00000000      -0.07272915       0.06422587       0.24008371
Pt       1.29862794       2.26954081       6.38596622        9       0.00000000       0.01106898      -0.00892238       0.35797964
Pt       3.93643636       2.26338158       6.39023548        9       0.00000000       0.00796660       0.09929813       0.29311187
Ni       6.48367211       2.19264117       6.42371840        9       1.00000000      -0.01828479      -0.04250836       0.12685405
Pt       9.02581403       2.23830878       6.37465039        9       0.00000000       0.00890088      -0.03791364       0.45843209
Ni       2.58706713       4.45232714       6.44701566        9       1.00000000       0.07110537       0.00356027      -0.38485373
Ni       5.18914650       4.40826976       6.40062556        9       1.00000000       0.00217380      -0.01212882       0.23231663
Ni       7.73870161       4.37934607       6.38554759        9       1.00000000      -0.07481815       0.01683892       0.16901687
Ni      10.39867235       4.39781850       6.45327571       10       1.00000000       0.07132683      -0.02588222      -0.31443264
Ni       3.85717192       6.52578261       6.47470491       10       1.00000000      -0.04461196      -0.08282685      -0.21682278
Ni       6.47159467       6.53416777       6.40405130        9       1.00000000       0.12435870      -0.01830136       0.18315962
Pt       9.08030135       6.46299662       6.47617262       10       0.00000000      -0.04399583      -0.09182278       0.02389619
Ni      11.68141967       6.51083776       6.45671869       10       1.00000000       0.01091025       0.00295471      -0.36210653
