64
Lattice="10.212240088114884 -0.010018986789690305 0.02530860515016375 5.097443346977388 8.730513497491811 -0.04439011662292471 0.0 0.0 21.505121200715276" Properties=species:S:1:pos:R:3:tags:I:1:initial_magmoms:R:1:forces:R:3 unique_id=a390acc8b678472b91ac16ba7cf51701 stress="0.002113621272078644 -5.867580152779575e-06 0.0002405241507502037 -5.867580152779575e-06 0.0012461173536907795 -7.667636969497786e-05 0.0002405241507502037 -7.667636969497786e-05 -0.005295343461521123" energy=-369.9199523974656 pbc="T T T"
Ni       0.04719965      -0.05572382       0.16343644        2       1.00000000       0.09162914      -0.01496045      -0.30116089
Ni       2.49399731      -0.03966957       0.19358974        2       1.00000000       0.01499626      -0.00044278      -0.22431968
Pt       5.09721666      -0.04810252       0.12889575        1       0.00000000      -0.07056510       0.37179415      -1.38413630
Ni       7.68772336      -0.06600932       0.18764756        2       1.00000000      -0.06896427       0.00610850      -0.52964693
Ni       1.27605666       2.18754833       0.07601468        1       1.00000000      -0.02090393       0.03234497       0.31676563
Pt       3.74507546       2.24318214       0.14031556        1       0.00000000       0.12862240      -0.06686850      -0.56414895
Pt       6.39807575       2.26027421       0.06558442        1       0.00000000      -0.04058584      -0.07622509      -0.17527311
Pt       9.01083612       2.22510793       0.09605082        1       0.00000000      -0.02419741       0.13923969      -0.72081992
Ni       2.54695285       4.40894570       0.00000000        0       1.00000000       0.08576460       0.02810052       0.19558633
Ni       5.10209158       4.44908683       0.05860469        1       1.00000000      -0.05740323       0.04491614       0.27267332
Ni       7.65287003       4.43554426       0.07066945        1       1.00000000       0.05444006      -0.00572623       0.23320477
Ni      10.23344043       4.39800071       0.03717292        0       1.00000000      -0.02632532       0.03563448       0.23198873
Ni       3.84060023       6.53079169       0.03795995        0       1.00000000       0.04750158       0.01403181       0.29851012
Ni       6.36638301       6.53251270       0.05309909        1       1.00000000      -0.01403921       0.05461669       0.30790897
Ni       8.87341686       6.48321010       0.11020793        1       1.00000000      -0.14341682       0.00265652      -0.37625046
Ni      11.52897262       6.49577225       0.01695240        0       1.00000000       0.03633110       0.07037817       0.10650990
Ni       1.31278835       0.71844268       2.17426927        4       1.00000000       0.02180061       0.03265568       0.20330118
Ni       3.78635366       0.75094425       2.19431586        4       1.00000000      -0.04203563       0.00738604       0.24211787
Ni       6.38445916       0.76311772       2.19932076        4       1.00000000      -0.01521155       0.14727451       0.22509540
Pt       8.96804700       0.70975005       2.20016218        4       0.00000000       0.01806744      -0.10757787       0.19433976
Ni       2.54669333       2.86599766       2.22527600        4       1.00000000       0.01185165      -0.08807434       0.17983618
Ni       5.08716799       2.92959529       2.18983843        4       1.00000000      -0.00939820       0.02553338       0.08364226
Ni       7.66823191       2.94305543       2.19079570        4       1.00000000      -0.01631240       0.00932626       0.10513677
Ni      10.24260309       2.88651354       2.22152362        4       1.00000000       0.06742848      -0.04729045       0.18822977
Ni       3.87834457       5.07123523       2.12780542        3       1.00000000       0.05637259      -0.06738216       0.06197665
Ni       6.37863352       5.09404998       2.10986272        3       1.00000000      -0.00479644      -0.06050732       0.03708721
Ni       8.87783679       5.02191294       2.14728795        3       1.00000000      -0.02798442      -0.14990737       0.09597162
Pt      11.54273543       4.99224281       2.16184763        4       0.00000000       0.08026512      -0.08518255       0.03780204
Ni       5.14843556       7.20053120       2.08345931        3       1.00000000      -0.00652553      -0.06858287       0.08660199
Ni       7.57462598       7.22855396       2.09322779        3       1.00000000      -0.07929679      -0.06459277       0.14046023
Pt      10.16642168       7.17799816       2.11168633        3       0.00000000      -0.00090281      -0.24356323       0.11480262
Ni      12.80971339       7.20131715       2.07959504        3       1.00000000       0.09242705      -0.06298450       0.07714124
Ni       0.07580546       1.47220671       4.24345706        5       1.00000000       0.11777610      -0.04983541      -0.11480303
Ni       2.51310280       1.48245963       4.22024971        5       1.00000000      -0.04331694      -0.02186655      -0.11389174
Ni       5.09565988       1.46701688       4.21088199        5       1.00000000      -0.05738898      -0.00830228      -0.34185341
Ni       7.66612419       1.45357840       4.26105957        6       1.00000000      -0.05802450      -0.05766548      -0.23562529
Ni       1.28846834       3.59850669       4.29057070        6       1.00000000       0.02079966      -0.05046258      -0.03231370
Ni       3.80439687       3.65875393       4.20108761        5       1.00000000       0.00088655       0.04270392      -0.20183836
Pt       6.38231548       3.63290601       4.24862821        5       0.00000000       0.00364418      -0.01327731      -0.02712426
Ni       8.97276231       3.65017125       4.21454830        5       1.00000000       0.00157228       0.05324473      -0.19171026
Ni       2.57842538       5.71294163       4.27981769        6       1.00000000       0.03042394      -0.05942299      -0.07129311
Ni       5.12166363       5.76179635       4.25284195        6       1.00000000       0.07047369      -0.04685832      -0.15310896
Ni       7.63546369       5.77251137       4.22545599        5       1.00000000      -0.03662616       0.02405259      -0.18174523
Ni      10.22401846       5.70198641       4.28540669        6       1.00000000      -0.01068135      -0.00174996      -0.09757078
Pt       3.90591346       7.89207164       4.20563666        5       0.00000000       0.05656609       0.01260936      -0.01816071
Ni       6.37513399       7.94871587       4.18255444        5       1.00000000      -0.03912034      -0.03431600      -0.17647019
Pt       8.83218135       7.97891108       4.18021497        5       0.00000000      -0.09764967       0.05145697      -0.08730743
Pt      11.52471869       7.93335055       4.18961070        5       0.00000000       0.00385967      -0.11181788      -0.18014329
Pt       0.02902874      -0.07800430       6.46580385        9       0.00000000      -0.15674799       0.16653205       0.30183788
Pt       2.53103541      -0.02814914       6.47261178        9       0.00000000       0.17763381       0.11345201       0.31623536
Pt       5.12578375      -0.01658469       6.34688118        7       0.00000000      -0.21175122       0.20056358       1.38424591
Pt       7.67551395      -0.08674602       6.50512120        9       0.00000000       0.16087985       0.22325998       0.48069141
Ni       1.28731479       2.21802475       6.35629164        8       1.00000000      -0.00043396       0.01820062      -0.15682065
Pt       3.82224202       2.29034114       6.28423038        7       0.00000000      -0.00328637      -0.11330752       0.52927197
Ni       6.39438826       2.19243953       6.31107587        7       1.00000000      -0.01242705      -0.04576450       0.27318287
Pt       8.96138658       2.25091928       6.27440577        7       0.00000000      -0.01709506      -0.18116105       0.75745059
Ni       2.53209441       4.38373040       6.34443743        7       1.00000000       0.04243722      -0.03360741      -0.24562266
Ni       5.12246351       4.39056033       6.38210763        8       1.00000000      -0.05423387      -0.01129364      -0.25643059
Ni       7.60262410       4.32552840       6.39287239        8       1.00000000      -0.04409953      -0.01407611      -0.16221918
Ni      10.30339761       4.32164993       6.36642330        8       1.00000000       0.01595200       0.00515470      -0.20119117
Ni       3.83687820       6.41293328       6.37382964        8       1.00000000      -0.00985070      -0.00698455      -0.23322081
Ni       6.35742703       6.44006523       6.36079779        8       1.00000000       0.00545607       0.05127912      -0.28177618
Pt       8.93903133       6.36858906       6.41239373        8       0.00000000       0.03411226       0.02403307       0.07740330
Ni      11.52735754       6.42424311       6.37876198        8       1.00000000      -0.02837286       0.06309782      -0.11901265
