64
Lattice="10.15013288714948 0.015670727612745853 -0.004239318952211269 5.088637691783166 8.814995434482583 -0.003923284373436447 -0.003461389429942515 -0.0017004738608260362 8.712664455695009" Properties=species:S:1:pos:R:3:tags:I:1:initial_magmoms:R:1:forces:R:3 unique_id=fcc6b023e45542c5a628d47ee73bd541 stress="-6.450062229891584e-05 -2.0988005587731554e-06 6.592726845564511e-06 -2.0988005587731554e-06 -6.343878179172063e-05 -2.4606136788988515e-06 6.592726845564511e-06 -2.4606136788988515e-06 -2.224340848887285e-05" energy=-392.47656090560616 pbc="T T T"
Ni       0.04251578      -0.00637166       0.08824699        4       1.00000000       0.11002618       0.00663122       0.13262106
Ni       2.49533427       0.00572246       0.15409565        4       1.00000000      -0.03028327       0.10271641       0.11115710
Pt       5.09202962      -0.04153618       0.19848435        4       0.00000000      -0.03980017      -0.09815808       0.35282561
Ni       7.61004774       0.00477014       0.15620627        4       1.00000000      -0.00598699      -0.00912168       0.18372374
Ni       1.26547322       2.21823445       0.11210823        4       1.00000000      -0.03164555       0.10445966       0.24435962
Pt       3.77752091       2.26513030       0.18921083        4       0.00000000      -0.05928067       0.09315026       0.25458292
Ni       6.35029825       2.24854808       0.11311552        4       1.00000000       0.00564271       0.08457286       0.25321749
Pt       8.88771729       2.27282876       0.14750948        4       0.00000000       0.00374654       0.06295387       0.29262015
Ni       2.49682979       4.41411176       0.10717381        4       1.00000000      -0.14003275       0.01291097       0.19608040
Ni       5.12513309       4.41551088       0.10345028        4       1.00000000       0.11029604       0.00960303       0.14215279
Ni       7.59678835       4.44778129       0.10644414        4       1.00000000      -0.01128076       0.10590909       0.21849369
Ni      10.17732721       4.44930648       0.11351075        4       1.00000000       0.04443162       0.07519527       0.17868323
Pt       3.82740374       6.59292123       0.09375279        4       0.00000000       0.02304121      -0.01167415      -0.15666033
Ni       6.36814440       6.59836085       0.07678795        4       1.00000000       0.04110897      -0.02899608       0.04057080
Ni       8.89372553       6.56519974       0.17979591        4       1.00000000       0.11487717      -0.15562633       0.35602864
Ni      11.41267552       6.57856814       0.19927212        4       1.00000000      -0.03809089      -0.08455670       0.37771259
Ni       1.29171287       0.77070798       2.17061944        3       1.00000000       0.00835610       0.12057490      -0.05382452
Ni       3.77324558       0.74782460       2.22070491        3       1.00000000      -0.15134448       0.01120874      -0.09090843
Ni       6.35265720       0.74656750       2.20649933        3       1.00000000       0.04662754      -0.02471272      -0.07787503
Pt       8.86699634       0.68987774       2.21794003        3       0.00000000       0.04708370       0.00958913      -0.13989342
Ni       2.50620567       2.96648168       2.24339717        3       1.00000000      -0.04272282       0.08671197       0.14384398
Ni       5.09248865       2.98376445       2.18156784        3       1.00000000      -0.02121257       0.13195449      -0.10282958
Ni       7.59281401       2.98606288       2.20150809        3       1.00000000       0.05077482       0.03367608       0.06361580
Ni      10.19448355       3.00596497       2.20256398        3       1.00000000       0.02869666       0.07307220       0.03622730
Ni       3.82033575       5.11189047       2.18597975        3       1.00000000       0.05374352      -0.11677049      -0.11409620
Ni       6.32801587       5.12951958       2.14065850        3       1.00000000      -0.04203150       0.04249769      -0.05822772
Ni       8.92160658       5.11492926       2.17018388        3       1.00000000       0.04655682      -0.10252154       0.04674366
Ni      11.40967295       5.13603936       2.16896747        3       1.00000000      -0.04350985      -0.10710242       0.05820558
Ni       5.08522827       7.31467467       2.21838651        3       1.00000000      -0.03796242      -0.15834710       0.09346064
Pt       7.61406870       7.36693231       2.15752580        3       0.00000000      -0.03297221       0.05375958      -0.04368622
Ni      10.19279206       7.30845330       2.24559174        3       1.00000000       0.00259363      -0.09413145       0.21799503
Ni      12.66576036       7.33439228       2.19118351        3       1.00000000      -0.04170280      -0.07448202      -0.03425360
Pt       0.06780354       1.46813515       4.30170262        2       0.00000000      -0.00033348       0.09746027       0.09803683
Ni       2.53291285       1.48536135       4.27300269        2       1.00000000       0.09720327       0.02587178      -0.15810585
Pt       5.06113315       1.45093959       4.19625503        2       0.00000000      -0.05845511      -0.09135076       0.12040034
Ni       7.60970754       1.46412875       4.29883905        2       1.00000000       0.03761326      -0.01000839      -0.05101838
Ni       1.27660635       3.67704924       4.32675115        2       1.00000000       0.03390706       0.05076254      -0.08113661
Ni       3.78211113       3.69902003       4.27536305        2       1.00000000       0.00922873      -0.03829607      -0.22116860
Pt       6.33832641       3.68179587       4.31766581        2       0.00000000      -0.02010872      -0.01808619      -0.03267580
Ni       8.92951304       3.71563587       4.27781455        2       1.00000000       0.11440373       0.04156709      -0.23947984
Pt       2.56848036       5.85056968       4.24646890        2       0.00000000      -0.06927460       0.01917367      -0.01174549
Ni       5.07361467       5.90404159       4.32496724        2       1.00000000       0.02883798      -0.02355995      -0.23336978
Pt       7.61638288       5.89436477       4.29131435        2       0.00000000       0.11887662      -0.01847531       0.09767133
Ni      10.16825215       5.86304317       4.27796098        2       1.00000000       0.03788599      -0.03806175      -0.09527280
Ni       3.84491473       8.05064981       4.31835154        2       1.00000000       0.05803359      -0.09186091      -0.07780368
Ni       6.31937243       8.06621967       4.30991008        2       1.00000000      -0.05497098      -0.04099820      -0.12410871
Ni       8.88962450       8.08093169       4.28516883        2       1.00000000       0.00719183      -0.03523463      -0.02207201
Ni      11.44292749       8.06540220       4.25356661        2       1.00000000       0.03735844      -0.05270576      -0.09534783
Ni      -0.00324620      -0.03966070       6.44592041        1       1.00000000      -0.03101737      -0.07322748      -0.17381702
Pt       2.42810306       0.00960777       6.44408470        1       0.00000000      -0.12812848       0.00437374      -0.05256421
Pt       5.07706790       0.01875966       6.40057701        1       0.00000000       0.01320106       0.01560126      -0.28140938
Pt       7.68601949      -0.00150524       6.43539895        1       0.00000000       0.00571579      -0.02715781      -0.01035278
Ni       1.26014423       2.25016807       6.45455702        1       1.00000000      -0.00664260       0.12656021      -0.09708972
Pt       3.78369866       2.31842554       6.39206838        1       0.00000000       0.05528304       0.07795631      -0.26043693
Ni       6.34971532       2.25745719       6.46224729        1       1.00000000      -0.05813436       0.00873316      -0.08849195
Pt       8.89012762       2.30023459       6.38789684        1       0.00000000      -0.04114491       0.06386836      -0.34025457
Ni       2.54531721       4.40189363       6.44680029        1       1.00000000       0.05868179       0.03298568      -0.17529032
Ni       5.09163191       4.46291972       6.45565969        1       1.00000000      -0.05168667       0.10955631      -0.11318347
Ni       7.56648341       4.41166551       6.47378806        1       1.00000000      -0.21639777       0.04485065      -0.04414644
Ni      10.18492570       4.38717253       6.43656398        1       1.00000000       0.10966651       0.00046000      -0.20086093
Ni       3.88487024       6.57701774       6.36819633        1       1.00000000       0.05338247      -0.08982573      -0.28964487
Ni       6.28547907       6.58646469       6.44853119        1       1.00000000      -0.08430532      -0.01109023      -0.18352057
Pt       8.84975419       6.52584879       6.51125914        1       0.00000000      -0.12697811      -0.15911884       0.14600284
Pt      11.47314719       6.52823059       6.49125659        1       0.00000000       0.10336378      -0.05566974       0.16959042
