64
Lattice="10.330007402075191 0.017096325901864988 -0.011482474042534512 5.179809553579993 8.884793137272496 -0.04885616857841815 -0.009375400796320826 -0.04064914729927378 8.802035510881808" Properties=species:S:1:pos:R:3:tags:I:1:initial_magmoms:R:1:forces:R:3 unique_id=411b8b48fd144d08805a759bc90df717 stress="0.0002488967171122014 -1.0494209927017282e-06 1.1452563968153066e-05 -1.0494209927017282e-06 0.00025678402764917757 8.799697414836908e-06 1.1452563968153066e-05 8.799697414836908e-06 0.0002336912582118003" energy=-398.974120396403 pbc="T T T"
Ni      -0.00891504      -0.02552596       0.17362575        4       1.00000000      -0.03036979       0.00488824       0.28921459
Ni       2.59933893      -0.01778188       0.11381517        4       1.00000000       0.08672203      -0.00616027       0.25995950
Ni       5.16594324      -0.03090392       0.15701030        4       1.00000000      -0.00155678      -0.08756277       0.21972588
Ni       7.73728657      -0.04983788       0.16427784        4       1.00000000      -0.04011561      -0.14352120       0.30031688
Pt       1.29182550       2.22172562       0.17082353        4       0.00000000       0.02445294       0.01132301       0.22657811
Pt       3.86029114       2.17851474       0.17537635        4       0.00000000      -0.04949465      -0.02207276       0.19830862
Pt       6.47070564       2.17143311       0.09169782        4       0.00000000       0.02690193      -0.13834172      -0.06950031
Pt       9.04887322       2.27521765       0.10856200        4       0.00000000       0.00650529       0.09278765       0.10567995
Ni       2.56238293       4.48998255       0.03568758        4       1.00000000      -0.03482570       0.08010009       0.03245476
Pt       5.16377685       4.48244357       0.01668224        4       0.00000000      -0.04062152       0.06040059      -0.15570381
Ni       7.76543915       4.47379305       0.12864941        4       1.00000000      -0.06364130       0.06013943       0.29793468
Ni      10.34266659       4.50189520       0.03498553        4       1.00000000       0.00659034       0.14424899       0.05046664
Ni       3.84061168       6.69649121       0.04625340        4       1.00000000      -0.06858827       0.07788185       0.17175091
Pt       6.49756755       6.73368493       0.06772184        4       0.00000000       0.01337889       0.04319950      -0.09253383
Ni       9.06585307       6.67817045       0.10758683        4       1.00000000       0.01619029       0.00387998       0.21584821
Ni      11.64919659       6.67517689       0.02416481        4       1.00000000       0.05884033      -0.02811242       0.04651306
Ni       1.32118665       0.71352828       2.25376790        3       1.00000000       0.03564568      -0.01364804       0.12637439
Ni       3.82412596       0.73480597       2.21540828        3       1.00000000      -0.20052991      -0.03800745       0.00175024
Ni       6.46603806       0.74428619       2.21071491        3       1.00000000       0.11617374      -0.02882345       0.03327164
Pt       9.04516590       0.74170868       2.22405050        3       0.00000000       0.05066835       0.18139195      -0.11308194
Ni       2.58280198       2.91719445       2.28020690        3       1.00000000      -0.01064442      -0.09828693       0.20573186
Ni       5.17703507       2.94751474       2.21882687        3       1.00000000      -0.04722323       0.05829602      -0.07919450
Ni       7.73296744       2.95783295       2.22299965        3       1.00000000       0.06061436      -0.08839937      -0.04051697
Ni      10.34597553       2.95147198       2.26970701        3       1.00000000       0.04017327      -0.09315938       0.19510715
Pt       3.88673101       5.18139717       2.21182959        3       0.00000000      -0.01539656      -0.02046852      -0.08676773
Ni       6.47154001       5.19050223       2.18673555        3       1.00000000      -0.04011275       0.11320189      -0.03538663
Pt       8.98968569       5.15484265       2.20685465        3       0.00000000      -0.02989848       0.02229692       0.11828175
Pt      11.62777752       5.14487126       2.19470302        3       0.00000000       0.01937702      -0.08773745       0.02217357
Ni       5.20503570       7.40642374       2.16956674        3       1.00000000       0.06650177       0.00755266       0.06610482
Ni       7.72032692       7.43445901       2.18189786        3       1.00000000      -0.09406676       0.03556865       0.07340748
Pt      10.36577400       7.45554349       2.13756252        3       0.00000000       0.05666905      -0.02101343       0.10907299
Ni      12.92037808       7.41826202       2.14131439        3       1.00000000      -0.01038897      -0.05321085       0.02325902
Ni       0.03405622       1.48039960       4.31252214        2       1.00000000       0.13920101       0.02430033      -0.10945746
Ni       2.53970629       1.47604448       4.30250392        2       1.00000000      -0.07048280       0.08262326      -0.13717836
Pt       5.17638427       1.45550100       4.25442040        2       0.00000000      -0.08629722      -0.03760147       0.01395251
Ni       7.74552748       1.47307894       4.32916050        2       1.00000000      -0.00773636      -0.06458444      -0.11265423
Ni       1.29392721       3.69807031       4.33676366        2       1.00000000       0.01083932      -0.00229331      -0.07904178
Ni       3.81189379       3.70375798       4.33556163        2       1.00000000      -0.12731335      -0.00557771      -0.12196645
Pt       6.50584181       3.68184411       4.27843847        2       0.00000000       0.08490758      -0.00193226      -0.04526870
Ni       9.09232163       3.70620239       4.31462374        2       1.00000000       0.13856347      -0.01291916      -0.04364048
Ni       2.54694332       5.87583096       4.39390502        2       1.00000000      -0.07465409      -0.03181239       0.00235932
Pt       5.18842627       5.92030342       4.37754422        2       0.00000000       0.08782441       0.02724565      -0.07564806
Ni       7.75648554       5.91185431       4.31969625        2       1.00000000      -0.00645847      -0.01532194      -0.05871664
Ni      10.36760336       5.87893241       4.36967469        2       1.00000000       0.04210391      -0.01517410       0.02333571
Pt       3.85355755       8.11563796       4.28726013        2       0.00000000      -0.07755413      -0.01957380       0.09901201
Ni       6.47585019       8.15243168       4.29597041        2       1.00000000      -0.11237257       0.10764475      -0.18281617
Pt       8.97127641       8.11303704       4.27795776        2       0.00000000      -0.05926709      -0.05343829       0.10784871
Ni      11.63184257       8.09193398       4.30439771        2       1.00000000      -0.04256275      -0.14465822      -0.04009649
Pt       0.05951922      -0.10589709       6.54672159        1       0.00000000       0.06517682      -0.07032700       0.11681070
Ni       2.57296837      -0.03935411       6.51354765        1       1.00000000       0.04172189       0.06331992      -0.14541142
Pt       5.15537029      -0.03144272       6.56650328        1       0.00000000       0.00382477       0.06717890       0.06122410
Pt       7.72679554      -0.08354545       6.54943025        1       0.00000000       0.00969251      -0.15076379       0.18160186
Pt       1.30650051       2.25372676       6.40280624        1       0.00000000       0.06962940       0.10030027      -0.16586165
Pt       3.88546814       2.27363707       6.43731450        1       0.00000000       0.04242461       0.17671379      -0.20799496
Ni       6.44643790       2.21127005       6.44200526        1       1.00000000       0.01251655      -0.02244118      -0.29032456
Pt       9.02992975       2.22516953       6.37847574        1       0.00000000      -0.00760706      -0.01772589      -0.36690813
Ni       2.57541325       4.47761929       6.46670424        1       1.00000000      -0.02112458       0.13406545      -0.26170961
Ni       5.13778024       4.44475985       6.41543834        1       1.00000000      -0.08762464       0.09017444      -0.34798827
Pt       7.69808676       4.44214195       6.51911943        1       0.00000000      -0.11875935      -0.06788193       0.10663916
Ni      10.37670693       4.45981148       6.45943735        1       1.00000000       0.09215574       0.06015234      -0.26885621
Ni       3.85636091       6.57345664       6.49397310        1       1.00000000      -0.05393402      -0.13382066      -0.07445814
Ni       6.46241994       6.63313538       6.41762634        1       1.00000000       0.11713826       0.02488353      -0.18817279
Pt       9.05886221       6.61098244       6.50244613        1       0.00000000       0.06547045      -0.01511203       0.09337920
Ni      11.65418255       6.57948431       6.46028335        1       1.00000000       0.02262721      -0.10427446      -0.19859368
