64
Lattice="10.3766764589806 0.020990822558600297 0.014332352576150245 5.20651681507238 8.973624182380155 0.01808326987906775 0.0 0.0 21.622761080088768" Properties=species:S:1:pos:R:3:tags:I:1:initial_magmoms:R:1:forces:R:3 unique_id=31906cf7666747ebad4a2cf5f41e468d stress="0.0056224532920222175 0.00031764763964620265 0.00048344836518713903 0.00031764763964620265 0.0058686153558453295 3.256696982846332e-05 0.00048344836518713903 3.256696982846332e-05 -0.0015687963039414162" energy=-379.70254793182096 pbc="T T T"
Ni      -0.03637302       0.00250946       0.13795877        1       1.00000000      -0.13309438       0.03897892       0.10475550
Ni       2.61474156      -0.00989756       0.05515792        1       1.00000000       0.07252730       0.02579418       0.40557593
Ni       5.19571282      -0.00975671       0.10117493        1       1.00000000       0.07145522       0.07766465      -0.33591481
Ni       7.80607511      -0.02198339       0.06651191        1       1.00000000       0.04976146      -0.12315985       0.50720145
Pt       1.26868740       2.21407878       0.09878244        1       0.00000000       0.08892841      -0.12347399      -0.54614276
Pt       3.88369862       2.18922357       0.06880434        1       0.00000000       0.00746319       0.02676463      -0.01037273
Pt       6.55047568       2.15518298       0.06659524        1       0.00000000       0.04187483      -0.07201259       0.00864919
Ni       9.08811566       2.22368842       0.10969980        1       1.00000000      -0.00430411      -0.16507506       0.03540007
Ni       2.58786196       4.51458666       0.09183434        1       1.00000000       0.02208986      -0.06715342      -0.24287660
Pt       5.18027485       4.50731019       0.10361150        1       0.00000000       0.21739921      -0.04593796      -0.74969453
Pt       7.86849335       4.49227948       0.00000000        0       0.00000000      -0.09910036      -0.03971657      -0.12209589
Ni      10.40428065       4.53431502       0.02397717        0       1.00000000       0.08004085       0.02243075       0.18234031
Ni       3.86487026       6.77845458       0.13914222        1       1.00000000      -0.02528873       0.11759313       0.04423168
Pt       6.51264192       6.82978845       0.16529437        2       0.00000000      -0.04672086      -0.06742537      -0.41761635
Ni       9.12152496       6.76947670       0.03189911        0       1.00000000       0.00603676       0.03467987       0.25610709
Ni      11.70229873       6.76668125       0.03356583        0       1.00000000       0.14293870       0.11772972       0.28269245
Ni       1.31835160       0.72150554       2.18006468        4       1.00000000       0.05229232      -0.01379089       0.04410995
Ni       3.85805409       0.77540882       2.18691658        4       1.00000000      -0.16904522       0.08192936       0.14834507
Ni       6.52946767       0.77393296       2.19383344        4       1.00000000       0.15755959       0.04189382       0.18429754
Ni       9.05757449       0.74603319       2.16430629        4       1.00000000      -0.14261303      -0.07157961      -0.05385214
Ni       2.63685630       2.95297704       2.21334857        4       1.00000000       0.12193937      -0.14386444       0.28001322
Ni       5.20268662       2.97362675       2.21409194        4       1.00000000      -0.00187278      -0.01992790       0.14960226
Ni       7.77000091       2.95839753       2.20793416        4       1.00000000      -0.11178726      -0.13144521       0.08787326
Pt      10.31486235       2.92236287       2.24363012        4       0.00000000      -0.16355946      -0.06587184       0.01632675
Pt       3.90310757       5.25278463       2.22520241        4       0.00000000      -0.00381779      -0.02688036       0.05774783
Ni       6.50426899       5.24515123       2.21383311        4       1.00000000      -0.01482707      -0.00932967       0.16067203
Pt       9.02433498       5.26540766       2.24230840        4       0.00000000      -0.11278588       0.01006550       0.08689632
Pt      11.69843555       5.26889944       2.14092590        3       0.00000000      -0.16150187      -0.06855569       0.00865216
Ni       5.19241991       7.52999254       2.17604754        4       1.00000000      -0.08156398       0.12234412       0.09491892
Ni       7.78770527       7.53397782       2.20478239        4       1.00000000       0.01851171       0.18453409       0.10080308
Pt      10.39197435       7.56963986       2.11439347        3       0.00000000      -0.01494473       0.09289913       0.03380651
Ni      13.01025694       7.54636840       2.16822197        4       1.00000000      -0.00146160       0.16518408      -0.02448024
Ni      -0.01738447       1.51620819       4.35191374        6       1.00000000      -0.10173595       0.02858993      -0.15705999
Ni       2.61217666       1.51936319       4.33781975        5       1.00000000       0.03113056       0.05136160      -0.33151492
Pt       5.16792756       1.56228736       4.32424473        5       0.00000000       0.03298267       0.10438302      -0.25564784
Ni       7.81135475       1.53515484       4.35406333        6       1.00000000       0.05041323      -0.01624172      -0.32660397
Pt       1.34014023       3.70174857       4.31916474        5       0.00000000       0.05951961      -0.07687169      -0.04884545
Ni       3.88304984       3.72963391       4.35629632        6       1.00000000      -0.02000822      -0.00587733      -0.28317097
Pt       6.59944548       3.73382312       4.30492464        5       0.00000000       0.07677884       0.00961738      -0.22574112
Ni       9.08878582       3.73542676       4.39534125        6       1.00000000       0.12834300      -0.11199118      -0.16099850
Ni       2.61028683       5.97640082       4.37579918        6       1.00000000       0.03339709      -0.00084059      -0.14458876
Pt       5.21134314       5.98527402       4.32534514        5       0.00000000       0.03395357       0.05207915      -0.02427301
Ni       7.81085557       5.97263038       4.38135445        6       1.00000000      -0.02989882       0.03329364      -0.16624844
Pt      10.36727814       5.96269633       4.48391740        7       0.00000000       0.05065105      -0.01219338       0.07046798
Pt       3.90591328       8.29853368       4.28472494        5       0.00000000      -0.04152826       0.10318254      -0.12836662
Pt       6.51250639       8.31043552       4.28493927        5       0.00000000      -0.02275732       0.23787944      -0.09721965
Pt       9.06254079       8.24921354       4.38135460        6       0.00000000      -0.08408185       0.00227072      -0.11561330
Pt      11.73208295       8.25366076       4.38456401        6       0.00000000       0.04126157       0.02307065      -0.12807462
Pt      -0.00397003       0.01582618       6.59138174        9       0.00000000       0.02061205       0.11130859       0.16455241
Ni       2.63246112       0.00920512       6.55887850        9       1.00000000       0.03773423      -0.01659260      -0.12416410
Pt       5.19530302       0.00736291       6.62276108        9       0.00000000      -0.00879047       0.06267502       0.20794522
Ni       7.76254117       0.03955954       6.57064401        9       1.00000000      -0.08509542       0.10306682      -0.19062338
Pt       1.34913556       2.21197268       6.48214390        8       0.00000000      -0.08473753      -0.10381828       0.60084641
Ni       3.90241477       2.23397602       6.47829448        8       1.00000000      -0.07689197      -0.03872670       0.04265047
Ni       6.50479885       2.23445133       6.48868562        8       1.00000000       0.01305854      -0.13914908      -0.01029817
Pt       9.01739686       2.31570850       6.53382511        8       0.00000000       0.08097778      -0.03695016      -0.11540531
Pt       2.56164936       4.51024966       6.56778569        9       0.00000000       0.08717576      -0.03753830       0.16962962
Pt       5.23511429       4.40573966       6.49868215        8       0.00000000      -0.07133365       0.02954259       0.67767648
Ni       7.84137875       4.50858495       6.46330110        8       1.00000000       0.06999705       0.12572719       0.04982166
Ni      10.35767091       4.53501500       6.57547483        9       1.00000000      -0.08515919      -0.12451324      -0.12430759
Pt       3.83117835       6.77366781       6.60291168        9       0.00000000       0.08365255      -0.14635003       0.12289644
Pt       6.61708625       6.72924118       6.51885847        8       0.00000000      -0.01809192      -0.12382735       0.45972076
Ni       9.12505415       6.72032160       6.58176164        9       1.00000000      -0.00062608      -0.02516089      -0.08524471
Ni      11.66230701       6.74650520       6.58822227        9       1.00000000      -0.06343217       0.03330869      -0.10016959
