64
Lattice="10.318904866450277 -0.01253226071076687 -0.008721534681877816 5.148599177082767 8.892611244201404 -0.010498200938682851 0.0 0.0 21.574447913108795" Properties=species:S:1:pos:R:3:tags:I:1:initial_magmoms:R:1:forces:R:3 unique_id=ec1625ead73d407f97f91aee861b9a99 energy=-375.43860961697817 stress="0.005358959369144586 1.4105596321311437e-05 6.661354948287799e-05 1.4105596321311437e-05 0.005327566273804027 0.00011788193190511704 6.661354948287799e-05 0.00011788193190511704 -0.002070573858108377" pbc="T T T"
Ni      -0.01844468       0.02353860       0.16003268        2       1.00000000      -0.02388376       0.02540596      -0.02128919
Ni       2.57784212       0.00117809       0.16108125        2       1.00000000      -0.02560841       0.01615995      -0.10794612
Ni       5.15601479      -0.02642580       0.11601133        1       1.00000000      -0.02458701       0.19021382      -0.38938612
Ni       7.76379611      -0.05365957       0.06164355        1       1.00000000       0.01440312      -0.05509325       0.39747263
Ni       1.27167677       2.21409605       0.03513579        0       1.00000000      -0.00688206      -0.10143596       0.23089912
Pt       3.79209965       2.22676323       0.06298635        1       0.00000000       0.03122403      -0.03564411      -0.02948910
Pt       6.44328464       2.14156995       0.09711307        1       0.00000000      -0.12285517      -0.10759240      -0.74218032
Ni       9.05511200       2.17318014       0.08399694        1       1.00000000      -0.03337483      -0.13234028      -0.14303761
Ni       2.57516008       4.46466312       0.02756431        0       1.00000000       0.07370922       0.04986909       0.25598169
Ni       5.11982808       4.45836323       0.14131898        1       1.00000000      -0.00704001       0.00454028      -0.03009093
Pt       7.80443179       4.46870793       0.01226483        0       0.00000000      -0.03483097       0.05320483      -0.13223026
Ni      10.35118617       4.44731095       0.00000000        0       1.00000000       0.05235222       0.04393718       0.20251254
Ni       3.82910422       6.67526688       0.14813757        1       1.00000000      -0.05071294       0.01189821       0.02751300
Pt       6.41160264       6.72086770       0.14670957        1       0.00000000      -0.08853624       0.06308902      -0.57937741
Ni       9.04715469       6.68085358       0.01831094        0       1.00000000      -0.08273221      -0.01077535       0.14173141
Ni      11.62175576       6.66760434       0.00337541        0       1.00000000       0.12556970       0.04758096       0.23250865
Ni       1.29501590       0.72071453       2.12103286        3       1.00000000       0.06782480      -0.04420962      -0.02984431
Ni       3.85897238       0.75569841       2.15874909        4       1.00000000       0.05448440       0.07184660       0.20051123
Ni       6.45270391       0.71073918       2.18721717        4       1.00000000       0.04111974       0.00782174       0.19156311
Ni       9.02440774       0.68772708       2.12744103        3       1.00000000      -0.03026706      -0.06379975       0.00729584
Ni       2.60559754       2.96169456       2.16638022        4       1.00000000       0.10832606       0.06505959       0.12709549
Ni       5.10442394       2.96426953       2.18899626        4       1.00000000      -0.10188469      -0.01603144       0.24669746
Pt       7.74882126       2.92576864       2.21352183        4       0.00000000       0.03423690      -0.04492496       0.04125461
Pt      10.35190387       2.89343591       2.13127991        3       0.00000000       0.18345573       0.01493307       0.02318785
Ni       3.87532685       5.17695489       2.12778018        3       1.00000000       0.04749027      -0.07577250      -0.05359074
Ni       6.43109832       5.18886844       2.16410836        4       1.00000000       0.05902471      -0.07781382       0.13500335
Ni       9.00711463       5.20372998       2.19549857        4       1.00000000      -0.02940730      -0.02325581       0.20634953
Pt      11.66695638       5.19188846       2.11365539        3       0.00000000       0.09075881      -0.02417160       0.00551897
Ni       5.11011742       7.42505881       2.13488103        3       1.00000000      -0.12172974       0.02362541       0.00975536
Ni       7.72946911       7.40638449       2.15450319        4       1.00000000       0.04515014      -0.06857943       0.10190056
Pt      10.28831818       7.41438054       2.07277869        3       0.00000000       0.00693008      -0.05971019      -0.00996768
Ni      12.92136922       7.41736602       2.10887094        3       1.00000000       0.00264871       0.06449066      -0.01000970
Ni      -0.02223474       1.51696532       4.31820464        6       1.00000000       0.01713397       0.06082668      -0.18434502
Pt       2.61040320       1.54273872       4.27355364        6       0.00000000      -0.01875333      -0.01390074      -0.13542705
Ni       5.15131033       1.48803139       4.28625065        6       1.00000000       0.02160528       0.01499506      -0.37914815
Ni       7.75656236       1.47554852       4.30748904        6       1.00000000       0.03387980       0.02439796      -0.20928605
Pt       1.25795024       3.76071665       4.40942660        7       0.00000000      -0.04827342       0.00882503       0.01358501
Ni       3.85328044       3.69845623       4.30349160        6       1.00000000       0.01265476       0.03107662      -0.26948949
Pt       6.45370671       3.69119662       4.28115129        6       0.00000000      -0.07467947       0.03340891      -0.00241316
Ni       9.03349062       3.72851510       4.33565794        6       1.00000000       0.01054419       0.07320615      -0.20748035
Ni       2.54592990       5.90690368       4.33225691        6       1.00000000      -0.00611599       0.03986702      -0.11538645
Pt       5.09256402       5.88539701       4.20802632        5       0.00000000      -0.13843647       0.07571586      -0.17188882
Ni       7.79011375       5.87346290       4.29599957        6       1.00000000       0.05416579      -0.06995100      -0.28279916
Ni      10.28546567       5.88859624       4.36134265        7       1.00000000      -0.03528149       0.04659548      -0.10590575
Pt       3.83293562       8.20503928       4.23777144        5       0.00000000       0.01390460       0.10946146      -0.06060610
Pt       6.43184206       8.16155956       4.20210670        5       0.00000000      -0.04778177       0.02606498      -0.17652217
Pt       9.01944851       8.08694875       4.28446153        6       0.00000000      -0.06327902      -0.03874612      -0.03286878
Pt      11.61363185       8.13000507       4.30018565        6       0.00000000       0.00977960      -0.00052105      -0.01260747
Pt      -0.02616088       0.03619936       6.55190359       10       0.00000000       0.09543136       0.01214436       0.18545536
Pt       2.59474845       0.04913300       6.57444791       10       0.00000000       0.03243333      -0.02709654       0.33857955
Pt       5.18716933      -0.08154608       6.55418799       10       0.00000000      -0.07419156      -0.00088564       0.40096371
Ni       7.72657780      -0.01595199       6.49753700        9       1.00000000       0.03756894       0.06515919      -0.08147093
Ni       1.29764066       2.27647207       6.50124330        9       1.00000000       0.01653084      -0.01603726      -0.11262901
Ni       3.82979875       2.24099650       6.42057924        8       1.00000000       0.05346361      -0.06366193       0.13742984
Pt       6.45423302       2.17455314       6.41319465        8       0.00000000      -0.02759750      -0.07075319       0.83679314
Pt       9.06507644       2.29870380       6.46608607        9       0.00000000       0.05739266       0.13093083       0.01135141
Ni       2.51400908       4.42338435       6.49411114        9       1.00000000      -0.00450479       0.05846540      -0.10999606
Pt       5.07315916       4.39161171       6.52783789        9       0.00000000      -0.10357486      -0.01092224       0.22820227
Ni       7.78368831       4.45395827       6.38813861        8       1.00000000       0.06625570       0.05977159       0.12864805
Ni      10.31296245       4.48181819       6.47625775        9       1.00000000      -0.04842476       0.12095499      -0.20505770
Pt       3.72916840       6.65474113       6.53807818        9       0.00000000       0.04944590      -0.13348457       0.03556594
Pt       6.50573913       6.61006801       6.43861001        8       0.00000000      -0.04414325      -0.05883499       0.47942247
Ni       9.05890569       6.59075798       6.47248295        9       1.00000000       0.00221314      -0.08579524      -0.21978251
Ni      11.55724950       6.59992793       6.47923810        9       1.00000000      -0.10374202      -0.21380296      -0.22719946
