64
Lattice="10.282352161709195 0.02582340721920804 -0.04454554545103178 5.163539807518704 8.795291801954091 -0.11147900567661123 0.0 0.0 21.53531017178846" Properties=species:S:1:pos:R:3:tags:I:1:initial_magmoms:R:1:forces:R:3 unique_id=22f7eee01956487da99855dc964b5a2b energy=-372.3086625059284 stress="0.0057726969560262945 5.896452930867028e-05 -0.0001588917765767959 5.896452930867028e-05 0.0043479917040258 -0.00019699784472951908 -0.0001588917765767959 -0.00019699784472951908 -0.0012431615924703623" pbc="T T T"
Ni       0.01390840      -0.07145946       0.21300091        2       1.00000000       0.08801016      -0.04698063      -0.13794036
Ni       2.53225887      -0.05332547       0.21825083        2       1.00000000      -0.00681696      -0.04349595      -0.09200074
Pt       5.13961076      -0.06893691       0.15731750        2       0.00000000      -0.06447694      -0.02402140      -0.96550324
Ni       7.72661867      -0.04883803       0.17102955        2       1.00000000      -0.06323552      -0.08345057      -0.22354127
Pt       1.27877083       2.20120573       0.11331430        1       0.00000000      -0.04409096      -0.04440735       0.06943776
Pt       3.82649679       2.22104495       0.18585341        2       0.00000000       0.00666772      -0.01388646      -0.57127553
Pt       6.45130741       2.22186742       0.08446279        1       0.00000000      -0.06380208      -0.00298072      -0.27597707
Pt       9.01167657       2.25674235       0.10176282        1       0.00000000       0.08223036       0.10263629      -0.59980569
Ni       2.54746997       4.45569234       0.07565461        1       1.00000000      -0.01532921       0.07481878       0.39075613
Pt       5.14100336       4.52457755       0.05974257        1       0.00000000      -0.04911836       0.16572983       0.09115592
Ni       7.72586233       4.46325531       0.02660833        0       1.00000000      -0.05296712       0.09658577       0.12816708
Ni      10.31026947       4.46717016       0.02029992        0       1.00000000       0.06540951       0.06870185       0.28333650
Ni       3.84154385       6.62578348       0.05152266        1       1.00000000      -0.01453877       0.08621433       0.37443797
Ni       6.45512121       6.63617281       0.04709222        0       1.00000000       0.00674448       0.08348202       0.36504669
Ni       8.97824742       6.56786585       0.08253793        1       1.00000000      -0.09588367       0.04466578      -0.15133508
Ni      11.62296672       6.55861768       0.00000000        0       1.00000000       0.07425712      -0.00930440       0.27107679
Ni       1.30301418       0.70177386       2.25346302        5       1.00000000       0.02842153       0.02377894       0.30720640
Ni       3.78535656       0.73001385       2.22537234        4       1.00000000      -0.25709101      -0.01826054       0.09768926
Ni       6.44666408       0.73917741       2.22298371        4       1.00000000       0.10908674      -0.01400821       0.16413508
Pt       9.00870283       0.71818352       2.21748897        4       0.00000000       0.12703576       0.07475024      -0.04645954
Ni       2.54976357       2.94579217       2.27559639        5       1.00000000      -0.00201047       0.06571754       0.27807978
Ni       5.12896714       2.96098159       2.21233815        4       1.00000000      -0.09211035       0.20524808       0.12079478
Ni       7.68824683       2.93376852       2.21970041        4       1.00000000      -0.06268156      -0.07877732       0.19318609
Ni      10.33273676       2.94297484       2.23312524        4       1.00000000       0.18299449      -0.04402203       0.34719180
Ni       3.83455142       5.12180077       2.19849057        4       1.00000000      -0.04473203      -0.01763570       0.22406931
Ni       6.41327340       5.15277976       2.16716701        4       1.00000000      -0.05069244       0.09927873       0.12980867
Pt       8.97428532       5.07321962       2.15832230        4       0.00000000      -0.03999246      -0.13090355       0.06272720
Ni      11.62365716       5.09295449       2.13798200        3       1.00000000       0.14181759      -0.24198773       0.18853676
Ni       5.18065879       7.26421017       2.11479067        3       1.00000000       0.01128296      -0.16575045       0.04619630
Ni       7.65013757       7.32191159       2.09602539        3       1.00000000      -0.15912417      -0.06974942       0.08540942
Pt      10.36956591       7.26719106       2.15883895        4       0.00000000       0.18696024      -0.13284940      -0.05260165
Ni      12.88090204       7.27332302       2.07584140        3       1.00000000       0.13056893      -0.21523707       0.03228558
Ni       0.03867140       1.45518610       4.33239014        7       1.00000000       0.15017371       0.00079441      -0.19460433
Ni       2.49250345       1.47050018       4.29389641        7       1.00000000      -0.07982451       0.06785120      -0.26763280
Pt       5.13995990       1.45795310       4.22512089        6       0.00000000      -0.10423651      -0.03714041      -0.14273381
Ni       7.70369585       1.44974228       4.29889939        7       1.00000000       0.02034063      -0.05515879      -0.24176472
Ni       1.28378881       3.63027629       4.33166413        7       1.00000000       0.06044151       0.02597381      -0.13774866
Ni       3.79592469       3.69727185       4.27442877        7       1.00000000      -0.10919953       0.14717090      -0.29255843
Pt       6.44754706       3.70557414       4.29465523        7       0.00000000       0.01837210      -0.00495167      -0.06261856
Ni       9.03314531       3.66954161       4.27070182        7       1.00000000       0.14960548       0.04134853      -0.15307283
Ni       2.55267336       5.77112616       4.31053742        7       1.00000000      -0.05799473      -0.13988596      -0.19347129
Ni       5.13333710       5.82034816       4.29305725        7       1.00000000       0.00832546      -0.01652290      -0.19961006
Ni       7.67556848       5.82976873       4.27806188        7       1.00000000      -0.11255582       0.09126227      -0.15275934
Ni      10.33247696       5.78227211       4.29335466        7       1.00000000       0.15741960      -0.08107339      -0.04090850
Pt       3.86450399       7.93588621       4.22294973        6       0.00000000       0.01135359      -0.11632204       0.05780395
Ni       6.41081702       8.00340289       4.20854437        6       1.00000000      -0.12830211      -0.02815459      -0.31019845
Pt       8.91982578       7.98951804       4.17298927        6       0.00000000      -0.14761321       0.05180751      -0.07248489
Ni      11.59978007       7.98395785       4.21940726        6       1.00000000       0.08363649      -0.13039561      -0.08991932
Pt      -0.01415490      -0.10176994       6.53531017       10       0.00000000       0.02906280       0.12607325       0.20657944
Pt       2.52152641      -0.04681514       6.51917018       10       0.00000000      -0.00002657       0.14761817       0.28186051
Pt       5.14027702      -0.06233606       6.42590325        9       0.00000000       0.04720982       0.00272096       0.99647149
Pt       7.68793800      -0.08409376       6.49680771       10       0.00000000      -0.06249647       0.12765208       0.30961234
Ni       1.25984448       2.20338687       6.37635194        9       1.00000000       0.03121541       0.09820501      -0.02017318
Pt       3.80723036       2.27785805       6.39027901        9       0.00000000      -0.09052782       0.16017581       0.49656788
Ni       6.41525160       2.20452984       6.38455275        9       1.00000000       0.01137278       0.03958696       0.19266843
Pt       8.99132798       2.25904249       6.32485052        8       0.00000000       0.01579599      -0.08220580       0.57876109
Ni       2.52756666       4.39593882       6.41588011        9       1.00000000       0.01647779       0.01958849      -0.43605541
Ni       5.13237310       4.40472239       6.35710521        9       1.00000000      -0.11556892       0.09467280       0.03063642
Ni       7.65792717       4.36079044       6.42674888        9       1.00000000      -0.08916875      -0.03392508      -0.08874639
Ni      10.33438620       4.35999533       6.38760530        9       1.00000000       0.16908185      -0.05097846      -0.32198587
Ni       3.84606499       6.46077909       6.41837511        9       1.00000000       0.00298434      -0.16687437      -0.33244906
Ni       6.39523302       6.48330833       6.39652438        9       1.00000000      -0.03402206      -0.03452091      -0.34229796
Pt       8.98917062       6.41859504       6.42044496        9       0.00000000       0.06863904      -0.08101820       0.11671870
Ni      11.59285752       6.48567610       6.37124896        9       1.00000000       0.01723518       0.02272672      -0.30817748
