64
Lattice="10.3703937556366 -0.016484891626596884 0.04788657609702973 5.170920542891034 8.864808111119284 0.002010211444990277 0.0 0.0 21.608913726779946" Properties=species:S:1:pos:R:3:tags:I:1:initial_magmoms:R:1:forces:R:3 unique_id=9a8e3d40a77945319e266a1a498ae9be stress="0.005883984574550041 -0.00016626729133670663 0.00038141694432276553 -0.00016626729133670663 0.005562799890797129 3.38975987073221e-05 0.00038141694432276553 3.38975987073221e-05 -0.0019242328562429738" energy=-376.97617962998135 pbc="T T T"
Ni       0.01327064      -0.00432210       0.12901309        1       1.00000000       0.08176400       0.02501406      -0.11242458
Ni       2.59695364       0.00479382       0.16099927        2       1.00000000      -0.02703388       0.05694345      -0.02135492
Ni       5.18367301      -0.02103819       0.11924460        1       1.00000000      -0.04797722       0.17248503      -0.36470896
Ni       7.77735669      -0.06763065       0.16503549        2       1.00000000      -0.07347596      -0.08337802      -0.14926123
Ni       1.30545759       2.22062856       0.12140919        1       1.00000000       0.03074603       0.00780244       0.17594273
Pt       3.82217729       2.21796915       0.07011728        1       0.00000000      -0.03546774      -0.01452253       0.14616049
Pt       6.46077700       2.15784619       0.07963090        1       0.00000000       0.07206820      -0.09811046      -0.06414960
Pt       9.15696113       2.20608606       0.10374624        1       0.00000000       0.00047418       0.09510963      -0.51637423
Ni       2.57716491       4.45501844       0.00000000        0       1.00000000      -0.01887252      -0.02179455       0.17709195
Ni       5.16442216       4.44036976       0.11133364        1       1.00000000       0.09032327      -0.05210730      -0.32481099
Pt       7.78178444       4.46248260       0.00998209        0       0.00000000      -0.06397573      -0.04206935      -0.26682295
Ni      10.41484741       4.44759115       0.04457521        0       1.00000000       0.07614781      -0.01976438       0.12537418
Ni       3.84674665       6.66416480       0.03597282        0       1.00000000      -0.03361331       0.10017302       0.33922671
Pt       6.44481137       6.70670044       0.15477760        2       0.00000000      -0.00580031       0.04624918      -0.58470698
Ni       9.09346116       6.66858267       0.04180610        0       1.00000000      -0.08940691       0.06280721       0.11279387
Ni      11.68028947       6.63804507       0.04134321        0       1.00000000       0.13274102       0.03970862       0.23285815
Ni       1.33358053       0.76365948       2.14628084        3       1.00000000       0.06352197       0.13696199       0.08450073
Ni       3.87036593       0.77127543       2.19057195        4       1.00000000      -0.05094245       0.17277796       0.26710638
Ni       6.48383679       0.75817347       2.20856370        4       1.00000000      -0.03427311       0.17687070       0.23083332
Pt       9.09042075       0.72183479       2.23426087        4       0.00000000       0.02466698       0.16160069       0.05728002
Ni       2.58654979       2.89724256       2.21257966        4       1.00000000       0.02124111      -0.13208671       0.33558822
Ni       5.18277265       2.91191554       2.21541852        4       1.00000000      -0.08043508      -0.15995952       0.25205364
Ni       7.75904033       2.92007796       2.22915707        4       1.00000000      -0.01352171      -0.05337931       0.14461329
Ni      10.41823566       2.90758050       2.24630731        4       1.00000000       0.10449502      -0.10560517       0.26762148
Pt       3.91152338       5.14048749       2.12680431        3       0.00000000      -0.00000739      -0.13462620       0.01021220
Ni       6.47962333       5.14610938       2.19446749        4       1.00000000       0.04722821      -0.11903773       0.14155625
Pt       9.03091842       5.12314740       2.23408863        4       0.00000000      -0.06973027      -0.14338583       0.02145506
Pt      11.69139807       5.09623108       2.17483259        4       0.00000000       0.00077155      -0.10207753       0.06322686
Ni       5.18026479       7.39429882       2.16501048        4       1.00000000      -0.06945266       0.00762731       0.12696562
Ni       7.76716517       7.40847429       2.17206146        4       1.00000000       0.04892548       0.08232511       0.10674319
Pt      10.37077374       7.42625301       2.09842287        3       0.00000000       0.04233241      -0.03420388      -0.10994980
Ni      12.97107063       7.36490187       2.16585793        4       1.00000000       0.04838930      -0.05761406      -0.00447649
Ni       0.04090797       1.53666490       4.29439432        6       1.00000000       0.11675590       0.15182636      -0.26441860
Ni       2.62490773       1.53691004       4.30126476        6       1.00000000       0.02461586       0.08811043      -0.29926706
Ni       5.17462046       1.50112239       4.33546536        6       1.00000000      -0.13523578       0.05578324      -0.26012410
Ni       7.79300560       1.47884772       4.34010179        6       1.00000000       0.01942663      -0.09253542      -0.27212316
Ni       1.33932062       3.65734185       4.31436002        6       1.00000000       0.10446499      -0.11360575      -0.27342122
Ni       3.85166944       3.63259879       4.33916623        6       1.00000000      -0.09065600      -0.11065318      -0.21277350
Pt       6.53093387       3.61164490       4.30477940        6       0.00000000      -0.03189166      -0.02564130      -0.18468445
Ni       9.09697323       3.65173242       4.33609755        6       1.00000000       0.06311584      -0.17746843      -0.31616012
Ni       2.59150175       5.84580484       4.37955394        7       1.00000000      -0.00057811      -0.18936246      -0.01172717
Pt       5.16823789       5.84460384       4.30427723        6       0.00000000      -0.03206968      -0.11641663      -0.05842468
Ni       7.80436849       5.86121425       4.35519979        7       1.00000000      -0.04699359      -0.00374442      -0.18758407
Pt      10.39023437       5.79940540       4.46572044        8       0.00000000       0.04554577      -0.02868497       0.05109286
Pt       3.88259768       8.11530001       4.30252904        6       0.00000000      -0.01228939       0.00183607       0.06691969
Pt       6.49840308       8.18249770       4.22308474        5       0.00000000      -0.04581408       0.25620919      -0.12379131
Pt       9.06813182       8.14716722       4.29719642        6       0.00000000      -0.11281378       0.09306684      -0.08793260
Pt      11.68090904       8.13296262       4.30871484        6       0.00000000       0.02916053       0.05363434      -0.11285392
Pt       0.01379449      -0.02693960       6.55407854       11       0.00000000       0.07876845       0.22239141       0.37280306
Pt       2.64345109       0.00398887       6.57460842       11       0.00000000      -0.02247021       0.10803985       0.28278242
Pt       5.21170108      -0.01533974       6.57032018       11       0.00000000       0.01424754       0.13415719       0.33216746
Pt       7.77614749      -0.06762400       6.60891373       11       0.00000000      -0.05434239       0.14190610       0.38499005
Pt       1.36169506       2.31542101       6.47037283       10       0.00000000      -0.08122366       0.00373863      -0.12638724
Ni       3.91184568       2.21273816       6.41583787        9       1.00000000      -0.03315115      -0.10042221      -0.04426441
Ni       6.49574133       2.19685831       6.44464925        9       1.00000000      -0.01786845      -0.13604172       0.09460023
Pt       9.05826607       2.27788580       6.41322075        9       0.00000000       0.05765298      -0.06276644       0.50836969
Ni       2.59685821       4.46044144       6.47581975       10       1.00000000      -0.01454524       0.11375382      -0.35114289
Pt       5.13503657       4.33876433       6.54525349       10       0.00000000      -0.02142021      -0.05168434       0.10943076
Ni       7.82212126       4.41713011       6.42178887        9       1.00000000       0.00733678       0.08556078       0.07177395
Ni      10.39429645       4.44160967       6.54437823       10       1.00000000      -0.02108962      -0.06065816      -0.11188611
Ni       3.85506068       6.58807455       6.51009093       10       1.00000000      -0.04579039      -0.09192375      -0.17073502
Pt       6.54529197       6.56270016       6.47167683       10       0.00000000       0.05997173      -0.14924908       0.57778725
Ni       9.11720847       6.57507086       6.53592078       10       1.00000000      -0.04033179       0.00934953      -0.08946284
Ni      11.69067328       6.55715117       6.54918855       10       1.00000000       0.06766188       0.02076063      -0.19371658
