102
Lattice="13.791587736635215 -1.8112103385096306e-07 5.378664298030767e-07 6.895793711462199 11.943865620083509 -5.369412600478491e-07 0.0 0.0 37.15138878154366" Properties=species:S:1:pos:R:3:tags:I:1:initial_magmoms:R:1:forces:R:3 energy=-588.81640625 free_energy=-588.81640625 stress="0.009235838391012236 -8.850294817937055e-05 9.89085052191974e-05 -8.850294817937055e-05 0.00933804201961779 5.710697363126892e-05 9.89085052191974e-05 5.710697363126892e-05 0.0012478876892461769" pbc="T T T"
Pt       0.00000009       0.00000010       0.00000050        0       0.00000000      -0.00218466      -0.00126072       0.13070449
Pt       2.75831763       0.00000006       0.00000053        0       0.00000000      -0.00189636      -0.00122284       0.13181868
Pt       5.51663515      -0.00000014       0.00000071        0       0.00000000       0.00175989      -0.00158708       0.13930416
Pt       8.27495278      -0.00000004       0.00000082        0       0.00000000      -0.00531073       0.00190556       0.13200513
Pt      11.03327025      -0.00000010       0.00000087        0       0.00000000      -0.00264143      -0.00336020       0.13163239
Pt       1.37915882       2.38877325       0.00000031        0       0.00000000      -0.00200980      -0.00103040       0.13181892
Pt       4.13747636       2.38877307       0.00000042        0       0.00000000      -0.00119648      -0.00069182       0.13670337
Pt       6.89579384       2.38877307       0.00000072        0       0.00000000      -0.00141699       0.00744190       0.12034807
Pt       9.65411145       2.38877301       0.00000079        0       0.00000000      -0.00328411      -0.00353100       0.13501099
Pt      12.41242897       2.38877302       0.00000074        0       0.00000000      -0.00088522       0.00049175       0.13328463
Pt       2.75831757       4.77754637       0.00000030        0       0.00000000      -0.00049493       0.00231575       0.13930234
Pt       5.51663503       4.77754616       0.00000039        0       0.00000000       0.00573870      -0.00494525       0.12034851
Pt       8.27495256       4.77754613       0.00000040        0       0.00000000      -0.00334218      -0.00192735       0.12943530
Pt      11.03327011       4.77754616       0.00000064        0       0.00000000      -0.00374440      -0.00111159       0.12882462
Pt      13.79158766       4.77754604       0.00000062        0       0.00000000      -0.00586215      -0.00246441       0.12557670
Pt       4.13747629       7.16631935       0.00000003        0       0.00000000      -0.00100138      -0.00555457       0.13200241
Pt       6.89579371       7.16631933       0.00000023        0       0.00000000      -0.00470199      -0.00107437       0.13501206
Pt       9.65411137       7.16631934       0.00000033        0       0.00000000      -0.00283355      -0.00268832       0.12882182
Pt      12.41242886       7.16631934       0.00000052        0       0.00000000      -0.00466327      -0.00269053       0.13243696
Pt      15.17074637       7.16631925       0.00000049        0       0.00000000       0.00195273      -0.00181774       0.14455137
Pt       5.51663495       9.55509252       0.00000000        0       0.00000000      -0.00422276      -0.00061170       0.13163540
Pt       8.27495257       9.55509239       0.00000014        0       0.00000000      -0.00001975      -0.00101517       0.13328558
Pt      11.03327014       9.55509235       0.00000017        0       0.00000000      -0.00506548      -0.00384612       0.12557605
Pt      13.79158763       9.55509238       0.00000047        0       0.00000000      -0.00059802       0.00260125       0.14455113
Pt      16.54990513       9.55509229       0.00000038        0       0.00000000       0.00011350       0.00007428       0.11777776
Pt       1.37915871       0.79625751       2.38854620        1       0.00000000       0.01301683       0.00751466      -0.14013492
Pt       4.13747621       0.79625759       2.38854657        1       0.00000000       0.01738251       0.00750792      -0.15844908
Pt       6.89579369       0.79625747       2.38854643        1       0.00000000       0.00857240      -0.04343193      -0.10287356
Pt       9.65411133       0.79625730       2.38854679        1       0.00000000      -0.00255050       0.01023330      -0.15955977
Pt      12.41242891       0.79625740       2.38854668        1       0.00000000       0.01010090       0.00781118      -0.14756212
Pt       2.75831728       3.18503037       2.38854627        1       0.00000000       0.01519636       0.01129809      -0.15845022
Pt       5.51663489       3.18503067       2.38854644        1       0.00000000       0.00512000       0.00295469      -0.13332984
Pt       8.27495261       3.18503085       2.38854636        1       0.00000000       0.00301807      -0.00110486      -0.14070630
Pt      11.03327032       3.18503042       2.38854670        1       0.00000000       0.00972948       0.01031263      -0.15186499
Pt      13.79158776       3.18503064       2.38854676        1       0.00000000       0.00858163       0.00805769      -0.15378350
Pt       4.13747609       5.57380380       2.38854634        1       0.00000000      -0.03332151       0.02914263      -0.10286780
Pt       6.89579384       5.57380384       2.38854617        1       0.00000000       0.00054381       0.00315974      -0.14071605
Pt       9.65411142       5.57380378       2.38854628        1       0.00000000       0.01737557       0.01002596      -0.14025730
Pt      12.41242912       5.57380366       2.38854642        1       0.00000000       0.01578277       0.00826701      -0.16342233
Pt      15.17074656       5.57380372       2.38854658        1       0.00000000       0.03390829       0.05206161      -0.08042282
Pt       5.51663498       7.96257672       2.38854615        1       0.00000000       0.00760034      -0.00731686      -0.15954959
Pt       8.27495261       7.96257687       2.38854597        1       0.00000000       0.01378206       0.00327609      -0.15186170
Pt      11.03327016       7.96257699       2.38854653        1       0.00000000       0.01505581       0.00953416      -0.16343017
Pt      13.79158772       7.96257660       2.38854616        1       0.00000000       0.03443519       0.01988064      -0.04900937
Pt      16.54990518       7.96257671       2.38854636        1       0.00000000      -0.03265852      -0.04486327      -0.08492696
Pt       6.89579364      10.35134986       2.38854591        1       0.00000000       0.01182097       0.00483865      -0.14755166
Pt       9.65411124      10.35134989       2.38854587        1       0.00000000       0.01127194       0.00340787      -0.15378331
Pt      12.41242889      10.35134988       2.38854639        1       0.00000000       0.06204054       0.00333708      -0.08042825
Pt      15.17074648      10.35134982       2.38854620        1       0.00000000      -0.05518267      -0.00585393      -0.08493047
Pt      17.92906403      10.35134982       2.38854660        1       0.00000000       0.01818011       0.01049747      -0.19445504
Pt       0.01497013       1.59946437       4.73161935        2       0.00000000      -0.00260149       0.00034040       0.00033815
Pt       2.77505278       1.60217755       4.73160171        2       0.00000000      -0.00376876      -0.00217140       0.00037104
Pt       5.53403244       1.59575799       4.72903658        2       0.00000000      -0.00421258      -0.00279565      -0.00051488
Pt       8.28397827       1.59568463       4.72900284        2       0.00000000      -0.00326192       0.00037799      -0.00026464
Pt      11.04671404       1.60355989       4.72956395        2       0.00000000      -0.00168510       0.00077268      -0.00064451
Pt       1.39333211       3.98300132       4.72592709        2       0.00000000      -0.00328025       0.00059536       0.00194632
Pt       4.14898288       3.99473360       4.72903649        2       0.00000000      -0.00452554      -0.00224200      -0.00050908
Pt       6.90648214       3.98745844       4.73002849        2       0.00000000      -0.00377529      -0.00216161      -0.00013150
Pt       9.66454037       3.98797401       4.72801760        2       0.00000000      -0.00239572      -0.00101571       0.00146505
Pt      12.42728666       3.98749083       4.72846513        2       0.00000000      -0.00200670       0.00191099       0.00195786
Pt       2.75049889       6.39287245       4.77617239        2       0.00000000      -0.00087308       0.00080392       0.00281486
Pt       5.52389307       6.37629693       4.72900184        2       0.00000000      -0.00129553      -0.00303786      -0.00026397
Pt       8.28595230       6.37574876       4.72801359        2       0.00000000      -0.00203973      -0.00154873       0.00149596
Pt      11.05205506       6.38090773       4.73193617        2       0.00000000      -0.00330964      -0.00192330      -0.00605931
Pt      13.81526414       6.37679357       4.74681116        2       0.00000000      -0.00003060       0.00089896       0.00189127
Pt       4.15784799       8.76819948       4.71741211        2       0.00000000       0.00054734      -0.00026818       0.00103275
Pt       6.91208925       8.76496038       4.72957096        2       0.00000000      -0.00023026      -0.00187554      -0.00069594
Pt       9.66691518       8.76859872       4.72846352        2       0.00000000       0.00063703      -0.00266701       0.00197202
Pt      12.43009746       8.77597324       4.74681042        2       0.00000000       0.00075639      -0.00048159       0.00189875
Pt      15.17942595       8.76384639       4.76126017        2       0.00000000       0.00047437       0.00026702       0.00147675
Pt       5.53476632      11.15807603       4.73009561        2       0.00000000      -0.00029831      -0.00017585      -0.00087617
Pt       8.28845728      11.15710230       4.73161863        2       0.00000000      -0.00100756      -0.00244783       0.00034644
Pt      11.04184082      11.15902658       4.72592762        2       0.00000000      -0.00112884      -0.00313610       0.00194122
Pt      13.80743228      11.12943163       4.77617182        2       0.00000000       0.00026581      -0.00115260       0.00282688
Pt      16.56819946      11.16056493       4.71741370        2       0.00000000       0.00004040       0.00061873       0.00102063
Pt       0.03013139       0.01739645       7.09232502        3       0.00000000      -0.00065634      -0.00037773      -0.00050139
Pt       2.78426729       0.01668388       7.09051590        3       0.00000000      -0.00282275      -0.00366281       0.00080666
Pt       5.54016533       0.00924040       7.08142824        3       0.00000000      -0.00178113      -0.00501404       0.00052753
Pt       8.31016465       0.02241103       7.08881929        3       0.00000000      -0.00287860      -0.00161147      -0.00219643
Pt      11.06975168       0.02735515       7.08784368        3       0.00000000      -0.00046618      -0.00008748      -0.00175375
Pt       1.40658165       2.40290556       7.09051481        3       0.00000000      -0.00458232      -0.00061860       0.00080740
Pt       4.16392371       2.40404303       7.08622865        3       0.00000000      -0.00643929      -0.00371831       0.00122374
Pt       6.92036971       2.40202809       7.08755616        3       0.00000000      -0.00665390      -0.00315324      -0.00004429
Pt       9.67752460       2.40297977       7.08887432        3       0.00000000      -0.00383095      -0.00003359      -0.00049618
Pt      12.43875176       2.40159531       7.08969890        3       0.00000000      -0.00405963       0.00148242       0.00085744
Pt       2.77808492       4.79330437       7.08142825        3       0.00000000      -0.00523632       0.00096307       0.00052357
Pt       5.54040200       4.79220324       7.08755599        3       0.00000000      -0.00605825      -0.00418807      -0.00004941
Pt       8.29624870       4.78984283       7.08733593        3       0.00000000      -0.00589105      -0.00340636       0.00139827
Pt      11.04994823       4.77812865       7.08319763        3       0.00000000      -0.00637806      -0.00206663       0.00450453
Pt      13.81486117       4.78058972       7.08609604        3       0.00000000      -0.00295032       0.00035861       0.00488374
Pt       4.17449050       7.18560864       7.08881862        3       0.00000000      -0.00283233      -0.00168716      -0.00219223
Pt       6.91980303       7.17949157       7.08887499        3       0.00000000      -0.00194135      -0.00329543      -0.00049692
Pt       9.66295383       7.18047144       7.08319602        3       0.00000000      -0.00497476      -0.00448870       0.00450227
Pt      12.41103479       7.16551452       7.05320505        3       0.00000000      -0.01136401      -0.00655925      -0.00353195
Pt      15.19708111       7.18658824       7.21121905        3       0.00000000      -0.00808490       0.00464599       0.00767726
Pt       5.55856556       9.57300984       7.08784391        3       0.00000000      -0.00030570      -0.00035900      -0.00175318
Pt       8.29922119       9.57147779       7.08969992        3       0.00000000      -0.00074972      -0.00424639       0.00085625
Pt      11.04754270       9.57372656       7.08609644        3       0.00000000      -0.00116354      -0.00273684       0.00487906
Pt      13.82230858       9.56776484       7.21121921        3       0.00000000      -0.00001986      -0.00932311       0.00767306
Pt      16.62133300       9.59633132       7.04239195        3       0.00000000      -0.00109106      -0.00063473       0.00172898
O       14.48320876       8.36188501       8.89413242        0       0.00000000      -0.01982842      -0.01144932       0.01749735
H       13.64960934       7.88060615       9.17118646        0       0.00000000      -0.00894514      -0.00516450      -0.00960891
