102
Lattice="13.791587736635215 -1.8112103385096306e-07 5.378664298030767e-07 6.895793711462199 11.943865620083509 -5.369412600478491e-07 0.0 0.0 37.15138878154366" Properties=species:S:1:pos:R:3:tags:I:1:initial_magmoms:R:1:forces:R:3 energy=-588.8589477539062 free_energy=-588.8589477539062 stress="0.00936052410958405 1.0096852118292986e-05 0.00010608422308478122 1.0096852118292986e-05 0.009348882767923603 6.12452869982402e-05 0.00010608422308478122 6.12452869982402e-05 0.001308205906717832" pbc="T T T"
Pt       0.00000009       0.00000010       0.00000050        0       0.00000000      -0.00095113      -0.00054972       0.13236079
Pt       2.75831763       0.00000006       0.00000053        0       0.00000000      -0.00065873      -0.00137681       0.13180783
Pt       5.51663515      -0.00000014       0.00000071        0       0.00000000      -0.00175887       0.00464290       0.12331334
Pt       8.27495278      -0.00000004       0.00000082        0       0.00000000      -0.00229848      -0.00209969       0.13391584
Pt      11.03327025      -0.00000010       0.00000087        0       0.00000000      -0.00146107      -0.00052831       0.13197044
Pt       1.37915882       2.38877325       0.00000031        0       0.00000000      -0.00152280       0.00011788       0.13180840
Pt       4.13747636       2.38877307       0.00000042        0       0.00000000      -0.00134646      -0.00077889       0.13110635
Pt       6.89579384       2.38877307       0.00000072        0       0.00000000      -0.00312290      -0.00156182       0.13033882
Pt       9.65411145       2.38877301       0.00000079        0       0.00000000      -0.00104043       0.00089916       0.13470608
Pt      12.41242897       2.38877302       0.00000074        0       0.00000000      -0.00080680      -0.00087483       0.13124174
Pt       2.75831757       4.77754637       0.00000030        0       0.00000000       0.00314108      -0.00384609       0.12331128
Pt       5.51663503       4.77754616       0.00000039        0       0.00000000      -0.00291169      -0.00191851       0.13033479
Pt       8.27495256       4.77754613       0.00000040        0       0.00000000      -0.00451982      -0.00260741       0.12996015
Pt      11.03327011       4.77754616       0.00000064        0       0.00000000      -0.00399448      -0.00180057       0.13062215
Pt      13.79158766       4.77754604       0.00000062        0       0.00000000      -0.00018949       0.00012236       0.13491458
Pt       4.13747629       7.16631935       0.00000003        0       0.00000000      -0.00296362      -0.00094364       0.13391829
Pt       6.89579371       7.16631933       0.00000023        0       0.00000000       0.00025722      -0.00134725       0.13470733
Pt       9.65411137       7.16631934       0.00000033        0       0.00000000      -0.00355460      -0.00255935       0.13062134
Pt      12.41242886       7.16631934       0.00000052        0       0.00000000      -0.00075047      -0.00043211       0.14215222
Pt      15.17074637       7.16631925       0.00000049        0       0.00000000      -0.00073283      -0.00350641       0.13167337
Pt       5.51663495       9.55509252       0.00000000        0       0.00000000      -0.00118071      -0.00100330       0.13197032
Pt       8.27495257       9.55509239       0.00000014        0       0.00000000      -0.00116392      -0.00026370       0.13123935
Pt      11.03327014       9.55509235       0.00000017        0       0.00000000       0.00001015      -0.00022641       0.13491321
Pt      13.79158763       9.55509238       0.00000047        0       0.00000000      -0.00340256       0.00111969       0.13167256
Pt      16.54990513       9.55509229       0.00000038        0       0.00000000      -0.00136189      -0.00077866       0.13132575
Pt       1.37915871       0.79625751       2.38854620        1       0.00000000       0.00463165       0.00267086      -0.14314732
Pt       4.13747621       0.79625759       2.38854657        1       0.00000000       0.00946613      -0.00368055      -0.13643382
Pt       6.89579369       0.79625747       2.38854643        1       0.00000000       0.00581419       0.00166469      -0.13820645
Pt       9.65411133       0.79625730       2.38854679        1       0.00000000       0.00733507       0.00660976      -0.14347494
Pt      12.41242891       0.79625740       2.38854668        1       0.00000000       0.00606132       0.00663332      -0.13710603
Pt       2.75831728       3.18503037       2.38854627        1       0.00000000       0.00154469       0.01003731      -0.13644946
Pt       5.51663489       3.18503067       2.38854644        1       0.00000000       0.01122774       0.00646708      -0.13876925
Pt       8.27495261       3.18503085       2.38854636        1       0.00000000       0.01855900       0.01530333      -0.12630090
Pt      11.03327032       3.18503042       2.38854670        1       0.00000000       0.00267415       0.01378611      -0.13349119
Pt      13.79158776       3.18503064       2.38854676        1       0.00000000       0.00403834       0.00835357      -0.14686455
Pt       4.13747609       5.57380380       2.38854634        1       0.00000000       0.00436102       0.00421347      -0.13820754
Pt       6.89579384       5.57380384       2.38854617        1       0.00000000       0.02252534       0.00842684      -0.12628478
Pt       9.65411142       5.57380378       2.38854628        1       0.00000000       0.01735908       0.01002283      -0.11518769
Pt      12.41242912       5.57380366       2.38854642        1       0.00000000       0.01373866       0.03515345      -0.08588954
Pt      15.17074656       5.57380372       2.38854658        1       0.00000000      -0.01911647       0.01768009      -0.12752411
Pt       5.51663498       7.96257672       2.38854615        1       0.00000000       0.00939131       0.00304349      -0.14347157
Pt       8.27495261       7.96257687       2.38854597        1       0.00000000       0.01326899      -0.00457811      -0.13348877
Pt      11.03327016       7.96257699       2.38854653        1       0.00000000       0.03731304      -0.00567810      -0.08589172
Pt      13.79158772       7.96257660       2.38854616        1       0.00000000      -0.02754047      -0.01589706      -0.08493189
Pt      16.54990518       7.96257671       2.38854636        1       0.00000000       0.00710471       0.00027555      -0.15456569
Pt       6.89579364      10.35134986       2.38854591        1       0.00000000       0.00878089       0.00193402      -0.13710222
Pt       9.65411124      10.35134989       2.38854587        1       0.00000000       0.00925472      -0.00067552      -0.14686157
Pt      12.41242889      10.35134988       2.38854639        1       0.00000000       0.00575600      -0.02539214      -0.12752673
Pt      15.17074648      10.35134982       2.38854620        1       0.00000000       0.00378882       0.00601122      -0.15456666
Pt      17.92906403      10.35134982       2.38854660        1       0.00000000       0.00605421       0.00349365      -0.13617027
Pt       0.01013134       1.59737588       4.73172065        2       0.00000000      -0.00100491      -0.00055127       0.00009209
Pt       2.76868897       1.59850798       4.72948285        2       0.00000000      -0.00101327      -0.00063636       0.00018655
Pt       5.52656901       1.59900779       4.73064592        2       0.00000000      -0.00116133      -0.00071244       0.00015910
Pt       8.28438804       1.60085060       4.73054408        2       0.00000000      -0.00129869      -0.00103110       0.00003770
Pt      11.04187221       1.59657732       4.73216196        2       0.00000000      -0.00107855      -0.00100324      -0.00005743
Pt       1.38734652       3.98997333       4.72905038        2       0.00000000      -0.00111421      -0.00054199      -0.00002204
Pt       4.14807453       3.98664194       4.73063808        2       0.00000000      -0.00126990      -0.00062000       0.00022839
Pt       6.90777640       3.98820720       4.73148577        2       0.00000000      -0.00164920      -0.00094838       0.00002401
Pt       9.66948372       3.99211981       4.73901032        2       0.00000000      -0.00157160      -0.00123211      -0.00007303
Pt      12.42067052       3.98261060       4.73278835        2       0.00000000      -0.00125999      -0.00071608      -0.00002052
Pt       2.76721022       6.37465181       4.72850639        2       0.00000000      -0.00125154      -0.00064182       0.00009833
Pt       5.52856679       6.37406708       4.73054830        2       0.00000000      -0.00149509      -0.00063541       0.00000177
Pt       8.29201936       6.37796035       4.73901079        2       0.00000000      -0.00186447      -0.00074979      -0.00008148
Pt      11.05877502       6.38478622       4.75297380        2       0.00000000      -0.00180881      -0.00103957      -0.00268050
Pt      13.78975544       6.38691279       4.76216884        2       0.00000000      -0.00123404      -0.00025481       0.00102977
Pt       4.14960050       8.76390106       4.73193049        2       0.00000000      -0.00123631      -0.00058197       0.00009839
Pt       6.90361345       8.76425459       4.73216222        2       0.00000000      -0.00142196      -0.00044103      -0.00006451
Pt       9.65937678       8.76531143       4.73278786        2       0.00000000      -0.00124903      -0.00072810      -0.00002384
Pt      12.42610452       8.74882276       4.76216895        2       0.00000000      -0.00082013      -0.00095090       0.00102805
Pt      15.18866371       8.76917901       4.72599235        2       0.00000000      -0.00101823      -0.00058110       0.00070336
Pt       5.52624518      11.15315822       4.73238210        2       0.00000000      -0.00088024      -0.00051682       0.00014272
Pt       8.28422732      11.15395221       4.73172021        2       0.00000000      -0.00096901      -0.00058636       0.00009306
Pt      11.04488642      11.15035573       4.72905047        2       0.00000000      -0.00106897      -0.00068334      -0.00003079
Pt      13.80001068      11.15301553       4.72850610        2       0.00000000      -0.00117250      -0.00078145       0.00010240
Pt      16.56035361      11.15557344       4.73193080        2       0.00000000      -0.00112115      -0.00075984       0.00011349
Pt       0.01425411       0.00822947       7.09151842        3       0.00000000      -0.00189210      -0.00108907       0.00039247
Pt       2.76990872       0.01609579       7.08869665        3       0.00000000      -0.00197572      -0.00123845       0.00012344
Pt       5.53270187       0.01363049       7.08686303        3       0.00000000      -0.00190863      -0.00130774       0.00031045
Pt       8.29568844       0.01704509       7.08954220        3       0.00000000      -0.00186699      -0.00102094       0.00030050
Pt      11.05075018       0.00882331       7.09257977        3       0.00000000      -0.00184768      -0.00111826       0.00034103
Pt       1.39889383       2.39076362       7.08869617        3       0.00000000      -0.00206058      -0.00108766       0.00013539
Pt       4.15392405       2.39826893       7.08976758        3       0.00000000      -0.00194155      -0.00110640       0.00031084
Pt       6.90993638       2.39805890       7.09070515        3       0.00000000      -0.00212891      -0.00136842       0.00043586
Pt       9.66698188       2.39154186       7.09271730        3       0.00000000      -0.00216862      -0.00135260      -0.00004601
Pt      12.42766161       2.39321494       7.09032431        3       0.00000000      -0.00190624      -0.00143745      -0.00005263
Pt       2.77815426       4.78464727       7.08686456        3       0.00000000      -0.00206623      -0.00101875       0.00027528
Pt       5.53174846       4.78515134       7.09070572        3       0.00000000      -0.00225996      -0.00116114       0.00042915
Pt       8.28094451       4.78100641       7.09534252        3       0.00000000      -0.00291084      -0.00168416      -0.00031012
Pt      11.04032760       4.77907118       7.09818313        3       0.00000000      -0.00232797      -0.00077696      -0.00220343
Pt      13.81983721       4.76549937       7.07990682        3       0.00000000      -0.00155562      -0.00064507      -0.00002816
Pt       4.16260617       7.17575648       7.08954012        3       0.00000000      -0.00182409      -0.00111879       0.00032291
Pt       6.90462698       7.17608112       7.09271757        3       0.00000000      -0.00225365      -0.00120039      -0.00004873
Pt       9.65895987       7.17166812       7.09818292        3       0.00000000      -0.00183347      -0.00162233      -0.00220466
Pt      12.43365088       7.17857222       7.15427097        3       0.00000000      -0.00431590      -0.00249423       0.00124098
Pt      15.21004178       7.17873636       7.07857066        3       0.00000000      -0.00245343      -0.00105526       0.00072482
Pt       5.53301302       9.56581770       7.09257544        3       0.00000000      -0.00186929      -0.00102631       0.00035921
Pt       8.28641584       9.56606386       7.09032345        3       0.00000000      -0.00220127      -0.00093075      -0.00005081
Pt      11.03696100       9.58558094       7.07990583        3       0.00000000      -0.00133267      -0.00102196      -0.00002235
Pt      13.82198722       9.58291544       7.07857132        3       0.00000000      -0.00213218      -0.00159212       0.00071856
Pt      16.57133937       9.56746535       7.09003045        3       0.00000000      -0.00177770      -0.00100702       0.00029758
O       12.33725647       7.12291837       9.13928652        0       0.00000000      -0.03021550      -0.01744491      -0.00086591
H       11.49202105       6.63491496       9.32352396        0       0.00000000      -0.03104737      -0.01792556      -0.01996205
