64
Lattice="10.191428672993329 0.0013501566430304704 0.023188412642725868 5.096883606448618 8.80487089022086 -0.039411703716164176 0.0 0.0 21.518610954402757" Properties=species:S:1:pos:R:3:tags:I:1:initial_magmoms:R:1:forces:R:3 unique_id=f77d546e64ce48c593a7fb82d5b0d0cd energy=-371.3487248775318 stress="0.004522986378974183 2.1339136057165e-05 0.00017161221791974586 2.1339136057165e-05 0.004257914778732245 -0.0004910675562534859 0.00017161221791974586 -0.0004910675562534859 -0.0025787497624198946" pbc="T T T"
Ni       0.01254767       0.01943740       0.16355177        2       1.00000000       0.11513445       0.00351271      -0.41503181
Ni       2.55017276      -0.00511848       0.19366500        2       1.00000000       0.02257201      -0.00764467      -0.28084354
Ni       5.10058498      -0.03243595       0.07568689        1       1.00000000      -0.00563414       0.06804328       0.17992743
Ni       7.64824998      -0.02230366       0.14779728        1       1.00000000      -0.05638661       0.07796884      -0.50161405
Ni       1.23959889       2.20546597       0.08586152        1       1.00000000      -0.00088247       0.00010867       0.29406049
Pt       3.77299312       2.20163733       0.15739035        2       0.00000000       0.03563438       0.01527681      -0.61194523
Pt       6.42575427       2.20102603       0.07938228        1       0.00000000       0.02404423      -0.05334026      -0.01708614
Ni       8.96349884       2.23139647       0.13860032        1       1.00000000      -0.01095849       0.13913782      -0.15904742
Ni       2.54358306       4.41623300       0.02330814        0       1.00000000       0.04636846      -0.04014338       0.09621294
Ni       5.07174371       4.41420028       0.04400795        0       1.00000000      -0.09100128      -0.04767649       0.12895940
Ni       7.69882295       4.39656245       0.05574167        1       1.00000000       0.16312073       0.01430738       0.15483874
Ni      10.18111881       4.38197009       0.05263962        1       1.00000000      -0.11097141      -0.02826791       0.12450241
Ni       3.81332632       6.57926801       0.01420482        0       1.00000000       0.07699719      -0.06805198       0.08185026
Pt       6.37122274       6.62093895       0.00000000        0       0.00000000       0.04356373       0.14842617      -0.26732581
Ni       8.93434477       6.58249512       0.11208650        1       1.00000000      -0.06709695      -0.12845419      -0.17422175
Ni      11.46412885       6.59038109       0.01107601        0       1.00000000      -0.07962309      -0.04054309       0.05190250
Ni       1.30207374       0.74081851       2.13278162        3       1.00000000       0.05418197       0.08331145       0.02731099
Ni       3.82982168       0.72561694       2.18755758        4       1.00000000       0.12899241      -0.00750970       0.08540357
Ni       6.34608758       0.76166311       2.22366845        4       1.00000000      -0.06386643       0.12774328       0.26927527
Pt       8.94816524       0.80157563       2.18648393        4       0.00000000      -0.06341621       0.00396527       0.15325183
Ni       2.54592358       2.91898807       2.18132373        4       1.00000000      -0.00450433       0.02055803       0.06162417
Ni       5.08420548       2.90816185       2.21907109        4       1.00000000      -0.05825902      -0.05258968       0.21425466
Ni       7.67443532       2.94143503       2.19454086        4       1.00000000       0.02536904       0.06747178       0.19363357
Ni      10.19139244       2.92723618       2.16745636        4       1.00000000       0.02573087       0.00797700       0.13494320
Ni       3.84133069       5.08054114       2.15433533        4       1.00000000       0.02537501      -0.14718163       0.04535017
Pt       6.37787919       5.11389436       2.17669973        4       0.00000000      -0.03432449      -0.01453737      -0.05893458
Ni       8.91103938       5.09038204       2.16736037        4       1.00000000      -0.03343513      -0.09039725       0.09618029
Pt      11.45495205       5.06369183       2.12363602        3       0.00000000      -0.04130911      -0.04236431       0.01220666
Ni       5.11283353       7.32526689       2.12571229        3       1.00000000      -0.02436520      -0.03969234       0.03690502
Ni       7.64979646       7.34405308       2.13789067        3       1.00000000      -0.00760131      -0.03134582       0.07101231
Pt      10.13069019       7.36398117       2.17270179        4       0.00000000      -0.01873045       0.01298384       0.06913450
Pt      12.76177713       7.30069696       2.11543680        3       0.00000000       0.06635327      -0.01705231       0.04147692
Ni      -0.00675066       1.46963201       4.30452408        6       1.00000000      -0.02925271      -0.02107967      -0.08218109
Pt       2.59624750       1.45000047       4.21661206        5       0.00000000       0.01622646      -0.06347032       0.02695923
Ni       5.14884187       1.40353610       4.29191722        6       1.00000000       0.03043789      -0.13997343      -0.19856730
Ni       7.63117554       1.45000699       4.31511160        6       1.00000000       0.01539047      -0.05081434      -0.16562725
Pt       1.25178626       3.68272511       4.35375597        7       0.00000000      -0.04206115      -0.00011127       0.06559192
Ni       3.84206136       3.70564437       4.27758138        6       1.00000000      -0.03697768       0.07249972      -0.22587395
Pt       6.37638336       3.62857060       4.34351859        6       0.00000000      -0.03846828      -0.03405106       0.01685299
Ni       8.91926571       3.67555339       4.28972982        6       1.00000000      -0.01516812       0.02062675      -0.20138968
Ni       2.55716175       5.83075492       4.33778332        6       1.00000000      -0.08202201      -0.00057700      -0.08323580
Ni       5.07012976       5.80547516       4.32609143        6       1.00000000      -0.08664946      -0.05611667      -0.11850288
Ni       7.69841154       5.81600821       4.30046401        6       1.00000000       0.16066374      -0.06741811      -0.19924711
Ni      10.19623448       5.86251727       4.30905173        6       1.00000000      -0.00466497       0.02784194      -0.15712511
Pt       3.79180460       8.00686137       4.28190060        6       0.00000000      -0.03977825       0.01027141       0.09806956
Pt       6.41566661       7.96869213       4.20247150        5       0.00000000       0.06188825      -0.05186887      -0.06359773
Ni       8.97616074       8.03290837       4.29392952        6       1.00000000      -0.02152188       0.04229043      -0.07926534
Ni      11.42055940       8.04431999       4.30716867        6       1.00000000      -0.01640012      -0.02281273      -0.06643716
Pt       0.00664712      -0.06054252       6.51861095       10       0.00000000      -0.11758561       0.04867489       0.42868438
Pt       2.60110891      -0.03505591       6.51858629       10       0.00000000       0.12747025      -0.01648618       0.34717852
Ni       5.10956616      -0.04188778       6.43209257        9       1.00000000      -0.12236660       0.04895636      -0.13103250
Pt       7.54492038      -0.06130940       6.50620434       10       0.00000000       0.06840042       0.14336498       0.30079926
Ni       1.28996832       2.21324891       6.45406535       10       1.00000000       0.07271212      -0.01852973      -0.01469993
Pt       3.89119520       2.26186368       6.38734993        9       0.00000000       0.10759311       0.15300871       0.58122455
Ni       6.37781458       2.18947957       6.37719835        9       1.00000000       0.00057830       0.01803877       0.31325660
Pt       8.92049358       2.26807797       6.45188499       10       0.00000000      -0.08081192      -0.09355204       0.07065818
Ni       2.55880673       4.42503189       6.42930132        9       1.00000000       0.11214681       0.03610397      -0.16326991
Ni       5.11064913       4.42785860       6.43094880        9       1.00000000      -0.04407249       0.04910856      -0.13053069
Ni       7.62311878       4.39218654       6.43859218        9       1.00000000      -0.06142390       0.03655491      -0.08306371
Ni      10.23668010       4.38770987       6.46113291       10       1.00000000       0.00478943       0.01915934      -0.02691505
Ni       3.82093608       6.49462330       6.41182967        9       1.00000000      -0.01613939      -0.00582519      -0.18116327
Ni       6.35994585       6.50368302       6.33092119        8       1.00000000       0.04608454      -0.00220153       0.20506215
Pt       8.97685060       6.49860574       6.42172864        9       0.00000000      -0.10420895       0.05162853       0.00197396
Ni      11.49349056       6.52871983       6.41494240        9       1.00000000       0.05412009      -0.06724108      -0.22275281
