64
Lattice="10.107690231866382 0.028009147313246125 -0.051359322282054365 5.078101749044808 8.748997013419903 -0.06407610265839542 -0.04193471104206243 -0.036200512227151656 8.662648835904387" Properties=species:S:1:pos:R:3:tags:I:1:initial_magmoms:R:1:forces:R:3 unique_id=51d3c81b2945472c8eb3569aa2bd5611 stress="-0.0001136347334027149 -1.8172225351236425e-06 1.3032623602733305e-05 -1.8172225351236425e-06 -0.00010840772901640067 -4.4187092709801955e-06 1.3032623602733305e-05 -4.4187092709801955e-06 -7.367564730075687e-05" energy=-389.0652493615772 pbc="T T T"
Ni       0.03251260      -0.04507467       0.18549899        4       1.00000000       0.02850331      -0.04654394       0.24743964
Ni       2.49600294      -0.03561479       0.10730657        4       1.00000000      -0.05079711      -0.06762592       0.13127262
Ni       5.06467351      -0.01057284       0.16475776        4       1.00000000      -0.04100413      -0.05653632       0.27225198
Ni       7.54631616      -0.02211412       0.14540695        4       1.00000000      -0.07929746      -0.04475183       0.24734908
Ni       1.26040466       2.19183497       0.09976581        4       1.00000000      -0.05009682       0.01695598       0.19796820
Pt       3.75365836       2.15302774       0.15825040        4       0.00000000      -0.10115095      -0.05583755       0.18564068
Ni       6.32369153       2.17888302       0.07662664        4       1.00000000      -0.03487718      -0.01500317       0.17567905
Pt       8.85303502       2.25652925       0.06924413        4       0.00000000      -0.02505495       0.00963000       0.09551811
Ni       2.48614026       4.40472529       0.07513963        4       1.00000000      -0.04805293       0.01436471       0.13911786
Pt       5.08384666       4.43875935       0.04813358        4       0.00000000      -0.04633938       0.08898878      -0.15786318
Ni       7.60900633       4.43342816       0.05645332        4       1.00000000       0.00419897       0.14280599       0.21067004
Ni      10.14368156       4.43215250       0.03897702        4       1.00000000       0.02611729       0.12366001       0.15864574
Ni       3.77846812       6.58776602       0.06221234        4       1.00000000      -0.06738488       0.06080900       0.11943486
Ni       6.35157187       6.60223983       0.04733065        4       1.00000000      -0.02200772       0.03461547       0.03741268
Ni       8.83173609       6.55235581       0.09659113        4       1.00000000      -0.08960059      -0.03901637       0.20928300
Ni      11.40846366       6.55775249      -0.00712082        4       1.00000000       0.00783296      -0.06676578      -0.02023358
Ni       1.29286955       0.72921194       2.17511146        3       1.00000000       0.02709790       0.03059324       0.06569598
Ni       3.72921941       0.71455132       2.16359200        3       1.00000000      -0.15068101      -0.05337339      -0.06025179
Ni       6.31028036       0.75947276       2.11766658        3       1.00000000       0.03531256       0.01595113       0.04927375
Pt       8.85334034       0.74015386       2.16126963        3       0.00000000       0.07549156       0.14194574      -0.08306232
Ni       2.48945463       2.93471299       2.20793750        3       1.00000000       0.02912892       0.01898264       0.06939461
Ni       5.05948328       2.94687748       2.15325992        3       1.00000000      -0.08096292       0.15440926      -0.09116174
Ni       7.56107922       2.96924098       2.14238961        3       1.00000000       0.07510359       0.04042161      -0.06318128
Ni      10.15303227       2.97701534       2.16148090        3       1.00000000       0.03806590       0.02695386       0.04056014
Ni       3.77040633       5.10156373       2.17029149        3       1.00000000      -0.00197888      -0.02118477       0.05087090
Ni       6.34402008       5.14219249       2.13416942        3       1.00000000       0.01994169       0.09089918      -0.03368644
Ni       8.83647055       5.07716037       2.11868012        3       1.00000000       0.01739326      -0.04988423       0.08212130
Ni      11.39643147       5.07691278       2.10739757        3       1.00000000       0.05971407      -0.10343763       0.10117198
Ni       5.09890176       7.23187976       2.09766500        3       1.00000000      -0.00450366      -0.11858616       0.01571080
Ni       7.53526496       7.27656729       2.07732070        3       1.00000000      -0.04314086      -0.04649743       0.00805690
Pt      10.15173501       7.24913523       2.07556240        3       0.00000000       0.05576889      -0.14843470       0.04729309
Ni      12.65568584       7.24626875       2.05757621        3       1.00000000       0.06248704      -0.15038875       0.03599402
Ni       0.04102922       1.47630194       4.26535073        2       1.00000000       0.05903777       0.03155439      -0.06058304
Ni       2.43478314       1.47678740       4.24149475        2       1.00000000      -0.00591552       0.06875547      -0.11504423
Pt       5.05200297       1.46455825       4.17314044        2       0.00000000      -0.09867974      -0.00302047       0.05915602
Ni       7.57599215       1.46972860       4.22771666        2       1.00000000       0.03895732      -0.02864794      -0.06390243
Ni       1.25615396       3.63261951       4.28018384        2       1.00000000       0.03309830       0.00827726      -0.07936143
Ni       3.72143516       3.70167382       4.22392798        2       1.00000000      -0.02622703       0.04827792      -0.17748184
Pt       6.34486903       3.70397489       4.23597197        2       0.00000000       0.03828092      -0.04857683      -0.03638830
Ni       8.88857324       3.69735548       4.18033749        2       1.00000000       0.10112319       0.06276726      -0.18347515
Ni       2.50120522       5.76070966       4.26643575        2       1.00000000      -0.07904010      -0.07051648      -0.16193342
Ni       5.04813513       5.81345467       4.24696757        2       1.00000000       0.03545807      -0.07648777      -0.20097986
Ni       7.56123406       5.81999641       4.20535883        2       1.00000000       0.03232411       0.04504487      -0.17678093
Ni      10.13909079       5.77238364       4.22452482        2       1.00000000       0.03300352      -0.06607432      -0.06077078
Pt       3.80235941       7.91712155       4.21241386        2       0.00000000      -0.04177936      -0.04915121       0.14448402
Ni       6.31266373       7.98840724       4.19564563        2       1.00000000      -0.09971492      -0.03615951      -0.18239268
Pt       8.76812106       7.98091247       4.17727087        2       0.00000000      -0.02466501      -0.03500924       0.14544545
Ni      11.37926089       7.95986796       4.19087788        2       1.00000000       0.01035731      -0.08823832       0.03231705
Pt       0.07416314      -0.05457952       6.45702382        1       0.00000000       0.18464574      -0.01189555       0.16158519
Ni       2.49579791      -0.01699467       6.40542434        1       1.00000000       0.03999420       0.02501325      -0.10853286
Pt       5.00669277      -0.02056413       6.46307486        1       0.00000000       0.08445025       0.02811788       0.14980918
Pt       7.56146678      -0.04763028       6.42083585        1       0.00000000      -0.00729267      -0.04054789       0.16294616
Ni       1.24317848       2.20894501       6.37123781        1       1.00000000       0.01603967       0.12295898      -0.15818915
Pt       3.70640633       2.26321154       6.31833162        1       0.00000000      -0.00903046       0.18783684      -0.22404980
Ni       6.29144162       2.22829654       6.38254437        1       1.00000000      -0.03033431       0.04608406      -0.08070202
Pt       8.84040575       2.27985198       6.24242740        1       0.00000000       0.03478781       0.12021310      -0.39296772
Ni       2.47989946       4.40288662       6.35299166        1       1.00000000      -0.01015772       0.10898137      -0.14640626
Ni       5.03528299       4.41024364       6.28487705        1       1.00000000      -0.06909535       0.07017442      -0.22842972
Ni       7.52216966       4.37346501       6.36862578        1       1.00000000      -0.11375739      -0.03773324      -0.01328239
Ni      10.15806561       4.37758724       6.31961739        1       1.00000000       0.19054979      -0.01149143      -0.14560137
Ni       3.78328199       6.45716175       6.36560870        1       1.00000000       0.03774470      -0.12280588      -0.05891238
Ni       6.28850540       6.49299109       6.33717242        1       1.00000000      -0.02902919      -0.08762706      -0.20253047
Pt       8.80149563       6.44921234       6.38337092        1       0.00000000       0.03240001      -0.10668257       0.12222755
Ni      11.38893437       6.48639088       6.31008975        1       1.00000000       0.01723962       0.01848999      -0.20365906
