64
Lattice="10.56313462905972 0.005786807636107409 0.013110765988657498 5.286578836949542 9.175444889204075 -0.0065612412444147755 0.010704895603082394 -0.012366471927321857 9.147708113299949" Properties=species:S:1:pos:R:3:tags:I:1:initial_magmoms:R:1:forces:R:3 unique_id=146b30837e48479aa8bf7359c384cfc2 stress="0.0016112432471010601 -5.02399050740772e-07 3.894450819251391e-06 -5.02399050740772e-07 0.0016184644323671699 6.103568199600492e-06 3.894450819251391e-06 6.103568199600492e-06 0.0013058001794268165" energy=-415.7986301186032 pbc="T T T"
Pt       0.01729180       0.03400636       0.00952635        4       0.00000000       0.00994625       0.00283000      -0.14776902
Ni       2.64530823       0.00946175       0.10662921        4       1.00000000      -0.01590580      -0.01779423       0.38040556
Pt       5.24648843       0.00192366       0.02159993        4       0.00000000      -0.02924909       0.03846095      -0.10738512
Pt       7.91600655       0.01716045       0.09931476        4       0.00000000      -0.01578580       0.03324627       0.09022877
Pt       1.32282993       2.28183119       0.02120923        4       0.00000000       0.04255546      -0.00405953      -0.16398772
Ni       3.95346996       2.28602065       0.11185379        4       1.00000000      -0.01319427       0.03663406       0.39363251
Pt       6.64567923       2.32363467       0.10261281        4       0.00000000       0.17183841       0.05869205       0.16442624
Ni       9.25051134       2.31942872       0.05963852        4       1.00000000       0.03815319       0.06936933       0.19277653
Pt       2.61724437       4.58890069       0.11280426        4       0.00000000      -0.08299187       0.04662990       0.06605763
Pt       5.31149994       4.56806578       0.11717192        4       0.00000000      -0.00571071      -0.08591061       0.09559339
Ni       7.94075962       4.58156374       0.12164123        4       1.00000000       0.04901580      -0.01385429       0.33863827
Pt      10.51631857       4.57215429       0.10422067        4       0.00000000      -0.13745212      -0.16795574       0.10877446
Pt       3.94160219       6.88071112       0.08637783        4       0.00000000      -0.02178564      -0.00107947       0.06690444
Pt       6.64356138       6.86478789       0.11402334        4       0.00000000       0.06837607      -0.03246661       0.12265304
Pt       9.26307368       6.86055952       0.03331405        4       0.00000000       0.08327585      -0.06339127      -0.11781879
Ni      11.87206211       6.87944875       0.10812041        4       1.00000000      -0.08919752      -0.04040191       0.24773480
Pt       1.30583182       0.79734959       2.31612476        3       0.00000000      -0.05584631       0.05352371       0.08942942
Pt       3.95340818       0.76320020       2.26699319        3       0.00000000       0.03264595      -0.04654427       0.04803765
Pt       6.61772280       0.76676611       2.38228315        3       0.00000000       0.09483043      -0.01112825       0.14965850
Pt       9.26364694       0.84991864       2.35527699        3       0.00000000       0.02169247       0.29793927       0.08582489
Pt       2.59212967       3.09157746       2.32747819        3       0.00000000      -0.12890620       0.10073018       0.14281219
Pt       5.31082292       3.09238152       2.36424203        3       0.00000000       0.12459338       0.08568264       0.22096084
Pt       7.99380482       3.15862227       2.35998378        3       0.00000000       0.10499088       0.21102752       0.24539681
Ni      10.55563142       3.09860590       2.32231728        3       1.00000000      -0.02319201       0.20925175       0.11648034
Pt       3.95672754       5.33005712       2.35222471        3       0.00000000      -0.09120356      -0.06427706       0.02621411
Ni       6.64236027       5.33252264       2.30181166        3       1.00000000       0.14507381      -0.04566112       0.04297640
Ni       9.26113022       5.32556103       2.31292910        3       1.00000000       0.17897126      -0.08249364       0.10895551
Ni      11.84480292       5.33734647       2.30964285        3       1.00000000      -0.24891907      -0.16257708       0.08141121
Pt       5.29281706       7.62917499       2.32658420        3       0.00000000      -0.03235989       0.07229255      -0.00259877
Pt       7.95481679       7.58150769       2.31579743        3       0.00000000       0.03881692      -0.10853273       0.15684946
Pt      10.57795117       7.54937606       2.34836120        3       0.00000000      -0.01613569      -0.20052867       0.19195863
Pt      13.16762754       7.61479103       2.32506218        3       0.00000000      -0.02943925       0.03259573      -0.00018674
Ni      -0.03107572       1.55885394       4.59362498        2       1.00000000      -0.21838122       0.18736406       0.09671249
Pt       2.62031382       1.57199846       4.57689514        2       0.00000000       0.00326314       0.11739896       0.03133856
Pt       5.33883357       1.53870989       4.57232136        2       0.00000000      -0.01351636      -0.01300118       0.07605044
Ni       7.96091477       1.56308538       4.57258269        2       1.00000000       0.18813034       0.28903390      -0.07015064
Pt       1.20097287       3.81716418       4.55168294        2       0.00000000      -0.44602383       0.01616583      -0.09729177
Ni       3.97518543       3.80749988       4.56144285        2       1.00000000      -0.07681062      -0.05668164       0.00570601
Ni       6.63808817       3.80703249       4.54946695        2       1.00000000       0.22057323      -0.07613170      -0.08527177
Ni       9.25335888       3.79531195       4.55972810        2       1.00000000      -0.05690452      -0.22292046      -0.07869969
Pt       2.57189869       6.10843676       4.51944806        2       0.00000000      -0.24628744      -0.04457277       0.00276087
Pt       5.31249064       6.04202724       4.50793008        2       0.00000000       0.14912161      -0.10860221      -0.02972141
Pt       8.00459680       6.01820781       4.51742223        2       0.00000000       0.16918789      -0.28461841      -0.18972000
Ni      10.56706831       6.09587180       4.56340271        2       1.00000000      -0.06151592      -0.13892275      -0.09870767
Pt       3.94613449       8.48488738       4.54899252        2       0.00000000      -0.05796608       0.09043630      -0.08396883
Pt       6.59463413       8.44434723       4.56863692        2       0.00000000       0.10241633       0.02025178       0.02547718
Pt       9.32572850       8.36005870       4.61662614        2       0.00000000       0.04926648      -0.06472221       0.08655261
Ni      11.88793315       8.40738004       4.57882460        2       1.00000000       0.02703988       0.00623849      -0.00300746
Ni       0.00938740       0.03381409       6.73779773        1       1.00000000      -0.00035589       0.23590508      -0.44862294
Pt       2.64807968       0.00184958       6.83420200        1       0.00000000      -0.03801730       0.04368782       0.13284749
Ni       5.28723750      -0.01727352       6.74821313        1       1.00000000       0.03445116       0.04043229      -0.36422142
Pt       7.93181152       0.04079826       6.72157746        1       0.00000000      -0.00801380       0.03263800      -0.14401274
Ni       1.28353318       2.27847683       6.73762779        1       1.00000000      -0.30377630      -0.04787916      -0.42096212
Pt       3.95460220       2.26055626       6.81615500        1       0.00000000       0.03181267      -0.01639169       0.12780944
Pt       6.66313322       2.27988684       6.71863137        1       0.00000000       0.18344468       0.13640384      -0.10364043
Ni       9.28419784       2.28695117       6.78661151        1       1.00000000       0.25587975      -0.04240422      -0.36732498
Pt       2.58970668       4.54525274       6.72744869        1       0.00000000      -0.19001549      -0.03974329      -0.17665209
Pt       5.30381092       4.55739128       6.71676246        1       0.00000000       0.06493001      -0.00778313      -0.16447565
Pt       8.03786294       4.55796717       6.78674854        1       0.00000000       0.32127666      -0.04358387       0.03614391
Ni      10.56055613       4.56779045       6.75038176        1       1.00000000      -0.02024260      -0.07164340      -0.25579302
Pt       3.96958032       6.90638488       6.73665158        1       0.00000000      -0.06578685       0.03621216      -0.28298492
Pt       6.64923577       6.89099401       6.75166385        1       0.00000000       0.11081037      -0.11358875      -0.19414350
Ni       9.26976020       6.86801665       6.74828005        1       1.00000000      -0.02788884      -0.08391291      -0.35453014
Pt      11.79184458       6.88639717       6.78098614        1       0.00000000      -0.24760250       0.02468582      -0.04254128
