64
Lattice="10.220944502627045 0.021796935271115748 -0.040956159366687804 5.129348950982952 8.776618954461659 -0.1126679608053931 0.0 0.0 21.55015635554228" Properties=species:S:1:pos:R:3:tags:I:1:initial_magmoms:R:1:forces:R:3 unique_id=fda1eabc6fc94b6bb8e2fda18a75c191 energy=-370.97258807640407 stress="0.0022427128931818783 1.8259004711200074e-05 -0.00021455685995926046 1.8259004711200074e-05 0.001426031689680765 -0.000308208717596735 -0.00021455685995926046 -0.000308208717596735 -0.0052094754661407925" pbc="T T T"
Ni       0.03779289      -0.06312328       0.24261941        2       1.00000000       0.07685447      -0.02550901      -0.25907121
Ni       2.48690208      -0.03322756       0.25078666        3       1.00000000      -0.01003212      -0.01334713      -0.23803907
Pt       5.09742865      -0.04345451       0.17098116        2       0.00000000      -0.08869027       0.34262492      -1.32156528
Ni       7.68676256      -0.05084721       0.19869429        2       1.00000000      -0.06315145      -0.03838889      -0.39502493
Ni       1.27685430       2.19342573       0.14010549        1       1.00000000      -0.03712257       0.02890622       0.31504712
Pt       3.74422406       2.25361156       0.19814095        2       0.00000000       0.12085202      -0.07338504      -0.68568568
Pt       6.39959601       2.27465620       0.09214672        1       0.00000000      -0.08415110      -0.08813728      -0.26438291
Pt       9.01766080       2.24738748       0.11633581        1       0.00000000      -0.01194055       0.12369825      -0.71563018
Ni       2.55993216       4.42714878       0.04592946        0       1.00000000       0.07614449       0.02934843       0.19580334
Ni       5.10548931       4.47064956       0.08629070        1       1.00000000      -0.08852181       0.03219718       0.25043988
Ni       7.64111557       4.45775422       0.03984366        0       1.00000000      -0.00225512       0.00721912       0.07718388
Ni      10.26440738       4.42909597       0.01410110        0       1.00000000       0.02559404       0.00007151       0.16479554
Ni       3.85540518       6.56108354       0.06958072        1       1.00000000       0.03070459       0.01078562       0.33239382
Ni       6.37744919       6.57358358       0.06492663        1       1.00000000      -0.01684811       0.04346726       0.31792075
Ni       8.90917968       6.55362414       0.10608986        1       1.00000000      -0.11252142       0.06005066      -0.36054123
Ni      11.55399068       6.55012992       0.00000000        0       1.00000000       0.05391339       0.05455791       0.14895073
Ni       1.29593863       0.71397815       2.24816599        5       1.00000000      -0.00514099       0.01824532       0.19670286
Ni       3.75130861       0.73297569       2.22077512        5       1.00000000      -0.13641632      -0.08362922       0.18690550
Ni       6.41409279       0.74544766       2.22121272        5       1.00000000       0.07963145       0.04088919       0.17717511
Pt       8.96798374       0.72142476       2.22289562        5       0.00000000       0.05435593      -0.12898370       0.17935054
Ni       2.54347673       2.86945817       2.28458563        6       1.00000000       0.04066294      -0.11611538       0.21390370
Ni       5.08975712       2.97743645       2.20112876        5       1.00000000      -0.01709220       0.08349072       0.07383786
Ni       7.63943296       2.91352445       2.22638162        5       1.00000000      -0.07940969      -0.05154404       0.17221288
Ni      10.27852841       2.89317858       2.23305052        5       1.00000000       0.10348410      -0.07071429       0.23635966
Ni       3.88429667       5.10153573       2.16965556        5       1.00000000       0.01072747      -0.01981233       0.07976919
Ni       6.34068296       5.13055334       2.13140284        4       1.00000000       0.00183323      -0.02151301       0.03164124
Pt       8.87561971       5.06007282       2.16361057        5       0.00000000       0.03210679      -0.07760107       0.05000805
Pt      11.59174424       5.04682990       2.15652890        5       0.00000000       0.01967111      -0.08301102       0.05988355
Ni       5.14970988       7.23893967       2.11419515        4       1.00000000      -0.04506625      -0.04896547       0.08275528
Ni       7.58032075       7.30336056       2.09652578        4       1.00000000      -0.10571850      -0.05575675       0.11890752
Pt      10.27400762       7.29653457       2.15475940        5       0.00000000       0.07315076      -0.15282195       0.20438745
Ni      12.82512936       7.27317268       2.07249993        4       1.00000000       0.12457348      -0.07246927       0.07194666
Ni       0.04812981       1.45121301       4.33451628        8       1.00000000       0.10936882      -0.04897992      -0.09817445
Ni       2.47225010       1.46824005       4.29458805        8       1.00000000      -0.05800111      -0.01955597      -0.11390948
Pt       5.09795069       1.45507184       4.22376328        7       0.00000000      -0.01275329      -0.04451364      -0.28558462
Ni       7.66330906       1.44220956       4.29761867        8       1.00000000      -0.03079978      -0.07789240      -0.23337813
Ni       1.27741710       3.60243835       4.36067791        9       1.00000000       0.05827298      -0.04472822      -0.03740150
Ni       3.77830203       3.69702600       4.26972444        8       1.00000000       0.00696742       0.09009190      -0.18221767
Pt       6.40170693       3.69858565       4.29414138        8       0.00000000       0.00861822       0.00068470      -0.04371452
Ni       8.98221836       3.65850244       4.26817554        8       1.00000000       0.04377248       0.04725166      -0.12332279
Ni       2.55206773       5.75769289       4.34136308        8       1.00000000       0.00144093      -0.03451676      -0.04531809
Ni       5.10144449       5.80164488       4.28939332        8       1.00000000       0.02115686      -0.00732828      -0.13919803
Ni       7.61976234       5.82087165       4.27707128        8       1.00000000      -0.08303039       0.05558916      -0.09929610
Ni      10.26479633       5.76535279       4.30711390        8       1.00000000       0.03957004       0.04237717      -0.06025485
Pt       3.84301112       7.91484646       4.23162634        7       0.00000000       0.01666404       0.04497679      -0.00595395
Ni       6.36069634       7.98162697       4.20133283        7       1.00000000      -0.11033448      -0.00808800      -0.18661282
Pt       8.84589474       7.97389604       4.18499581        7       0.00000000      -0.13171329       0.04008323      -0.11240584
Ni      11.53347118       7.96111061       4.21930533        7       1.00000000       0.04192599      -0.07873886      -0.16463991
Pt      -0.00745581      -0.10409733       6.55015636       13       0.00000000      -0.13702911       0.16781085       0.19366347
Pt       2.50541259      -0.04034908       6.54208661       12       0.00000000       0.18238795       0.12805678       0.26299113
Pt       5.11379249      -0.06147704       6.40051596       11       0.00000000      -0.07340604      -0.00492401       1.23882760
Pt       7.64127694      -0.09014437       6.50722162       12       0.00000000       0.07941818       0.18132947       0.33541469
Ni       1.25562239       2.20771633       6.43579712       11       1.00000000       0.04101297       0.02399562      -0.17240918
Pt       3.78772661       2.29086382       6.38027294       11       0.00000000      -0.11247090      -0.02903666       0.62702179
Ni       6.37667867       2.20290788       6.36874852       11       1.00000000       0.03881391       0.01137037       0.29493275
Pt       8.94278594       2.25864141       6.31047381       10       0.00000000      -0.02179973      -0.18310286       0.75423594
Ni       2.51233105       4.39437212       6.40525148       11       1.00000000       0.07902654      -0.04964084      -0.25959672
Ni       5.10420294       4.40402729       6.42777345       11       1.00000000      -0.06258877       0.01139649      -0.24862494
Ni       7.59999109       4.34874290       6.42295901       11       1.00000000      -0.02834819      -0.03496345      -0.02738078
Ni      10.29137120       4.34588444       6.37336544       11       1.00000000       0.03128332      -0.01328718      -0.17453435
Ni       3.82464597       6.43339400       6.41381683       11       1.00000000       0.00263490      -0.01775640      -0.26215657
Ni       6.35187426       6.46298333       6.38740113       11       1.00000000       0.01616900       0.03690585      -0.28565996
Pt       8.93566411       6.39331762       6.42783989       11       0.00000000       0.05591516       0.04695813       0.12491475
Ni      11.52729572       6.46540448       6.35619226       11       1.00000000      -0.03232642       0.11432783      -0.16859850
