64
Lattice="10.496216883362656 -0.004570537798541686 -0.002113228685831927 5.244150239838834 9.104123372072179 -0.02265550806029992 -0.0017254439967001524 -0.020363632284919626 9.05958822397639" Properties=species:S:1:pos:R:3:tags:I:1:initial_magmoms:R:1:forces:R:3 unique_id=371c1e9092c44a0d8dc4c2a58e6cdcb2 stress="-0.00452416580457065 -9.071810337273223e-06 2.295583188937091e-05 -9.071810337273223e-06 -0.00451110947771536 1.9761786881635716e-05 2.295583188937091e-05 1.9761786881635716e-05 -0.003713536013777753" energy=-412.18701007034485 pbc="T T T"
Ni       0.00620233       0.02399020       0.05184939        4       1.00000000      -0.02456522      -0.00354888       0.05866647
Ni       2.62164272       0.00753077       0.14769564        4       1.00000000       0.02135538      -0.04115655       0.26294308
Pt       5.19998341       0.05697327       0.04316335        4       0.00000000      -0.04723996       0.08382561      -0.05935610
Pt       7.89167459       0.06187821       0.09192239        4       0.00000000       0.01152619       0.09713801      -0.03900203
Pt       1.29934917       2.23858319      -0.00471847        4       0.00000000      -0.01065596      -0.09534848      -0.26608342
Ni       3.92493100       2.26718334       0.14960268        4       1.00000000      -0.06584816      -0.01043451       0.28588554
Ni       6.57852104       2.28504769       0.12689576        4       1.00000000       0.08424495       0.02796787       0.24344633
Ni       9.18340820       2.29142688       0.05707274        4       1.00000000      -0.00607128       0.08894955       0.05986823
Ni       2.60691368       4.54172291       0.12773980        4       1.00000000      -0.05929644      -0.03796005       0.14013463
Pt       5.26867909       4.47605516       0.10518465        4       0.00000000       0.03213734      -0.08238043      -0.06669498
Ni       7.88143839       4.51986355       0.13231811        4       1.00000000       0.02846994      -0.01977904       0.17978771
Pt      10.49354876       4.52376107       0.08823842        4       0.00000000      -0.00302308      -0.07435678      -0.06214126
Pt       3.88850693       6.81287755       0.07525067        4       0.00000000      -0.08105581      -0.05226000      -0.15935032
Pt       6.57127482       6.83884880       0.10307714        4       0.00000000      -0.01566882      -0.03423373      -0.07937911
Pt       9.20330993       6.79995984       0.00218449        4       0.00000000       0.03793258      -0.02380518      -0.16501075
Ni      11.79810739       6.80541415       0.10946374        4       1.00000000      -0.04086285      -0.02782238       0.14836855
Pt       1.33050510       0.78066403       2.24993813        3       0.00000000       0.00257412       0.00860348       0.01349951
Ni       3.93130317       0.75463437       2.26141202        3       1.00000000       0.04144333      -0.01585775       0.09684782
Pt       6.54729563       0.76281342       2.32115530        3       0.00000000       0.00695861      -0.00174614       0.08181593
Pt       9.21911718       0.85204142       2.29102763        3       0.00000000       0.07055234       0.16090417       0.02536802
Pt       2.58408601       3.04951716       2.24663720        3       0.00000000      -0.07904780       0.00481506      -0.00471979
Pt       5.25940275       3.02600408       2.30507533        3       0.00000000       0.00175085       0.01786833       0.14788418
Pt       7.92309177       3.12220567       2.29116312        3       0.00000000       0.00542701       0.07654877       0.07699145
Ni      10.48729890       3.07543950       2.28654808        3       1.00000000      -0.00439654       0.10390896       0.02246357
Pt       3.90340532       5.27002118       2.27787155        3       0.00000000      -0.05512500       0.00941399      -0.00764006
Ni       6.59446619       5.28404701       2.25917691        3       1.00000000       0.04996945       0.01280667      -0.02820023
Ni       9.20918105       5.27271491       2.27687124        3       1.00000000       0.14722951      -0.03579926       0.01621324
Ni      11.75413685       5.27018308       2.25103507        3       1.00000000      -0.11477818      -0.08147894       0.02343100
Pt       5.24384015       7.58182671       2.26532322        3       0.00000000      -0.03495562       0.04752290      -0.00793208
Pt       7.90980666       7.55265276       2.27531892        3       0.00000000       0.02273639      -0.03913569       0.03086567
Pt      10.49182236       7.50164995       2.30460053        3       0.00000000       0.00680195      -0.05238060       0.03475450
Pt      13.06544420       7.55608056       2.26906291        3       0.00000000       0.00930011       0.02031129      -0.00042219
Ni      -0.05067644       1.55211377       4.54717177        2       1.00000000      -0.11533637       0.06015812      -0.00866553
Pt       2.61398611       1.55836636       4.50102678        2       0.00000000       0.05074148       0.04741670       0.00707962
Pt       5.30327130       1.52539041       4.51529743        2       0.00000000       0.04492457       0.04117572       0.10596984
Ni       7.90623972       1.56535650       4.51040960        2       1.00000000       0.07310493       0.20159887      -0.03104678
Pt       1.17417471       3.77842332       4.49015224        2       0.00000000      -0.10437567      -0.01436990      -0.08173120
Ni       3.92524109       3.77107769       4.49954592        2       1.00000000      -0.10898100       0.00209111      -0.00911126
Ni       6.60205111       3.75450273       4.48064571        2       1.00000000       0.14949238      -0.07979932      -0.03179750
Ni       9.18234380       3.73800597       4.49147585        2       1.00000000      -0.05647237      -0.15943553      -0.04305326
Pt       2.53384209       6.04293468       4.46612844        2       0.00000000      -0.09341322      -0.05058329      -0.02030716
Pt       5.27240869       5.97834239       4.43730279        2       0.00000000       0.05120404      -0.04929133      -0.12810192
Pt       7.95340394       5.94717400       4.43597228        2       0.00000000       0.06042663      -0.15531545      -0.10849625
Ni      10.48110002       6.02870870       4.48979834        2       1.00000000      -0.05474161      -0.08537488      -0.08467516
Pt       3.90532086       8.42736213       4.47735223        2       0.00000000       0.00054955       0.04367591      -0.11087642
Pt       6.53839753       8.38401064       4.50173028        2       0.00000000       0.01722034       0.05620542       0.00891520
Pt       9.25228442       8.30189723       4.53481912        2       0.00000000      -0.02541656       0.01327027       0.01569682
Ni      11.79855747       8.33465683       4.50724872        2       1.00000000       0.02320582       0.01299936      -0.02401820
Ni       0.00217851       0.04622724       6.72647014        1       1.00000000       0.00633613       0.13949402      -0.12383158
Pt       2.61810266      -0.00106345       6.78875471        1       0.00000000      -0.03406254       0.03375934       0.20500476
Ni       5.24950495      -0.02310287       6.65742561        1       1.00000000       0.05106739       0.06486397      -0.12521880
Pt       7.87929117       0.03497876       6.64014907        1       0.00000000       0.00692464       0.03372651      -0.01978230
Ni       1.24060315       2.24873448       6.63732544        1       1.00000000      -0.18429547      -0.02878048      -0.32112415
Pt       3.92185294       2.23470130       6.76753162        1       0.00000000       0.01200258       0.02979665       0.21334833
Pt       6.61616149       2.25316566       6.73838983        1       0.00000000       0.12636300       0.07661280       0.18086417
Ni       9.23429081       2.24937216       6.68808065        1       1.00000000       0.17900750      -0.03437140      -0.20118887
Pt       2.54214310       4.49885636       6.74081021        1       0.00000000      -0.10797461      -0.03409230       0.09037929
Pt       5.25944780       4.51136945       6.63140052        1       0.00000000       0.01922163      -0.00996955      -0.06236631
Pt       7.99186423       4.50281579       6.71837759        1       0.00000000       0.16024040      -0.02501844       0.12508304
Ni      10.48020155       4.51307575       6.64591026        1       1.00000000       0.00311352      -0.05706679      -0.14830571
Pt       3.92746200       6.85238874       6.64748120        1       0.00000000      -0.00334977       0.00293464      -0.08096267
Pt       6.59766235       6.82469905       6.65822629        1       0.00000000       0.06744511      -0.07365685      -0.04099308
Ni       9.19302585       6.79930055       6.63214478        1       1.00000000      -0.04796219      -0.05219391      -0.23131858
Pt      11.68656756       6.81957962       6.70133258        1       0.00000000      -0.10402956       0.01843973       0.08132848
