64
Lattice="10.3766764589806 0.020990822558600297 0.014332352576150245 5.20651681507238 8.973624182380155 0.01808326987906775 0.011702316875077324 0.010292734545385396 8.887999855171799" Properties=species:S:1:pos:R:3:tags:I:1:initial_magmoms:R:1:forces:R:3 unique_id=31906cf7666747ebad4a2cf5f41e468d stress="0.00041756167411381717 -2.190536472057415e-06 5.116962286148351e-06 -2.190536472057415e-06 0.0004332461142766558 1.276949922888354e-05 5.116962286148351e-06 1.276949922888354e-05 0.00038585082305084284" energy=-402.5673357507108 pbc="T T T"
Ni      -0.03637302       0.00250946       0.19122555        4       1.00000000      -0.15401051       0.02326301       0.37683742
Ni       2.61474156      -0.00989756       0.10842470        4       1.00000000       0.11268305      -0.03160873       0.26619357
Ni       5.19571282      -0.00975671       0.15444171        4       1.00000000       0.06922551       0.03869054       0.21984644
Ni       7.80607511      -0.02198339       0.11977869        4       1.00000000       0.11464471      -0.17871280       0.23375025
Pt       1.26868740       2.21407878       0.15204922        4       0.00000000      -0.07672722      -0.03313710       0.21469062
Pt       3.88369862       2.18922357       0.12207112        4       0.00000000       0.05856150      -0.04041116      -0.05498806
Pt       6.55047568       2.15518298       0.11986202        4       0.00000000       0.12024748      -0.15795013      -0.09421207
Ni       9.08811566       2.22368842       0.16296658        4       1.00000000       0.00579307      -0.18400647       0.19799938
Ni       2.58786196       4.51458666       0.14510112        4       1.00000000       0.08077301      -0.02242474       0.19181673
Pt       5.18027485       4.50731019       0.15687828        4       0.00000000       0.03488602       0.02120442       0.22197522
Pt       7.86849335       4.49227948       0.05326678        4       0.00000000       0.19451736       0.00989175      -0.17665717
Ni      10.40428065       4.53431502       0.07724395        4       1.00000000       0.07667058       0.07523433       0.11050374
Ni       3.86487026       6.77845458       0.19240900        4       1.00000000      -0.03206823       0.11019760       0.31421939
Pt       6.51264192       6.82978845       0.21856115        4       0.00000000       0.01748049       0.05773074       0.17180674
Ni       9.12152496       6.76947670       0.08516589        4       1.00000000       0.05611908       0.07592096       0.11847894
Ni      11.70229873       6.76668125       0.08683261        4       1.00000000       0.12182345       0.10953783       0.04619817
Ni       1.31835160       0.72150554       2.23333146        3       1.00000000       0.02991826       0.05193473      -0.08546856
Ni       3.85805409       0.77540882       2.24018336        3       1.00000000      -0.14594144       0.04386445       0.07062078
Ni       6.52946767       0.77393296       2.24710022        3       1.00000000       0.14930680       0.00512536       0.11529829
Ni       9.05757449       0.74603319       2.21757307        3       1.00000000      -0.15583605      -0.04154737      -0.09650637
Ni       2.63685630       2.95297704       2.26661535        3       1.00000000       0.04784836      -0.12426020       0.03857698
Ni       5.20268662       2.97362675       2.26735872        3       1.00000000      -0.00515045      -0.01830979      -0.05403548
Ni       7.77000091       2.95839753       2.26120094        3       1.00000000      -0.04741361      -0.15982319      -0.09731414
Pt      10.31486235       2.92236287       2.29689690        3       0.00000000      -0.11836178      -0.12622377      -0.07890923
Pt       3.90310757       5.25278463       2.27846919        3       0.00000000      -0.02919080      -0.05601900      -0.04025821
Ni       6.50426899       5.24515123       2.26709989        3       1.00000000      -0.01644482       0.04725012      -0.07713148
Pt       9.02433498       5.26540766       2.29557518        3       0.00000000      -0.16939791      -0.00826522      -0.01740869
Pt      11.69843555       5.26889944       2.19419268        3       0.00000000      -0.12160018       0.00924068      -0.02812821
Ni       5.19241991       7.52999254       2.22931432        3       1.00000000      -0.08553714       0.11461037      -0.02522750
Ni       7.78770527       7.53397782       2.25804917        3       1.00000000       0.03590076       0.12607111       0.02553496
Pt      10.39197435       7.56963986       2.16766025        3       0.00000000       0.00223235       0.05016457       0.04532801
Ni      13.01025694       7.54636840       2.22148875        3       1.00000000      -0.04509388       0.12102313      -0.04710724
Ni      -0.01738447       1.51620819       4.40518052        2       1.00000000      -0.08887669       0.04969002       0.02532666
Ni       2.61217666       1.51936319       4.39108653        2       1.00000000       0.02246738       0.03779062      -0.24027125
Pt       5.16792756       1.56228736       4.37751151        2       0.00000000       0.03218268       0.02545341      -0.12596585
Ni       7.81135475       1.53515484       4.40733011        2       1.00000000       0.04580854       0.00445886      -0.22579452
Pt       1.34014023       3.70174857       4.37243152        2       0.00000000       0.11374450      -0.08478546       0.04687377
Ni       3.88304984       3.72963391       4.40956310        2       1.00000000       0.01162667       0.02507194      -0.11399891
Pt       6.59944548       3.73382312       4.35819142        2       0.00000000      -0.00069026       0.05281352      -0.13111888
Ni       9.08878582       3.73542676       4.44860803        2       1.00000000       0.12455534      -0.08642894      -0.05293683
Ni       2.61028683       5.97640082       4.42906596        2       1.00000000      -0.00751765       0.03911483      -0.03798025
Pt       5.21134314       5.98527402       4.37861192        2       0.00000000       0.10335401       0.04812529       0.18548339
Ni       7.81085557       5.97263038       4.43462123        2       1.00000000      -0.03470264       0.08122920      -0.07742317
Pt      10.36727814       5.96269633       4.53718418        2       0.00000000       0.04598913      -0.03488291       0.05440315
Pt       3.90591328       8.29853368       4.33799172        2       0.00000000      -0.07720198       0.03832078      -0.04873616
Pt       6.51250639       8.31043552       4.33820605        2       0.00000000       0.01428775       0.10498695       0.02760306
Pt       9.06254079       8.24921354       4.43462138        2       0.00000000      -0.05960269       0.00971126       0.00488695
Pt      11.73208295       8.25366076       4.43783079        2       0.00000000       0.04078599       0.02695949      -0.03717174
Pt      -0.00397003       0.01582618       6.64464852        1       0.00000000      -0.07942927      -0.05151278       0.20977857
Ni       2.63246112       0.00920512       6.61214528        1       1.00000000       0.06018623      -0.03860617      -0.08869606
Pt       5.19530302       0.00736291       6.67602786        1       0.00000000      -0.03661512       0.00719805       0.13593470
Ni       7.76254117       0.03955954       6.62391079        1       1.00000000      -0.08699631       0.09972723      -0.08908726
Pt       1.34913556       2.21197268       6.53541068        1       0.00000000       0.02915889      -0.01382777      -0.27107706
Ni       3.90241477       2.23397602       6.53156126        1       1.00000000      -0.05671999      -0.05334434      -0.22314707
Ni       6.50479885       2.23445133       6.54195240        1       1.00000000      -0.03033957      -0.12589834      -0.26113095
Pt       9.01739686       2.31570850       6.58709189        1       0.00000000      -0.04770821       0.01114175       0.07923833
Pt       2.56164936       4.51024966       6.62105247        1       0.00000000      -0.13199937      -0.00347866       0.04012893
Pt       5.23511429       4.40573966       6.55194893        1       0.00000000       0.04460768      -0.11258153      -0.31070243
Ni       7.84137875       4.50858495       6.51656788        1       1.00000000       0.09476018       0.07946609      -0.41029419
Ni      10.35767091       4.53501500       6.62874161        1       1.00000000      -0.09865437      -0.06042995      -0.04677964
Pt       3.83117835       6.77366781       6.65617846        1       0.00000000      -0.09851299       0.05238481       0.15796402
Pt       6.61708625       6.72924118       6.57212525        1       0.00000000       0.06610089       0.02577928      -0.07712765
Ni       9.12505415       6.72032160       6.63502842        1       1.00000000       0.07817729      -0.05759473      -0.02885965
Ni      11.66230701       6.74650520       6.64148905        1       1.00000000      -0.11808387      -0.00430783      -0.07564525
