64
Lattice="10.32538770430908 0.009709847078179724 -0.005895967549655954 5.171102826391105 8.893405117884829 -0.037125942912739573 0.0 0.0 21.582348904531358" Properties=species:S:1:pos:R:3:tags:I:1:initial_magmoms:R:1:forces:R:3 unique_id=0fd69baa0ada465093fd816d39c03bb9 stress="0.005625218531462243 0.00023087865096649223 9.393729616151501e-05 0.00023087865096649223 0.0059574116218733255 -0.00022987265575118734 9.393729616151501e-05 -0.00022987265575118734 -0.0012758197396881017" energy=-375.94251611110974 pbc="T T T"
Ni       0.01022020      -0.00829067       0.14501111        1       1.00000000       0.07085982      -0.01028174      -0.10118369
Ni       2.55100686       0.00961257       0.16754912        2       1.00000000      -0.03924273       0.05835575      -0.12215466
Pt       5.15427080      -0.03684816       0.09947758        1       0.00000000      -0.03833274       0.21280742      -0.90122642
Ni       7.76613681      -0.05135630       0.13822754        1       1.00000000      -0.05083799      -0.10299407      -0.14910402
Ni       1.29794845       2.22854081       0.05812260        1       1.00000000      -0.00321922       0.04083898       0.42165368
Pt       3.79268120       2.27848908       0.14472964        1       0.00000000       0.07100443      -0.00245573      -0.45736538
Pt       6.45771481       2.23600115       0.06822731        1       0.00000000       0.03137489      -0.00687482      -0.04573508
Pt       9.12870541       2.22802549       0.07064396        1       0.00000000       0.00576054       0.10895780      -0.40050144
Ni       2.57624862       4.47809330       0.01485959        0       1.00000000       0.10299474       0.02163324       0.30718519
Ni       5.12811078       4.47940770       0.12506543        1       1.00000000      -0.10594723       0.12658301       0.12587666
Pt       7.79166681       4.50447489       0.04428154        0       0.00000000       0.00270399       0.02503365       0.03528770
Ni      10.37565407       4.47672458       0.01042191        0       1.00000000       0.07779303      -0.01775211       0.27921435
Ni       3.84211890       6.66078844       0.04526418        0       1.00000000      -0.01167986      -0.05696965       0.48648272
Pt       6.41755614       6.71846088       0.12325519        1       0.00000000      -0.10634948       0.02737949      -0.42411016
Ni       9.05507244       6.66118756       0.01126375        0       1.00000000      -0.06459454       0.01667932       0.13098116
Ni      11.65599663       6.64032727       0.00000000        0       1.00000000       0.08971567       0.06063546       0.25381585
Ni       1.30176344       0.75258437       2.13159392        3       1.00000000      -0.01615393       0.10949628      -0.04500583
Ni       3.85175317       0.76210504       2.18797384        4       1.00000000       0.06118621       0.01127504       0.22363188
Ni       6.45302101       0.78047975       2.20707481        4       1.00000000      -0.04566971       0.19657976       0.26279391
Pt       9.04305580       0.73605845       2.20818463        4       0.00000000      -0.00196691       0.09836539       0.05275933
Ni       2.57481627       2.96372838       2.19157949        4       1.00000000       0.04853895       0.05937803       0.07545475
Ni       5.15077926       2.98220640       2.20555546        4       1.00000000      -0.07848572       0.03671831       0.20129548
Ni       7.74938824       2.98545226       2.20719619        4       1.00000000       0.06932622       0.02872191       0.18745134
Ni      10.34856239       2.96611763       2.20551644        4       1.00000000       0.03333409      -0.04854667       0.21636650
Ni       3.90831320       5.17583079       2.16554110        4       1.00000000       0.11165654      -0.06533147       0.13800665
Ni       6.43831833       5.18172606       2.18795735        4       1.00000000      -0.05148456       0.00552490       0.17370116
Ni       9.01109074       5.15593874       2.17910602        4       1.00000000      -0.09174294      -0.23598218       0.21233936
Pt      11.67936358       5.12046191       2.12180631        3       0.00000000       0.13556970      -0.12080416       0.07645780
Ni       5.14113135       7.36288074       2.14459955        3       1.00000000      -0.19239764      -0.20615146       0.07635466
Ni       7.73961107       7.39666035       2.13389362        3       1.00000000       0.04180883      -0.10143912       0.03871109
Pt      10.30916322       7.35042199       2.12145468        3       0.00000000      -0.01075828      -0.22500222      -0.28770768
Ni      12.94326752       7.37643814       2.09512435        3       1.00000000       0.07425126      -0.13718620      -0.01692578
Ni      -0.00432959       1.52563579       4.31258283        6       1.00000000      -0.01637588       0.06746448      -0.19045048
Pt       2.54096082       1.56658795       4.23035868        5       0.00000000      -0.00934343      -0.01329013      -0.02675056
Ni       5.17822433       1.50960543       4.29484420        6       1.00000000      -0.04586393       0.07518728      -0.35757284
Ni       7.74151766       1.50401324       4.30707077        6       1.00000000      -0.01833503      -0.04618235      -0.29469778
Ni       1.29048812       3.68618028       4.35555598        7       1.00000000       0.00784321      -0.01520792      -0.04076577
Ni       3.85920262       3.74680962       4.27919483        6       1.00000000      -0.02459342       0.09420025      -0.30473519
Pt       6.47064618       3.69220061       4.25804055        6       0.00000000      -0.05951211       0.03337521      -0.03446155
Ni       9.04003297       3.68453135       4.27598123        6       1.00000000       0.00119202      -0.10575303      -0.41965453
Ni       2.61315976       5.84839158       4.34758830        6       1.00000000       0.05174894      -0.19078933      -0.05215564
Ni       5.13438776       5.87006800       4.27129621        6       1.00000000      -0.02950322      -0.14959606      -0.35276918
Ni       7.75398188       5.86546218       4.28581759        6       1.00000000      -0.02199498      -0.07867941      -0.33754538
Pt      10.32852432       5.81070853       4.38233545        7       0.00000000       0.07504932       0.00483534      -0.00011595
Pt       3.88169085       8.07043837       4.27863936        6       0.00000000       0.03330271      -0.14632521       0.06324404
Pt       6.43734686       8.10726919       4.17546228        5       0.00000000      -0.08198877       0.01492564      -0.24206642
Pt       9.00856500       8.12935280       4.25563739        6       0.00000000      -0.08113341       0.03897134      -0.06483472
Pt      11.65543557       8.15032882       4.22750857        5       0.00000000       0.04028742      -0.04937212      -0.09926066
Pt      -0.00261341       0.00100241       6.55873614       10       0.00000000      -0.00926178       0.21527074       0.23491039
Pt       2.57462113      -0.01221537       6.58234890       10       0.00000000       0.07497310       0.04350526       0.38458169
Pt       5.17307475      -0.04714048       6.45715884        9       0.00000000      -0.03494030       0.17093950       1.04610274
Pt       7.73483525      -0.04482862       6.56480106       10       0.00000000       0.03165240       0.20527236       0.32093897
Ni       1.27593218       2.27346303       6.48198125        9       1.00000000      -0.06890554       0.16204306      -0.29363958
Pt       3.83772429       2.26520384       6.43166996        8       0.00000000       0.07931242       0.02343396       0.46780037
Ni       6.46759496       2.22689881       6.40866784        8       1.00000000      -0.02150234      -0.01356949       0.02000860
Pt       9.04125271       2.31462533       6.37221038        8       0.00000000       0.00521158      -0.04662935       0.48429594
Ni       2.52674010       4.46240246       6.46425144        9       1.00000000      -0.07255750       0.00269737      -0.41613826
Pt       5.12781577       4.44687679       6.49098558        9       0.00000000      -0.04715722       0.02889856      -0.02432944
Ni       7.77907409       4.44149497       6.39744503        8       1.00000000       0.03256024       0.10478189      -0.07387060
Ni      10.35614104       4.44822625       6.48590526        9       1.00000000       0.05210362      -0.08356711      -0.21020045
Ni       3.82600081       6.60735995       6.47473436        9       1.00000000      -0.07392767      -0.06096088      -0.26312537
Pt       6.49300904       6.59704750       6.41012965        8       0.00000000       0.05431019      -0.10543381       0.40236904
Ni       9.06625728       6.58492744       6.48303313        9       1.00000000       0.00181043      -0.09621231      -0.12688314
Ni      11.63284454       6.58936310       6.48734140        9       1.00000000       0.05652350       0.00857410      -0.22302937
