64
Lattice="10.355120673050981 -0.000959137465913781 0.031548697479977184 5.176729699114288 8.909212358428046 0.001877013567341165 0.0 0.0 21.596953253897745" Properties=species:S:1:pos:R:3:tags:I:1:initial_magmoms:R:1:forces:R:3 unique_id=c20e9b3cccef4e8996662b061d998e00 stress="0.005670805654077623 0.00016538246153340364 0.00030794863596627443 0.00016538246153340364 0.005752275193377383 8.317955509038518e-05 0.00030794863596627443 8.317955509038518e-05 -0.0018459921113942717" energy=-376.43984139678486 pbc="T T T"
Ni       0.00495220       0.02240053       0.11804466        1       1.00000000       0.11041344      -0.01105095      -0.14351464
Ni       2.58966033       0.00614375       0.15670387        2       1.00000000      -0.01689107       0.03633041      -0.04974167
Ni       5.17784675      -0.01139933       0.12107817        1       1.00000000      -0.00315109       0.19383251      -0.28754210
Ni       7.77555685      -0.04197805       0.14833131        1       1.00000000      -0.09368114      -0.10981562      -0.17935411
Ni       1.26670551       2.23311541       0.04658613        0       1.00000000      -0.07037365       0.01572358       0.49770432
Pt       3.82400700       2.23275557       0.14262199        1       0.00000000       0.01604573      -0.01079655      -0.47217555
Pt       6.50158061       2.17949024       0.15453085        2       0.00000000       0.03910409      -0.07171780      -0.45158702
Ni       9.10589785       2.22880335       0.11097059        1       1.00000000       0.08425013       0.10976376      -0.02596162
Ni       2.56931741       4.47137975       0.00000000        0       1.00000000      -0.04077780      -0.05268771       0.19513502
Ni       5.17398482       4.46018296       0.11107222        1       1.00000000       0.17051783      -0.07873461      -0.28902785
Pt       7.84912057       4.46543944       0.06696124        1       0.00000000       0.03602599      -0.00243931       0.01722740
Ni      10.38517325       4.44625338       0.03581134        0       1.00000000       0.03963160      -0.09455213       0.27119980
Ni       3.85037664       6.69724654       0.02977606        0       1.00000000      -0.02003148       0.12776504       0.32368293
Pt       6.45428266       6.73135480       0.14702353        1       0.00000000      -0.01718498       0.03186093      -0.58607929
Ni       9.08626584       6.69535760       0.03643612        0       1.00000000      -0.08063015      -0.01810325       0.17015625
Ni      11.66854969       6.68091361       0.02678943        0       1.00000000       0.10593577       0.01781538       0.25886982
Ni       1.30948160       0.76380180       2.11315439        3       1.00000000       0.00551688       0.15573919      -0.07447805
Ni       3.87962055       0.75076358       2.17163572        4       1.00000000       0.02532520       0.02144367       0.20299000
Ni       6.47153016       0.75352528       2.20942757        4       1.00000000      -0.03273447       0.13097350       0.29799113
Pt       9.07384292       0.78393550       2.15302219        4       0.00000000      -0.01371253       0.13722313       0.12404155
Ni       2.56262965       2.95109089       2.17196161        4       1.00000000      -0.13755313       0.01770361       0.01971722
Ni       5.18363137       2.94446773       2.21140289        4       1.00000000      -0.07167533      -0.10418590       0.26909508
Ni       7.80268700       2.98094178       2.20734709        4       1.00000000       0.18700639       0.06287525       0.17236146
Ni      10.36003303       2.95613711       2.18511332        4       1.00000000       0.02183850      -0.01173478       0.08112148
Pt       3.89959673       5.17590476       2.11391312        3       0.00000000      -0.02359303      -0.06262796      -0.05893308
Ni       6.51484443       5.18526580       2.17654437        4       1.00000000       0.12284305      -0.05131995       0.14775340
Ni       9.04209913       5.17238509       2.20404990        4       1.00000000      -0.05370255      -0.11404355       0.22871290
Pt      11.63317627       5.12885961       2.14584288        3       0.00000000      -0.08320820      -0.08865271       0.04444065
Ni       5.17330007       7.43957509       2.14554164        3       1.00000000      -0.13114723       0.02855672       0.01901448
Ni       7.77355777       7.42004556       2.16157706        4       1.00000000       0.06690149      -0.04351000       0.08364544
Pt      10.33841345       7.43292428       2.08005961        3       0.00000000       0.00356305      -0.12395223      -0.09162964
Ni      12.95875557       7.42054794       2.14205854        3       1.00000000       0.00898513      -0.03203146      -0.03300923
Ni       0.00241888       1.55034074       4.30229742        6       1.00000000      -0.04958867       0.14992354      -0.21540146
Pt       2.55912637       1.57894608       4.22372085        5       0.00000000      -0.04801710       0.02690283      -0.02919567
Ni       5.19220857       1.50152335       4.29084608        6       1.00000000      -0.04537676       0.05784285      -0.35313082
Ni       7.80683080       1.50158588       4.31059376        6       1.00000000       0.08385335       0.00136917      -0.26948563
Ni       1.29906689       3.70140012       4.35341821        7       1.00000000      -0.04235249      -0.01269305      -0.05409053
Ni       3.86578066       3.72164677       4.30645618        6       1.00000000      -0.03489657       0.00152722      -0.25997619
Pt       6.53912499       3.68168754       4.23105171        5       0.00000000       0.00895010      -0.05709385      -0.03784403
Ni       9.08850452       3.68402433       4.31846871        6       1.00000000       0.05130204      -0.15162406      -0.34076144
Ni       2.58394710       5.88306627       4.37147451        7       1.00000000      -0.02711233      -0.13966171      -0.04231424
Pt       5.16112125       5.89575448       4.27734638        6       0.00000000      -0.00499306      -0.05414799      -0.08476704
Ni       7.80664633       5.88844294       4.31477818        6       1.00000000       0.02232363      -0.06067887      -0.33504880
Pt      10.36017781       5.82830516       4.41793586        7       0.00000000       0.01842310      -0.00269288      -0.04771128
Pt       3.88194608       8.17029995       4.27819761        6       0.00000000      -0.06009961       0.05373160       0.01013341
Pt       6.47942074       8.18228796       4.20606293        5       0.00000000      -0.07157613       0.12315771      -0.24279882
Pt       9.05907907       8.15114210       4.29386022        6       0.00000000      -0.08821856       0.05734526      -0.04860364
Pt      11.67456167       8.17157598       4.28539159        6       0.00000000       0.00598619       0.00078865      -0.06620501
Pt       0.02281418       0.00576088       6.54965897        9       0.00000000       0.05358337       0.08531994       0.23022223
Pt       2.59877665      -0.00552493       6.58354079       10       0.00000000       0.00199682      -0.00338644       0.34146917
Pt       5.18919077      -0.09928065       6.57141362       10       0.00000000       0.01059014       0.11529183       0.43810087
Pt       7.78721197      -0.08947413       6.59695325       10       0.00000000      -0.01406301       0.13195250       0.32992692
Ni       1.29969075       2.28681602       6.48389105        9       1.00000000      -0.00506148       0.12393456      -0.29818497
Pt       3.82996777       2.27517582       6.44155192        8       0.00000000       0.15245417       0.00319210       0.49805535
Pt       6.51494902       2.22830032       6.44676626        8       0.00000000      -0.07447983      -0.09619066       0.59843710
Pt       9.14588144       2.32149636       6.49578017        9       0.00000000      -0.06390727      -0.03957755      -0.02208624
Ni       2.54065309       4.48139473       6.47253905        9       1.00000000      -0.11322719       0.01064026      -0.36724242
Pt       5.12723973       4.47971603       6.54535190        9       0.00000000      -0.06868297      -0.11687481       0.26534825
Ni       7.83303100       4.47016707       6.42777551        8       1.00000000       0.07447898       0.07636758      -0.05198750
Ni      10.40519502       4.46070689       6.52470773        9       1.00000000       0.09029472      -0.01889878      -0.22168802
Ni       3.84923596       6.63590184       6.50107853        9       1.00000000      -0.07008307      -0.03281136      -0.21826613
Pt       6.54298699       6.62426505       6.46295646        9       0.00000000       0.13352141      -0.03741379       0.51544521
Ni       9.10489515       6.60038372       6.52116737        9       1.00000000      -0.01707982      -0.13760077      -0.10319864
Ni      11.67739451       6.59499985       6.52802355        9       1.00000000       0.03720142      -0.06359124      -0.19897645
