64
Lattice="10.599156579760129 -0.009580374921834951 0.036532056344279154 5.291281441819978 9.135769493855456 -0.035229311736051254 0.0 0.0 21.7634897414429" Properties=species:S:1:pos:R:3:tags:I:1:initial_magmoms:R:1:forces:R:3 unique_id=249c32b6b2544db59cd633642d208210 stress="0.0035389299794528588 -5.721350520753255e-05 0.00013370869890066067 -5.721350520753255e-05 0.0030826638727724127 3.961376300095558e-05 0.00013370869890066067 3.961376300095558e-05 -0.0036183525980010445" energy=-392.3363860296043 pbc="T T T"
Pt       0.00980800       0.06616458       0.12519023        1       0.00000000      -0.02565624       0.14896421      -0.31221920
Pt       2.59572926      -0.01351879       0.13727362        1       0.00000000      -0.14263168      -0.05169797      -0.46778208
Pt       5.29635397      -0.01412065       0.10499785        1       0.00000000      -0.06512382      -0.15318123      -0.59594271
Pt       7.99756808       0.02271051       0.11288142        1       0.00000000       0.15233665      -0.09519708      -0.39033105
Ni       1.32592115       2.28414013       0.10265606        1       1.00000000       0.09729951      -0.08759638       0.11619251
Pt       3.90148505       2.34427164       0.12590286        1       0.00000000      -0.02851426       0.09431015      -0.36822376
Pt       6.64063951       2.29370788       0.00000000        0       0.00000000      -0.21377134       0.10458457       0.05509102
Ni       9.28677761       2.27501599       0.03807270        0       1.00000000      -0.02194415      -0.02107858       0.33767932
Ni       2.64790122       4.55065330       0.02457082        0       1.00000000      -0.00107752      -0.00562657       0.37940804
Pt       5.29283412       4.58259159       0.05304404        1       0.00000000       0.07006894      -0.03124552       0.25063417
Pt       7.94375802       4.57294505       0.02668787        0       0.00000000       0.09251084       0.08844975       0.15398515
Pt      10.61907679       4.47756221       0.09919040        1       0.00000000      -0.14699958       0.08363487      -0.46743347
Pt       3.98616467       6.80798964       0.06400573        1       0.00000000       0.00530008       0.04458617      -0.28572517
Ni       6.62756129       6.84241193       0.09132319        1       1.00000000       0.00493334       0.02071930       0.02202405
Pt       9.23238228       6.82722696       0.15530348        2       0.00000000       0.11381715      -0.03207521      -0.38633979
Pt      11.93666802       6.80618307       0.08630492        1       0.00000000      -0.11142240       0.09266061      -0.40741873
Ni       1.32912984       0.75541811       2.23972629        3       1.00000000       0.05666953       0.02403180       0.36992980
Pt       3.93772455       0.76069851       2.27155544        4       0.00000000      -0.00238304       0.04624230       0.23308465
Pt       6.62666713       0.73279485       2.31251711        4       0.00000000      -0.04731183       0.02006084       0.25455024
Ni       9.29440391       0.73886186       2.29153013        4       1.00000000      -0.04185920      -0.01954042       0.33571162
Ni       2.66034481       3.05282954       2.22144661        3       1.00000000      -0.02170269       0.05004847       0.24332195
Ni       5.29702616       3.07663861       2.25269537        4       1.00000000       0.06492455       0.08841371       0.24906443
Pt       7.92473191       3.07967860       2.27800301        4       0.00000000      -0.04371548       0.03030758       0.12431621
Pt      10.62367056       2.94590804       2.22788569        3       0.00000000      -0.07799168      -0.16635349       0.11025716
Ni       3.99118408       5.27365405       2.23288668        3       1.00000000       0.06230413      -0.12665901       0.17124468
Ni       6.62468547       5.31463835       2.22843203        3       1.00000000      -0.03353453      -0.01103917       0.17180815
Ni       9.26120556       5.33207553       2.25050862        4       1.00000000       0.03834466      -0.03669033       0.33272460
Pt      11.98993772       5.27686665       2.26034327        4       0.00000000       0.22883763      -0.14304790       0.13095909
Pt       5.34970779       7.58251310       2.21407769        3       0.00000000       0.11858806      -0.08299117       0.13561091
Ni       7.94309811       7.56528657       2.22615628        3       1.00000000      -0.03235003      -0.09541308       0.34889007
Ni      10.58795581       7.57603929       2.24447266        3       1.00000000       0.02349656      -0.08223759       0.34794756
Pt      13.27469847       7.58763822       2.37823296        5       0.00000000       0.08951115      -0.02668634       0.47324834
Pt      -0.02742211       1.47380161       4.42115595        6       0.00000000      -0.07133432       0.06554030      -0.23312129
Pt       2.64763574       1.51955607       4.43149824        6       0.00000000      -0.00491545       0.05490807      -0.26681507
Pt       5.35706164       1.55296216       4.47903141        7       0.00000000       0.03793399       0.12732907      -0.30117670
Pt       7.96132079       1.47830378       4.49819574        7       0.00000000      -0.01056790       0.06030258      -0.19474552
Pt       1.38311333       3.82496450       4.45638228        7       0.00000000       0.03443537       0.16005849      -0.17226067
Pt       4.01476814       3.83046554       4.40915100        6       0.00000000      -0.03772324       0.12256092      -0.27968560
Ni       6.62455922       3.78275715       4.51123982        7       1.00000000      -0.04395442       0.05386271      -0.15889753
Pt       9.24019440       3.77527213       4.50463114        7       0.00000000       0.01921962      -0.05074627      -0.22046555
Ni       2.67521574       6.09183535       4.44016965        6       1.00000000       0.04360334      -0.00867188      -0.29200813
Pt       5.28511911       6.03932703       4.38985635        6       0.00000000       0.07513479       0.04985236      -0.30155189
Pt       7.92294706       6.01446681       4.36852413        6       0.00000000      -0.07474385      -0.01845424      -0.36792500
Pt      10.64437648       6.09258311       4.39068673        6       0.00000000       0.01937653       0.01120140      -0.43968103
Ni       3.94727617       8.32865387       4.44361655        6       1.00000000      -0.02813561      -0.05114882      -0.29802451
Pt       6.61401387       8.33249200       4.38684541        6       0.00000000      -0.01869746      -0.11817955      -0.30195834
Pt       9.32063543       8.33040359       4.37498050        6       0.00000000       0.03621189       0.04589277      -0.35940433
Ni      11.96762667       8.32711836       4.46603183        7       1.00000000       0.04552292       0.00918915      -0.34075710
Pt      -0.01657092      -0.01635484       6.67375316        9       0.00000000      -0.13490438      -0.20120682       0.41524554
Pt       2.66435728      -0.03150362       6.69873081        9       0.00000000       0.00675725       0.03252170       0.57339841
Pt       5.35096021      -0.00603942       6.66625923        9       0.00000000       0.13720106      -0.02617112       0.53623313
Pt       7.97490008       0.01639424       6.66374300        9       0.00000000      -0.04320898      -0.16259895       0.47732411
Pt       1.33081984       2.28839504       6.76348974       10       0.00000000       0.06444000      -0.00291198       0.12845714
Pt       4.03976611       2.35248900       6.69581573        9       0.00000000       0.04188767       0.06680860       0.39337866
Ni       6.66976580       2.29782950       6.64906415        8       1.00000000       0.03359093       0.20872266      -0.14213751
Ni       9.25422735       2.26212350       6.73858273        9       1.00000000      -0.02545867       0.06885085      -0.35456686
Ni       2.67701588       4.53432390       6.69851042        9       1.00000000      -0.02842869      -0.00132670      -0.32141616
Ni       5.33572751       4.51778319       6.64534281        8       1.00000000       0.16341521      -0.08443751      -0.30633520
Ni       7.93045300       4.47793508       6.65590021        9       1.00000000      -0.14887559      -0.06430055      -0.21384923
Pt      10.57133368       4.49151102       6.69576709        9       0.00000000      -0.16143897       0.01414213       0.64100755
Pt       3.97926353       6.73899106       6.60720804        8       0.00000000       0.00885131       0.06661014       0.31745699
Pt       6.62327063       6.71700333       6.74563622        9       0.00000000      -0.03943792      -0.10243016       0.00179978
Pt       9.26651669       6.76982568       6.68365455        9       0.00000000      -0.05914105      -0.08047008       0.31409509
Pt      11.96446818       6.77801083       6.62929907        8       0.00000000       0.00243128       0.08604341       0.40211906
