64
Lattice="10.172813481278077 -0.000640693830039892 -0.005904927344154355 5.0858518835062325 8.733758719258732 -0.09364647926963678 0.0 0.0 21.4986548972133" Properties=species:S:1:pos:R:3:tags:I:1:initial_magmoms:R:1:forces:R:3 unique_id=7a1e594a0c454dc4a7b4853a88fce409 energy=-369.12421094239176 stress="0.002410248731031109 -7.32946640189556e-05 4.5041111026329316e-05 -7.32946640189556e-05 0.0017920563637927739 -0.000537762819080749 4.5041111026329316e-05 -0.000537762819080749 -0.0049843688128663275" pbc="T T T"
Ni       0.04052109      -0.05602499       0.18777108        2       1.00000000       0.08722531      -0.00447828      -0.51517825
Ni       2.49491470      -0.03853881       0.18412290        2       1.00000000       0.04247564      -0.01450422      -0.16769890
Pt       5.10561623      -0.04269027       0.14791303        1       0.00000000      -0.11773925       0.15836393      -1.03083187
Ni       7.63920225      -0.06267010       0.16514810        2       1.00000000      -0.06774104      -0.09536623      -0.50618500
Ni       1.26345040       2.19114553       0.09846655        1       1.00000000      -0.04132003       0.00486256       0.24552898
Pt       3.76558005       2.23879467       0.16310142        2       0.00000000       0.00565070      -0.05793122      -0.73266736
Ni       6.36097374       2.22227331       0.08663352        1       1.00000000      -0.04812572      -0.00132025       0.12448899
Pt       8.90634120       2.23018774       0.10589275        1       0.00000000       0.04068418       0.17019931      -0.98848851
Ni       2.51283586       4.40267661       0.04952429        0       1.00000000       0.04406046      -0.00539755       0.37213264
Ni       5.08093082       4.39679799       0.01325983        0       1.00000000      -0.13215756       0.00630264       0.13567997
Ni       7.61809434       4.39153846       0.02320147        0       1.00000000       0.11935153      -0.00848752       0.06739295
Ni      10.20734229       4.39477629       0.05321942        1       1.00000000      -0.03860919      -0.00770896       0.32095915
Ni       3.81528987       6.51985716       0.02854319        0       1.00000000       0.03078589      -0.00846106       0.29617339
Ni       6.34509909       6.55373519       0.00000000        0       1.00000000       0.00233615       0.07477974       0.19846908
Ni       8.86331784       6.48541503       0.09652317        1       1.00000000      -0.10048543      -0.02897404      -0.16340017
Ni      11.47900061       6.48408961       0.00813617        0       1.00000000       0.01034273       0.03201443       0.24522663
Ni       1.31717570       0.70663403       2.15256209        4       1.00000000      -0.00333529       0.08683950       0.10257639
Ni       3.74288251       0.69947798       2.18227107        4       1.00000000      -0.11847493      -0.08884976       0.20103700
Ni       6.37566982       0.73136881       2.16551545        4       1.00000000       0.01848974       0.04210077       0.08876473
Pt       8.88793827       0.68199674       2.15739227        4       0.00000000       0.04111333      -0.14244619       0.17916273
Ni       2.50494791       2.92094249       2.21154244        4       1.00000000      -0.01893448       0.01429241       0.14276528
Ni       5.07731719       2.91245982       2.14842542        3       1.00000000       0.00629592       0.03564812       0.09163797
Ni       7.62216677       2.90485607       2.17140622        4       1.00000000      -0.02298283       0.01361419       0.15998624
Ni      10.22166686       2.95474417       2.15368561        4       1.00000000       0.08216264       0.03932086       0.11796924
Ni       3.77223703       5.06455962       2.11903995        3       1.00000000      -0.02396682      -0.06452824       0.05692307
Pt       6.35434818       5.10859417       2.08025176        3       0.00000000       0.01722507      -0.02300802      -0.02077952
Ni       8.91487699       5.02341654       2.12352975        3       1.00000000       0.01009743      -0.10168614       0.08467199
Ni      11.47142648       5.03018701       2.12510984        3       1.00000000       0.02584258      -0.04367205       0.14233941
Ni       5.10105150       7.23886337       2.06309786        3       1.00000000      -0.04160422       0.00206253       0.07677065
Ni       7.60873116       7.28519641       2.10414964        3       1.00000000      -0.00347785       0.01168729       0.12570346
Pt      10.17228289       7.18434522       2.16649604        4       0.00000000       0.02960503      -0.15184754       0.13377404
Ni      12.71259202       7.17387556       2.05481217        3       1.00000000       0.01652930      -0.12021348       0.07126649
Pt       0.09130318       1.47217102       4.24454007        5       0.00000000       0.13237111      -0.08097108       0.00050010
Ni       2.55103113       1.43003771       4.22236753        5       1.00000000       0.06422127      -0.03142751      -0.20772503
Pt       5.06689000       1.39362141       4.16754501        5       0.00000000       0.06216725      -0.05189118      -0.17219748
Ni       7.61600290       1.41066527       4.26320962        6       1.00000000      -0.00856536      -0.09307776      -0.19920330
Ni       1.30148906       3.65574437       4.26171342        6       1.00000000       0.06367176       0.00222214      -0.10346213
Ni       3.76062271       3.67229124       4.21065727        5       1.00000000      -0.00991766       0.07144705      -0.16699039
Pt       6.38251339       3.64203432       4.29566628        6       0.00000000       0.03140731      -0.00134716       0.03116845
Ni       8.93573402       3.68528971       4.20866976        5       1.00000000       0.06818134       0.10032581      -0.16059276
Ni       2.51093084       5.72279393       4.23725234        5       1.00000000      -0.03969676      -0.01130640      -0.16159969
Ni       5.07578713       5.76114071       4.26393444        6       1.00000000       0.02777775      -0.01792044      -0.10052588
Ni       7.64294849       5.81350319       4.21135828        5       1.00000000       0.06683423       0.06430585      -0.12829383
Ni      10.19985238       5.73519313       4.23726564        5       1.00000000       0.03861292       0.02916112      -0.07169469
Pt       3.80486660       7.84874608       4.17471105        5       0.00000000       0.06071039       0.04132744      -0.02686014
Ni       6.39329087       7.91104204       4.15134136        5       1.00000000       0.01750759      -0.02557248      -0.15838118
Ni       8.84778274       7.92093487       4.17344938        5       1.00000000      -0.11023778       0.01917435      -0.20250186
Ni      11.45030267       7.88875625       4.18545127        5       1.00000000       0.03613520      -0.12424735      -0.12980088
Pt       0.00857224      -0.11744787       6.49865490        9       0.00000000      -0.19062072       0.09640480       0.32894162
Pt       2.52041807      -0.05752936       6.41334907        8       0.00000000       0.25509554       0.06348486       0.10684112
Pt       5.09576742      -0.07862634       6.32716010        7       0.00000000      -0.22120208      -0.11011740       1.03946693
Pt       7.61456486      -0.10288437       6.46233470        9       0.00000000       0.09206437       0.16586246       0.38954232
Ni       1.27321771       2.20448755       6.40099957        8       1.00000000       0.03454544       0.07084780      -0.01360053
Pt       3.78872599       2.27818783       6.32571407        7       0.00000000      -0.15366968      -0.01847667       0.64720982
Ni       6.34384015       2.18238257       6.40296452        8       1.00000000       0.00958150      -0.00237119       0.04437146
Pt       8.88009688       2.25592142       6.30370132        7       0.00000000      -0.14829339      -0.11476636       1.02713925
Ni       2.51099038       4.37814046       6.34540284        7       1.00000000       0.06257018      -0.04465830      -0.29617825
Ni       5.08641913       4.38346574       6.37478828        8       1.00000000      -0.11448147       0.00243948      -0.09586085
Ni       7.56504799       4.33239128       6.38916261        8       1.00000000      -0.01536808      -0.01421588       0.05265665
Ni      10.25183733       4.31749385       6.34656799        7       1.00000000       0.05023632      -0.01955910      -0.25438503
Ni       3.80687734       6.39647729       6.35287607        8       1.00000000      -0.00737997       0.01289197      -0.22474292
Ni       6.32802976       6.42559185       6.32585514        7       1.00000000      -0.01743399       0.08702900      -0.21232485
Pt       8.89797786       6.36400536       6.35185977        8       0.00000000       0.02607211       0.13361154      -0.03080939
Ni      11.47611095       6.41879222       6.31923436        7       1.00000000      -0.01421563       0.07818303      -0.20627756
