64
Lattice="10.222013291071548 -0.03116740192004413 0.011726057806534263 5.084014883703055 8.791487181006833 -0.005314550099956403 0.0 0.0 21.441972329760716" Properties=species:S:1:pos:R:3:tags:I:1:initial_magmoms:R:1:forces:R:3 unique_id=6dde286a8999404e90ad84358b9ea8fc stress="0.005435376874771835 -4.020482245534395e-05 8.365672641213252e-06 -4.020482245534395e-05 0.0047011245094778185 8.863419198589213e-05 8.365672641213252e-06 8.863419198589213e-05 -0.0021654833826926997" energy=-371.31319232734637 pbc="T T T"
Ni       0.00811674       0.00981254       0.10910605        1       1.00000000       0.10292024      -0.04500155      -0.29896927
Ni       2.54875947      -0.01188982       0.14705621        1       1.00000000      -0.02642888      -0.01300298      -0.18557618
Ni       5.11193186      -0.02737069       0.09836187        1       1.00000000       0.00631576       0.19063359      -0.34885405
Ni       7.66610629      -0.06350166       0.11530765        1       1.00000000      -0.12799965      -0.08104565      -0.31567900
Ni       1.23545315       2.20795980       0.13030033        1       1.00000000      -0.05344753       0.05170446      -0.06045378
Pt       3.77845621       2.20755149       0.11848342        1       0.00000000       0.00012125      -0.00889296      -0.61814108
Pt       6.43656692       2.19552101       0.04509666        0       0.00000000       0.04266404      -0.07342450      -0.04868136
Ni       8.97521785       2.20759715       0.09318413        1       1.00000000       0.01454175       0.16586802      -0.18091061
Ni       2.53788787       4.42612769       0.00529061        0       1.00000000       0.01676137      -0.02717294       0.19819443
Ni       5.08088013       4.40895386       0.03796216        0       1.00000000      -0.05243279      -0.02364618       0.24310648
Ni       7.69232800       4.38788030       0.04686824        0       1.00000000       0.11999398       0.04455232       0.28507942
Ni      10.19826342       4.36512708       0.02450506        0       1.00000000      -0.06139245      -0.01809026       0.31333246
Ni       3.78283983       6.58540039       0.03291292        0       1.00000000      -0.02001746       0.01820985       0.28880276
Pt       6.36224578       6.57763998       0.03559006        0       0.00000000       0.02070551       0.08336458      -0.03484050
Ni       8.93070469       6.55709160       0.09713905        1       1.00000000      -0.11189352      -0.13158840      -0.27248532
Ni      11.50135455       6.56390377       0.00000000        0       1.00000000       0.05402865      -0.01128900       0.14629382
Ni       1.28334671       0.72312212       2.09500632        2       1.00000000       0.00307166      -0.02812415       0.12106905
Ni       3.83173002       0.72439916       2.12492783        2       1.00000000       0.06843528      -0.01292885       0.12750341
Ni       6.38100037       0.73526040       2.16233557        3       1.00000000      -0.02669881       0.13536020       0.29009927
Pt       8.94755291       0.74871605       2.10402862        2       0.00000000      -0.03341254       0.13785471       0.01564202
Ni       2.53703562       2.94068986       2.13436888        2       1.00000000       0.02953239       0.07767061       0.05511510
Ni       5.10435775       2.93720826       2.16284844        3       1.00000000      -0.05038359       0.01674020       0.12821217
Ni       7.67998895       2.95014482       2.13715481        2       1.00000000       0.07114193       0.10783609       0.10410382
Ni      10.20905316       2.90971295       2.13579720        2       1.00000000       0.00395044       0.06521395       0.22092921
Ni       3.84220856       5.11315344       2.08965770        2       1.00000000       0.07375823      -0.06178604      -0.08021162
Ni       6.39031775       5.09991669       2.11003818        2       1.00000000       0.06627637      -0.05500469      -0.01078516
Ni       8.89538155       5.07329616       2.12696396        2       1.00000000      -0.02242939      -0.06912305       0.12363612
Pt      11.51103155       5.05199007       2.13042343        2       0.00000000       0.03342452      -0.03493775       0.04209855
Ni       5.09741420       7.30567617       2.10683851        2       1.00000000       0.00738364      -0.05283452       0.05261489
Ni       7.61281733       7.30391817       2.12681487        2       1.00000000      -0.09662593      -0.08809069       0.19996480
Pt      10.22296960       7.30939950       2.07800491        2       0.00000000       0.04254630      -0.04501344       0.04408147
Ni      12.77491760       7.27817327       2.09482878        2       1.00000000       0.10193283      -0.07624914      -0.00041842
Ni      -0.01687628       1.50538103       4.22499151        5       1.00000000      -0.06216670       0.10027696      -0.13464951
Pt       2.51848561       1.50442520       4.13668204        4       0.00000000      -0.07847825       0.01216932       0.05909559
Ni       5.15255528       1.44141508       4.20442930        5       1.00000000       0.00588938      -0.11478109      -0.30341806
Ni       7.65123388       1.44154077       4.23748206        5       1.00000000       0.02455228      -0.07268726      -0.18342381
Ni       1.24861581       3.70926279       4.25031656        6       1.00000000      -0.04934091      -0.02700628      -0.05067811
Ni       3.79771160       3.69554002       4.20639843        5       1.00000000      -0.12253474       0.00678025      -0.30158668
Pt       6.42222408       3.60866426       4.23195922        5       0.00000000       0.03021800      -0.05977484      -0.04567440
Ni       8.97292749       3.66862366       4.22254793        5       1.00000000       0.11545704       0.03751794      -0.21946401
Ni       2.50354316       5.82600505       4.28168174        6       1.00000000      -0.06584868      -0.03469285      -0.10018717
Pt       5.09241626       5.83026459       4.23325499        5       0.00000000       0.00729578      -0.01559187      -0.16319568
Ni       7.67031727       5.81126092       4.22474184        5       1.00000000       0.07246600      -0.07215699      -0.30297563
Ni      10.23726264       5.78397552       4.27086582        6       1.00000000       0.00940717      -0.00624931      -0.12469741
Pt       3.77470504       8.04273880       4.18159996        5       0.00000000      -0.03763593       0.00330889       0.07646522
Ni       6.36652719       8.03406141       4.19992571        5       1.00000000      -0.06487747       0.03280363      -0.29766725
Pt       8.91908494       7.99888410       4.18823514        5       0.00000000      -0.05260089      -0.01960992       0.00496742
Ni      11.48326701       8.01210749       4.22663585        5       1.00000000      -0.05873973      -0.06426027      -0.19327076
Pt       0.00051168      -0.07827232       6.41979812        8       0.00000000       0.07060853       0.10530946       0.29538862
Pt       2.55182739      -0.05536274       6.44197233        8       0.00000000      -0.00397194       0.02016794       0.43251019
Pt       5.14382893      -0.03230631       6.40842023        8       0.00000000       0.03984942       0.06294380       0.36584078
Pt       7.65746878      -0.08515580       6.43152244        8       0.00000000      -0.07169096       0.04409357       0.32772706
Pt       1.26852337       2.30293543       6.41041761        8       0.00000000      -0.02119722      -0.00889406       0.21705831
Pt       3.89788009       2.29946001       6.31446797        7       0.00000000       0.05154179       0.09655933       0.57004526
Ni       6.39376897       2.21098839       6.31544787        7       1.00000000      -0.04572128      -0.05527068       0.30837074
Pt       8.88446475       2.26246125       6.37422655        8       0.00000000       0.05386941      -0.06418511       0.06125302
Ni       2.55124272       4.46980566       6.35553181        8       1.00000000       0.08952044      -0.03146927      -0.26494432
Ni       5.12068334       4.43060713       6.39411169        8       1.00000000       0.03113024       0.02658002      -0.14797068
Ni       7.61155939       4.37629093       6.38384953        8       1.00000000      -0.15317032       0.02049601      -0.12552970
Ni      10.24948963       4.39717374       6.36453790        8       1.00000000       0.06750685      -0.04211526      -0.21040530
Ni       3.79793003       6.50971570       6.38830031        8       1.00000000       0.02028339      -0.03263752      -0.21381588
Ni       6.36092821       6.51191368       6.30935421        7       1.00000000       0.09185631       0.00300015       0.20363605
Pt       8.94281308       6.43160488       6.40995223        8       0.00000000      -0.08796003      -0.01042512       0.14790349
Ni      11.51536081       6.49211178       6.36467383        8       1.00000000      -0.00186056       0.02203861      -0.23058027
