64
Lattice="10.161164368109748 -0.036394992517691974 0.04266283203090833 5.049063195964014 8.822494820777747 0.042215535015846545 0.0348340564859307 0.019689736219045805 8.746416242589422" Properties=species:S:1:pos:R:3:tags:I:1:initial_magmoms:R:1:forces:R:3 unique_id=67ec46b62acd4c5a88cff9614ba6cff2 stress="-0.00021751915046416131 -3.9335463819618145e-06 1.8290907653755408e-06 -3.9335463819618145e-06 -0.00021762096491014654 7.337635043464467e-06 1.8290907653755408e-06 7.337635043464467e-06 -0.0001657508917787473" energy=-392.4244250032076 pbc="T T T"
Ni       0.07780248       0.02806314       0.14723508        4       1.00000000       0.26610405       0.15168788       0.12649384
Ni       2.55036738      -0.00666204       0.22368885        4       1.00000000       0.04986617      -0.01627169       0.22663041
Ni       5.02075938      -0.04989808       0.11271044        4       1.00000000      -0.11082323      -0.04986154       0.07669085
Pt       7.63401459      -0.07700934       0.02437292        4       0.00000000       0.01874684      -0.03622737      -0.17527939
Ni       1.27106089       2.22554237       0.12555786        4       1.00000000       0.05429269       0.10718986       0.09430543
Ni       3.75464340       2.20235578       0.22613087        4       1.00000000      -0.07710528      -0.00197566       0.24733204
Pt       6.31854054       2.27553221       0.20816118        4       0.00000000      -0.02432161       0.13477797       0.50085368
Ni       8.94191220       2.24736343       0.10999833        4       1.00000000       0.12459062       0.18754386      -0.00846945
Ni       2.51266087       4.40252795       0.12999999        4       1.00000000      -0.05993141      -0.03927029       0.11055374
Ni       5.01855820       4.43049933       0.20321576        4       1.00000000      -0.17582691       0.00294321       0.27466389
Ni       7.66931396       4.42755304       0.11370814        4       1.00000000       0.28512309       0.08920072      -0.05059594
Ni      10.15858825       4.38332457       0.15842789        4       1.00000000       0.06435272       0.02453940       0.08519993
Ni       3.79866855       6.55312878       0.08798831        4       1.00000000      -0.02011119      -0.17039346       0.01793771
Ni       6.36710655       6.60748020       0.09021484        4       1.00000000       0.20161697       0.02828034      -0.11277667
Ni       8.87304138       6.59416320       0.23439612        4       1.00000000       0.01864725      -0.02720235       0.17123564
Ni      11.36740441       6.52763931       0.13134515        4       1.00000000      -0.13672308      -0.14728774      -0.00820544
Ni       1.33828042       0.78481734       2.15834818        3       1.00000000       0.01187629       0.10632905       0.00726340
Ni       3.77153287       0.71131621       2.18581179        3       1.00000000      -0.00533776      -0.06005952       0.02895717
Pt       6.23615114       0.69218799       2.28707950        3       0.00000000      -0.07355797      -0.02591568      -0.06505972
Pt       8.97286450       0.80825404       2.20055225        3       0.00000000       0.03960240       0.02434749      -0.17446273
Ni       2.53005575       2.96776648       2.16978447        3       1.00000000      -0.11671600       0.11263220      -0.01602870
Ni       4.98667233       2.94982624       2.25592779        3       1.00000000      -0.14446845      -0.05957429       0.17585977
Ni       7.68471745       2.97509270       2.23300379        3       1.00000000       0.18782645       0.07446495      -0.01330581
Ni      10.19285470       2.98004919       2.21936750        3       1.00000000       0.03746185       0.03534727      -0.01688484
Ni       3.76657116       5.07638518       2.22524469        3       1.00000000      -0.08925972      -0.05593442       0.10632639
Pt       6.40282671       5.11825696       2.17741142        3       0.00000000       0.12146886      -0.00766320      -0.05822374
Ni       8.93549337       5.13346129       2.24510581        3       1.00000000       0.12643191      -0.03086702       0.06551384
Ni      11.37812979       5.06963371       2.22458282        3       1.00000000      -0.06202137      -0.03820280      -0.08910928
Pt       5.10082338       7.32952828       2.15774102        3       0.00000000       0.02970345      -0.07059147      -0.12864527
Ni       7.68136412       7.35362278       2.22552339        3       1.00000000       0.04866723      -0.05679876       0.07647903
Ni      10.07129010       7.28520222       2.26333216        3       1.00000000      -0.05278971      -0.12810728       0.04270222
Pt      12.60174462       7.20175484       2.27426292        3       0.00000000      -0.14224119      -0.14289420      -0.12864486
Ni       0.03006569       1.51888684       4.36393938        2       1.00000000       0.10057271      -0.02704305      -0.05913702
Pt       2.58432371       1.49622214       4.25597239        2       0.00000000       0.11132363       0.01879331       0.10760304
Ni       5.07220029       1.43403920       4.38127086        2       1.00000000      -0.00144387       0.01373691       0.13055103
Pt       7.68490551       1.47426457       4.37380927        2       0.00000000      -0.01029091       0.08205369       0.13346198
Pt       1.24081786       3.75320115       4.35290095        2       0.00000000      -0.02359842      -0.02368041      -0.05600270
Ni       3.80605543       3.73119353       4.33290542        2       1.00000000      -0.04472162       0.08021915      -0.04116572
Pt       6.34828684       3.71470111       4.34698658        2       0.00000000      -0.08790744      -0.00964410       0.08357273
Ni       8.90928865       3.71156275       4.39907986        2       1.00000000       0.02307587       0.13998072      -0.10534671
Ni       2.51424851       5.86281814       4.41143645        2       1.00000000      -0.06550459      -0.05781197      -0.02388415
Ni       5.04353108       5.86597398       4.37581017        2       1.00000000      -0.02365028      -0.10803700      -0.13777259
Ni       7.68112829       5.86204096       4.38395626        2       1.00000000       0.20244497      -0.01279628      -0.11871857
Ni      10.15399890       5.88985675       4.37134808        2       1.00000000       0.00333344       0.01836864      -0.18378415
Pt       3.75309327       8.00888536       4.41009143        2       0.00000000       0.04410036       0.02566342      -0.02272032
Pt       6.39845425       8.01881882       4.35629215        2       0.00000000       0.10525041      -0.00785842       0.04321623
Ni       8.94417786       8.05226159       4.36528991        2       1.00000000       0.02270468      -0.03404500      -0.08669376
Ni      11.34634276       8.02030789       4.45770802        2       1.00000000      -0.06173576      -0.12103662      -0.05223414
Pt      -0.03783800       0.04647941       6.55333648        1       0.00000000      -0.19108235       0.00156136      -0.00566672
Pt       2.58670217      -0.02466460       6.57928879        1       0.00000000       0.02757050       0.00460678       0.17050725
Ni       5.14521373      -0.04923839       6.47774389        1       1.00000000      -0.00739034      -0.08477118      -0.13302424
Ni       7.59438639      -0.06481511       6.41842659        1       1.00000000      -0.16974011      -0.11360424      -0.33412227
Ni       1.23895385       2.26942659       6.50780119        1       1.00000000      -0.05637748       0.03994251      -0.05069302
Pt       3.78005509       2.26275900       6.54596933        1       0.00000000      -0.21315287       0.07976563       0.13749271
Pt       6.40766313       2.17168521       6.50741897        1       0.00000000       0.07101954      -0.08032887      -0.20535645
Ni       8.94779595       2.24880638       6.52291129        1       1.00000000       0.03583747       0.16708069      -0.16574750
Ni       2.49172437       4.47609815       6.50687618        1       1.00000000      -0.14695495       0.10577914      -0.02258598
Pt       5.05979828       4.52892647       6.56028398        1       0.00000000      -0.04380012       0.17742666       0.12142535
Ni       7.66900142       4.40356373       6.52121791        1       1.00000000       0.03147641      -0.04091717      -0.15471951
Ni      10.17951868       4.37327862       6.54623051        1       1.00000000       0.02371993      -0.03880407      -0.01637594
Ni       3.75277136       6.62285178       6.52158454        1       1.00000000      -0.17666855       0.04180450      -0.08107630
Ni       6.35060970       6.60973256       6.52481118        1       1.00000000       0.03498504       0.01441322      -0.23312560
Pt       8.95044143       6.53774893       6.53524848        1       0.00000000       0.08164920      -0.08840025       0.13377844
Ni      11.46419979       6.59249601       6.52175506        1       1.00000000       0.00981154      -0.07660313      -0.16096259
