64
Lattice="10.341976656057211 -0.010743599998412377 0.025215793412817968 5.161684097501884 8.9087258885987 -0.00810256570271428 0.0 0.0 21.572900902048747" Properties=species:S:1:pos:R:3:tags:I:1:initial_magmoms:R:1:forces:R:3 unique_id=80ed3afb350f4d589e2b42f0ddf8e4ac energy=-376.70008879007344 stress="0.005621503221134201 4.228450818393068e-05 0.00048703316045825085 4.228450818393068e-05 0.005638460694905358 1.3757283470685746e-05 0.00048703316045825085 1.3757283470685746e-05 -0.002032182926523265" pbc="T T T"
Ni      -0.01809051       0.02170991       0.14724790        1       1.00000000      -0.03396455       0.04665117       0.03580109
Ni       2.58689748      -0.00099226       0.15829122        2       1.00000000      -0.01103583       0.01382319      -0.06712889
Ni       5.17227013      -0.01992186       0.11854351        1       1.00000000       0.02269949       0.20834847      -0.34651244
Ni       7.78234024      -0.04338942       0.07664019        1       1.00000000       0.01915748      -0.04710030       0.42333199
Ni       1.27663807       2.21516794       0.12153578        1       1.00000000       0.03596400      -0.09016290      -0.16085150
Pt       3.82006718       2.22274133       0.06191928        1       0.00000000       0.03127228      -0.03981702      -0.03233835
Pt       6.49198260       2.15873136       0.14837679        1       0.00000000       0.04475225      -0.09122080      -0.49260892
Ni       9.06692304       2.18066824       0.10774090        1       1.00000000      -0.06944496      -0.13501362      -0.02529170
Ni       2.56821273       4.46505008       0.00000000        0       1.00000000      -0.02977216      -0.02085333       0.14305804
Ni       5.16245529       4.45081272       0.10186154        1       1.00000000       0.17952040      -0.08867937      -0.29855198
Pt       7.82594227       4.45738428       0.05823353        1       0.00000000       0.01452561      -0.06658160       0.01955356
Ni      10.36399935       4.45512516       0.01628227        0       1.00000000       0.04515664      -0.00800038       0.18242712
Ni       3.84184750       6.70839764       0.11240817        1       1.00000000      -0.03931209       0.18246099      -0.14474063
Pt       6.43944899       6.72824593       0.14603205        1       0.00000000      -0.05781000       0.04317719      -0.55398737
Ni       9.06777182       6.68743820       0.02586211        0       1.00000000      -0.05883544      -0.00325158       0.18141449
Ni      11.64381434       6.68252824       0.01416410        0       1.00000000       0.12742886       0.06760812       0.21219454
Ni       1.29583197       0.72257621       2.11452336        3       1.00000000      -0.01102796      -0.02523259       0.04786968
Ni       3.87724690       0.75192962       2.15641156        4       1.00000000       0.04963305       0.05944436       0.18933248
Ni       6.49430066       0.73563168       2.20422904        4       1.00000000       0.09948866       0.05297926       0.24158059
Ni       9.02913524       0.71396227       2.15214452        4       1.00000000      -0.14103957       0.00302215       0.01420174
Ni       2.59425637       2.94419873       2.15198414        4       1.00000000      -0.03188798       0.00886322       0.13894462
Ni       5.16808933       2.93420814       2.19407599        4       1.00000000      -0.07691146      -0.14688370       0.24013715
Ni       7.76480639       2.93990041       2.19659103        4       1.00000000       0.04848731      -0.09274578       0.15080128
Pt      10.29314477       2.89630878       2.16216207        4       0.00000000      -0.04652263       0.03563943       0.09271379
Pt       3.89862039       5.17250784       2.10602687        3       0.00000000       0.02149581      -0.08664694       0.03520343
Ni       6.50181988       5.17636189       2.17195429        4       1.00000000       0.12942166      -0.05017979       0.16702885
Ni       9.01752255       5.18994064       2.20704099        4       1.00000000      -0.09604570      -0.02499751       0.26017964
Pt      11.62621492       5.19601356       2.12613068        3       0.00000000      -0.05084312      -0.04599458      -0.02711723
Ni       5.14856453       7.46347477       2.13129108        3       1.00000000      -0.08964939       0.09265381       0.05370649
Ni       7.75661037       7.41644553       2.15543205        4       1.00000000       0.05689459      -0.05356989       0.10048413
Pt      10.31321314       7.43756790       2.07785111        3       0.00000000      -0.02339181       0.00678772      -0.05958581
Ni      12.94073395       7.44889303       2.12788483        3       1.00000000      -0.03521791       0.09565985      -0.05687396
Ni      -0.01857263       1.51030664       4.29761738        6       1.00000000       0.02194957       0.09337275      -0.16841983
Pt       2.64486375       1.53275324       4.24243058        5       0.00000000       0.00193913       0.01983820      -0.12737403
Ni       5.18653321       1.48632217       4.29119088        6       1.00000000       0.04234579       0.01559377      -0.36206615
Ni       7.78504037       1.48240990       4.28720598        6       1.00000000       0.08287996       0.04418226      -0.36755256
Pt       1.27168947       3.77941652       4.34125392        6       0.00000000      -0.04522019      -0.01792237       0.05474335
Ni       3.88488452       3.69312128       4.31880405        6       1.00000000       0.07143246       0.02109182      -0.20285700
Pt       6.52706689       3.66438224       4.22442254        5       0.00000000       0.00680828      -0.04542050      -0.06782546
Ni       9.05553698       3.72178122       4.33111365        6       1.00000000       0.03211323       0.02896810      -0.21408170
Ni       2.56394805       5.91862742       4.33462861        6       1.00000000       0.02917164       0.04407951      -0.13847181
Pt       5.15809784       5.89414324       4.25841274        6       0.00000000      -0.00962400       0.02416319      -0.11247226
Ni       7.82355787       5.87312206       4.30171537        6       1.00000000       0.08528699      -0.08828373      -0.27812315
Ni      10.31687004       5.89776758       4.37822282        7       1.00000000      -0.07024671       0.04512039      -0.10569677
Pt       3.85357044       8.21401459       4.22124868        5       0.00000000       0.02952045       0.11061542      -0.07261025
Pt       6.46429307       8.17717362       4.20203479        5       0.00000000      -0.01885715       0.13866919      -0.14431807
Pt       9.05816080       8.08952079       4.28928555        6       0.00000000      -0.07901683      -0.02774073      -0.01533645
Pt      11.65482426       8.14475015       4.31163975        6       0.00000000      -0.01237019       0.03614549      -0.04448744
Pt      -0.02609180      -0.00315601       6.54373816        9       0.00000000       0.15478288       0.10893386       0.22165129
Pt       2.63953097      -0.00763513       6.57290090       10       0.00000000      -0.02358660      -0.00669362       0.37451467
Pt       5.22662692      -0.09012720       6.56208677       10       0.00000000      -0.02906178      -0.02529893       0.36137063
Ni       7.75767348      -0.02985556       6.51685306        9       1.00000000      -0.01557028       0.04571913      -0.10654263
Pt       1.33667181       2.30691436       6.55181640       10       0.00000000      -0.13856861      -0.08876196       0.20300057
Ni       3.88829819       2.22639725       6.41727981        8       1.00000000       0.07397315      -0.10613165       0.10473350
Pt       6.47618445       2.17765255       6.42909100        8       0.00000000      -0.02874231      -0.06204868       0.50356925
Pt       9.05211689       2.28077166       6.47886612        9       0.00000000       0.08397751       0.12849615      -0.00954068
Ni       2.56025347       4.46224858       6.47880025        9       1.00000000      -0.04945756       0.12760471      -0.11682277
Pt       5.11379612       4.38665438       6.51885543        9       0.00000000      -0.07414393       0.00341361       0.26411973
Ni       7.81552699       4.45391035       6.40830210        8       1.00000000       0.03147669       0.03911011      -0.03079745
Ni      10.33807181       4.50692722       6.49211086        9       1.00000000      -0.09292003       0.06141589      -0.24170609
Pt       3.75569031       6.65556027       6.53098261        9       0.00000000       0.04845137      -0.10748155       0.09263298
Pt       6.54397690       6.60169858       6.44564313        8       0.00000000      -0.01230496      -0.11522856       0.55670370
Ni       9.10112076       6.59438083       6.48331167        9       1.00000000      -0.01129780      -0.06660851      -0.21233865
Ni      11.60627699       6.60628096       6.49556556        9       1.00000000      -0.10830571      -0.17910003      -0.26197438
