64
Lattice="10.472864225340004 -0.008543569540198184 0.055610886851960195 5.229033164409193 9.098284700091734 0.005805319367238586 0.04540609897698425 -0.020741915878508623 9.041323445501476" Properties=species:S:1:pos:R:3:tags:I:1:initial_magmoms:R:1:forces:R:3 unique_id=81de712397f8450caa85fb05d23e4eed stress="0.004524846455176826 2.6631774745703182e-05 -1.0361919649783526e-05 2.6631774745703182e-05 0.004573444336355453 1.3856639777048207e-05 -1.0361919649783526e-05 1.3856639777048207e-05 0.003762998411429873" energy=-408.5639599600169 pbc="T T T"
Pt      -0.07512891       0.03160513       0.05150633        4       0.00000000      -0.11936074       0.00197747      -0.16831260
Ni       2.64032298      -0.02236625       0.08166140        4       1.00000000       0.08384329      -0.07767370       0.10961231
Ni       5.25488953      -0.05261416       0.17251745        4       1.00000000       0.09876802      -0.07269272       0.19009726
Ni       7.85614605      -0.04755037       0.14771204        4       1.00000000      -0.05908727      -0.17553908       0.20387723
Ni       1.28604342       2.26540853       0.14408642        4       1.00000000       0.00965891      -0.03501281       0.19275202
Pt       3.90815167       2.19452068       0.12867129        4       0.00000000       0.04957139      -0.05910299      -0.05156380
Pt       6.60985774       2.15850389       0.17468584        4       0.00000000       0.11578214      -0.14169937      -0.02634987
Ni       9.18280026       2.25875125       0.11169356        4       1.00000000       0.00041793      -0.01167918       0.07268557
Pt       2.55091391       4.59634432       0.10881844        4       0.00000000       0.03423555       0.06405088      -0.08811138
Pt       5.26917946       4.54556418       0.17304965        4       0.00000000       0.17362820      -0.10220972       0.03209910
Pt       7.96535381       4.55483239       0.18371736        4       0.00000000       0.12919398      -0.02399833       0.03783409
Ni      10.47208639       4.55374910       0.10653225        4       1.00000000       0.05810178       0.08254877       0.06538297
Ni       3.89918613       6.86742958       0.17430673        4       1.00000000      -0.01718707       0.10297724       0.20097138
Pt       6.58908144       6.87687627       0.22658201        4       0.00000000       0.06170074       0.01558976       0.11426143
Ni       9.19761235       6.83499101       0.11345214        4       1.00000000       0.09475495       0.00895439       0.09289785
Ni      11.77502367       6.85073964       0.19204688        4       1.00000000       0.08071228       0.09523871       0.15029369
Pt       1.29168027       0.67196737       2.22768801        3       0.00000000      -0.02291044      -0.05384766      -0.06921886
Pt       4.00436074       0.72341296       2.30758175        3       0.00000000       0.02033418       0.04425939       0.12728562
Ni       6.59650653       0.72900500       2.31924407        3       1.00000000       0.08581277      -0.05770384       0.03983824
Ni       9.11991877       0.71912521       2.30580458        3       1.00000000      -0.12816465       0.00695521      -0.03037776
Pt       2.62625988       3.03019054       2.27785070        3       0.00000000      -0.06029693       0.04175685       0.02133535
Ni       5.28273994       3.01192849       2.32176233        3       1.00000000       0.04186225      -0.04211749       0.00402341
Pt       7.81041949       3.00970823       2.42302597        3       0.00000000      -0.07789110      -0.00858414       0.00009012
Pt      10.40045247       3.01927803       2.24495784        3       0.00000000      -0.11737810      -0.01878395      -0.04438483
Pt       3.98009659       5.39348789       2.26978504        3       0.00000000      -0.02161021       0.08800091       0.01721985
Ni       6.60808943       5.31085616       2.32529396        3       1.00000000       0.16304648       0.00153653       0.05997539
Ni       9.13411974       5.32612227       2.35150279        3       1.00000000      -0.09338891       0.04652141       0.17367790
Pt      11.71421385       5.34509241       2.31435009        3       0.00000000      -0.09630143      -0.02737528       0.05917395
Ni       5.22498932       7.59005563       2.26591279        3       1.00000000      -0.05346685       0.08933626       0.00401299
Ni       7.87164541       7.52387117       2.30752564        3       1.00000000       0.08015757      -0.09545354       0.15033075
Pt      10.46344368       7.56322867       2.23238678        3       0.00000000      -0.04460071      -0.00915464       0.08159552
Ni      13.11108126       7.63533116       2.27136391        3       1.00000000      -0.03531196       0.13518225      -0.04957702
Pt      -0.09968648       1.55345110       4.51199986        2       0.00000000      -0.12248204       0.07399484      -0.11585486
Pt       2.64203072       1.47821487       4.50610450        2       0.00000000      -0.12237180       0.02158537      -0.02909951
Ni       5.31355942       1.51536009       4.48076341        2       1.00000000       0.08829948       0.03416173      -0.16811656
Ni       7.85378582       1.53223815       4.50895961        2       1.00000000      -0.06061459       0.01150578      -0.14281953
Pt       1.21189745       3.82306900       4.50862108        2       0.00000000      -0.10301553       0.01509693      -0.03481648
Pt       4.03987413       3.73536501       4.44302784        2       0.00000000       0.07198933       0.02682285      -0.11902897
Ni       6.61870467       3.75502742       4.50134331        2       1.00000000       0.08227531       0.01161582      -0.00253618
Ni       9.14073843       3.80657841       4.51713088        2       1.00000000      -0.09215608       0.08262499      -0.20014572
Pt       2.60007989       6.09399681       4.46391583        2       0.00000000      -0.02511881       0.06547404       0.00452864
Pt       5.36058318       6.03038384       4.43287179        2       0.00000000       0.09214185      -0.03087676      -0.03045567
Ni       7.92263274       6.00146957       4.47795441        2       1.00000000       0.08346598      -0.13335697      -0.20240319
Ni      10.42194182       6.02927365       4.56357977        2       1.00000000      -0.11745421      -0.04793367       0.00445148
Pt       3.92043868       8.37303196       4.43516727        2       0.00000000      -0.01628587      -0.03668126      -0.15576056
Pt       6.57081956       8.31183527       4.48456035        2       0.00000000      -0.02709433       0.01857129      -0.07169566
Pt       9.18236331       8.23166211       4.54693706        2       0.00000000      -0.04441566      -0.05300738       0.02428658
Pt      11.79003734       8.40794122       4.48912365        2       0.00000000      -0.04295565       0.04645443      -0.00437160
Ni       0.00714503       0.00999226       6.65484589        1       1.00000000      -0.09414627       0.01341307      -0.26701262
Ni       2.64029616      -0.02532145       6.74410563        1       1.00000000      -0.04354603       0.05975676      -0.09886798
Pt       5.23615205      -0.05195637       6.80118039        1       0.00000000      -0.04675560      -0.00943943       0.13404135
Ni       7.91067227       0.00224153       6.76028048        1       1.00000000       0.01598116       0.02223030      -0.11722066
Pt       1.23779979       2.21146497       6.78889231        1       0.00000000      -0.11297458      -0.03416028       0.14721760
Pt       3.94974788       2.21066015       6.66781797        1       0.00000000       0.02972508       0.01712170      -0.04990495
Pt       6.66027439       2.20665231       6.62561480        1       0.00000000       0.01134025      -0.02741742      -0.05401330
Ni       9.19154194       2.23712283       6.76040383        1       1.00000000      -0.06319190      -0.03511049      -0.08638996
Pt       2.60054855       4.52919853       6.66632117        1       0.00000000       0.04477038      -0.02794783      -0.07318887
Pt       5.31099798       4.53856158       6.67304146        1       0.00000000       0.09774154       0.04677503       0.00523981
Pt       8.00076679       4.53749577       6.62750437        1       0.00000000       0.06076718       0.02083922      -0.01988963
Ni      10.47213640       4.53048443       6.75677039        1       1.00000000       0.00174606      -0.02240520      -0.09803877
Pt       3.94756233       6.90325971       6.77717374        1       0.00000000      -0.01055842       0.07716221       0.11694494
Pt       6.65534483       6.87426354       6.70633201        1       0.00000000       0.07589996       0.05966784       0.05236673
Ni       9.19182561       6.79557817       6.73965864        1       1.00000000       0.00402474      -0.03176154      -0.10219625
Pt      11.72726641       6.79107714       6.80989321        1       0.00000000      -0.04965696      -0.04703358       0.08132251
