64
Lattice="10.405305278223153 0.002745920512506317 0.03344004548356859 5.205030676032181 8.959145930213763 -0.0027760304145290314 0.0273036828034012 -0.018381055190936704 8.884750780148778" Properties=species:S:1:pos:R:3:tags:I:1:initial_magmoms:R:1:forces:R:3 unique_id=d81e22fded3743f5997dce44bf33a8a2 stress="0.00039398442450788024 1.7757314557374803e-06 -2.2586079536823386e-05 1.7757314557374803e-06 0.0003900087614653186 5.529954159191068e-06 -2.2586079536823386e-05 5.529954159191068e-06 0.0003654326703822694" energy=-402.1028683527179 pbc="T T T"
Ni      -0.03392322       0.00690757       0.16756126        4       1.00000000      -0.23559651      -0.01677307       0.19664904
Ni       2.62769657      -0.01128461       0.17816674        4       1.00000000       0.23503087      -0.12151432       0.26293861
Ni       5.20646251      -0.02035774       0.17606889        4       1.00000000      -0.00618364       0.08101640       0.23082061
Ni       7.82884612      -0.03696463       0.12989463        4       1.00000000       0.07379081      -0.14215430       0.21409253
Ni       1.29314399       2.25114686       0.14982473        4       1.00000000      -0.01309527       0.07688756       0.20448397
Pt       3.85095533       2.24235291       0.19848750        4       0.00000000      -0.06980350       0.03639005       0.15338768
Pt       6.51199511       2.16505736       0.16630223        4       0.00000000       0.06236258      -0.11225670       0.17355070
Ni       9.13159950       2.20922925       0.15859571        4       1.00000000       0.02011835      -0.16134556       0.11434830
Ni       2.59253027       4.49445675       0.06411268        4       1.00000000      -0.00519469       0.03579600       0.01363641
Ni       5.19793937       4.48355281       0.16420268        4       1.00000000       0.17525981      -0.09608995       0.25570630
Pt       7.88015488       4.50777207       0.08499070        4       0.00000000       0.14909759      -0.03371420      -0.12587604
Ni      10.43768166       4.49682168       0.07554205        4       1.00000000       0.12080537       0.05993379       0.00112843
Ni       3.87710757       6.74141815       0.16699818        4       1.00000000      -0.06122832       0.12054467       0.22759778
Pt       6.48911103       6.76877726       0.20677117        4       0.00000000      -0.03679292       0.04932940       0.13562351
Ni       9.13575302       6.73500367       0.09125808        4       1.00000000       0.03974115       0.02568911       0.02799197
Ni      11.72436408       6.72922177       0.08259709        4       1.00000000       0.12744814       0.07190279      -0.04197100
Pt       1.30968643       0.70622935       2.15711227        3       0.00000000      -0.03104378      -0.02939142       0.00797794
Ni       3.93376939       0.74999502       2.24274772        3       1.00000000       0.11811661       0.02979106       0.05745288
Ni       6.51521534       0.72400050       2.27177303        3       1.00000000       0.04025850      -0.02610438       0.10668418
Ni       9.08443541       0.70924549       2.23150290        3       1.00000000      -0.10194895      -0.03497802      -0.09610146
Ni       2.62224979       2.99344949       2.23902321        3       1.00000000      -0.03389988       0.12491729       0.04590335
Ni       5.19072376       2.96173986       2.27619642        3       1.00000000      -0.03234082      -0.12829407       0.11199844
Pt       7.81204171       2.95369531       2.30013859        3       0.00000000      -0.02116345      -0.06999137      -0.16533115
Pt      10.39820991       2.97723373       2.23490665        3       0.00000000       0.01965520       0.06992760       0.06957396
Pt       3.93003921       5.20907084       2.18417074        3       0.00000000      -0.02957441      -0.06032965      -0.01587344
Ni       6.53455190       5.23164418       2.24974202        3       1.00000000       0.13410917      -0.00409352       0.00831628
Ni       9.09155087       5.25047118       2.28073967        3       1.00000000      -0.02888333       0.04107649       0.14532507
Pt      11.71805175       5.25478521       2.21074543        3       0.00000000      -0.03432094       0.08082785      -0.04926860
Ni       5.17797534       7.47319681       2.20959542        3       1.00000000      -0.15460715       0.01021280      -0.04591488
Ni       7.83001892       7.43387127       2.23852520        3       1.00000000       0.06008229      -0.14255796       0.04248635
Pt      10.39146426       7.48636295       2.16007934        3       0.00000000       0.00385878      -0.05232159      -0.04047861
Ni      13.03218301       7.50071625       2.21550057        3       1.00000000      -0.02903858       0.06756434      -0.11334634
Ni      -0.01840247       1.51732282       4.39885351        2       1.00000000      -0.00673304       0.13354979      -0.09847165
Pt       2.65019622       1.53395174       4.32197883        2       0.00000000       0.04703420       0.08085397       0.00672478
Ni       5.23482016       1.49071818       4.37646134        2       1.00000000       0.04546080      -0.04018175      -0.22677249
Ni       7.83728217       1.48705060       4.40880122        2       1.00000000       0.03626275       0.01682122      -0.13845019
Pt       1.28984048       3.80604185       4.43767817        2       0.00000000       0.00013995       0.02187484       0.00445178
Ni       3.91273793       3.73517453       4.39341106        2       1.00000000      -0.01377869       0.02288571      -0.14038625
Pt       6.53980470       3.71607541       4.38699832        2       0.00000000      -0.10590305      -0.00845584       0.11337976
Ni       9.12484651       3.75860702       4.45051823        2       1.00000000       0.04399634       0.11816345      -0.13376664
Ni       2.59117159       5.95216419       4.42940508        2       1.00000000      -0.03253840       0.07033109      -0.10764539
Pt       5.19069799       5.93810342       4.34721018        2       0.00000000      -0.04267836       0.07045345       0.06655637
Ni       7.88248274       5.91747669       4.40524213        2       1.00000000       0.11066668      -0.11556893      -0.20305177
Ni      10.39448601       5.94322635       4.47782562        2       1.00000000      -0.06995402       0.02200680      -0.07825458
Pt       3.88838558       8.25575648       4.32047207        2       0.00000000       0.03258580       0.05889446      -0.09110895
Pt       6.51971497       8.19338748       4.34247434        2       0.00000000       0.03305026      -0.02896768       0.06561789
Pt       9.13278067       8.13824703       4.38880829        2       0.00000000      -0.03651233      -0.00405784       0.04517886
Pt      11.74167806       8.19464592       4.40526442        2       0.00000000      -0.02261555      -0.03125445      -0.07941815
Pt      -0.03423738      -0.00669747       6.64561078        1       0.00000000      -0.05224920       0.00082119       0.10606294
Pt       2.64542752      -0.04085117       6.67624309        1       0.00000000      -0.02098467      -0.00952193       0.11436831
Pt       5.27428347      -0.11408513       6.67146251        1       0.00000000       0.03374927      -0.28631130       0.14261226
Ni       7.81227115      -0.02016178       6.62565321        1       1.00000000       0.01274418       0.02395696      -0.14937720
Pt       1.29668535       2.31549635       6.64935744        1       0.00000000       0.00072806       0.11434856       0.11121112
Pt       3.91615500       2.25733244       6.54065378        1       0.00000000      -0.02978963      -0.05415270      -0.19833741
Pt       6.55548359       2.18905461       6.53760264        1       0.00000000      -0.01872164      -0.06456221      -0.25646811
Pt       9.11224496       2.30080463       6.59085273        1       0.00000000       0.01748184       0.15216358      -0.01557887
Ni       2.57340824       4.50271204       6.58814399        1       1.00000000      -0.14411784       0.08699374      -0.17027613
Pt       5.20245259       4.47349310       6.63951143        1       0.00000000      -0.07764784       0.03445792       0.10533047
Ni       7.87959348       4.48852073       6.51730545        1       1.00000000       0.12429243       0.05770991      -0.31395264
Ni      10.40797350       4.54075225       6.60662777        1       1.00000000      -0.09137415       0.21819635      -0.17291299
Pt       3.78676715       6.70044388       6.63922252        1       0.00000000      -0.18250952       0.06362478       0.15486853
Pt       6.59643734       6.64796209       6.56035396        1       0.00000000       0.06711158      -0.01062224      -0.13797970
Ni       9.16548403       6.63587376       6.59987603        1       1.00000000       0.07372421      -0.19878494      -0.20488485
Ni      11.69693590       6.65342423       6.61509737        1       1.00000000      -0.18593951      -0.26556310      -0.23278188
