64
Lattice="10.129776515081634 0.00042001838118943215 -0.011372131278786193 5.065252004128977 8.69784139920614 -0.0673175487955604 -0.009285306306990211 -0.058106719565747054 8.62022894944883" Properties=species:S:1:pos:R:3:tags:I:1:initial_magmoms:R:1:forces:R:3 unique_id=a1ea3c9c2b7d48e887142218e358dd25 stress="-0.0028697350881666805 3.81657270657715e-06 2.3674860442542602e-07 3.81657270657715e-06 -0.002843924234494366 1.7118929765263662e-06 2.3674860442542602e-07 1.7118929765263662e-06 -0.002461514908495034" energy=-387.56525481818187 pbc="T T T"
Ni       0.03846221      -0.05495280       0.20094906        4       1.00000000       0.06812729      -0.06745509       0.14164751
Ni       2.48332670      -0.04228770       0.20411864        4       1.00000000      -0.03368735      -0.07472419       0.08066212
Pt       5.08074835      -0.07552992       0.20608615        4       0.00000000      -0.02612482      -0.07944783      -0.03025175
Ni       7.61056353      -0.05606109       0.18698374        4       1.00000000       0.03669305      -0.09978078       0.14135834
Ni       1.25868541       2.18561246       0.11600708        4       1.00000000      -0.02281565       0.02047655       0.13247516
Pt       3.76080177       2.22560020       0.18640470        4       0.00000000      -0.03990625      -0.03572768      -0.00588771
Ni       6.33141719       2.21370567       0.10710604        4       1.00000000      -0.03095361       0.02803633       0.11740387
Pt       8.86620862       2.22947073       0.10082656        4       0.00000000      -0.00408071       0.03828439      -0.17673807
Ni       2.50470276       4.38992711       0.07987940        4       1.00000000      -0.00883170       0.00477054       0.07667994
Ni       5.08546525       4.39600702       0.07956296        4       1.00000000      -0.01416826       0.05474887       0.07000363
Ni       7.56436443       4.39159922       0.08860992        4       1.00000000      -0.03447271       0.04767640       0.12631602
Ni      10.15934117       4.38988494       0.08150803        4       1.00000000       0.01627968       0.04995824       0.09171691
Ni       3.80251377       6.49628778       0.06818063        4       1.00000000       0.02309385      -0.04684100       0.05917215
Ni       6.32477088       6.50617698       0.06706488        4       1.00000000       0.00931163      -0.02000212      -0.01573719
Ni       8.83605610       6.46557875       0.15443579        4       1.00000000      -0.04178223      -0.06791926       0.15230278
Ni      11.42062651       6.46323866       0.06233616        4       1.00000000       0.00351275      -0.06767274       0.03539906
Ni       1.29888126       0.71482279       2.18511710        3       1.00000000      -0.00691679       0.02221235       0.08267935
Ni       3.72581425       0.67245096       2.19229337        3       1.00000000      -0.10379015      -0.08112684       0.00889248
Ni       6.35243197       0.71193705       2.17171173        3       1.00000000       0.05344631      -0.01304395       0.01775661
Pt       8.88447311       0.71511101       2.18460480        3       0.00000000       0.06237597       0.03320719       0.09250084
Ni       2.48698878       2.92097742       2.21702236        3       1.00000000      -0.01182517       0.06140463       0.06587934
Ni       5.07760185       2.94764830       2.14107507        3       1.00000000      -0.00265588       0.14007172      -0.00183909
Ni       7.57822401       2.94093532       2.15455299        3       1.00000000       0.04620614       0.05751910       0.00141233
Ni      10.17601932       2.94104239       2.18440283        3       1.00000000       0.02472736       0.05620322       0.01507777
Ni       3.78815117       5.05843761       2.12709189        3       1.00000000      -0.01985869       0.01352132       0.01184165
Ni       6.33492086       5.09114980       2.09928511        3       1.00000000       0.02624791       0.05544026       0.02682206
Ni       8.86582960       5.05940175       2.13470122        3       1.00000000       0.00603676      -0.03490619       0.04784748
Ni      11.39232229       5.05683985       2.13286400        3       1.00000000      -0.00887856      -0.02988887       0.06390972
Ni       5.10700005       7.17163247       2.08665005        3       1.00000000       0.00289602      -0.06465414       0.03848427
Ni       7.58780787       7.21362401       2.12168220        3       1.00000000      -0.02211624      -0.06424762       0.01998150
Ni      10.12178831       7.16877442       2.17000353        3       1.00000000      -0.02031326      -0.09980559       0.03736484
Ni      12.62470586       7.16158242       2.07690205        3       1.00000000       0.00188049      -0.09648339       0.02551326
Ni       0.06162509       1.45952347       4.23747036        2       1.00000000       0.07633183      -0.01202772      -0.03858613
Ni       2.47176567       1.43899326       4.20411803        2       1.00000000       0.01137638       0.02179046      -0.03767617
Pt       5.04009459       1.40407805       4.14341569        2       0.00000000      -0.04832838       0.02063265      -0.09748724
Ni       7.59033720       1.42816589       4.23353985        2       1.00000000      -0.04283729      -0.04913414      -0.06053593
Ni       1.26323562       3.61121302       4.24689955        2       1.00000000       0.01200755       0.01314255      -0.06019899
Ni       3.74200130       3.67346462       4.19035406        2       1.00000000       0.01176093       0.06371625      -0.12715426
Pt       6.35660881       3.66536745       4.23655482        2       0.00000000       0.03445342      -0.00817252      -0.01979174
Ni       8.91447083       3.66250600       4.17143107        2       1.00000000       0.04129289       0.09974194      -0.14601694
Ni       2.49360256       5.71335811       4.22353968        2       1.00000000      -0.05643940      -0.05377444      -0.16036277
Ni       5.06397978       5.75946932       4.22238095        2       1.00000000       0.03230949      -0.02935934      -0.15751603
Ni       7.60431349       5.80475897       4.17227078        2       1.00000000       0.05641264       0.04010282      -0.12053255
Ni      10.15107206       5.74297113       4.18381055        2       1.00000000      -0.00034349      -0.02776081      -0.05913039
Pt       3.79684191       7.84880207       4.17483485        2       0.00000000      -0.01551361      -0.01687363       0.04544429
Ni       6.35996316       7.91470322       4.14061123        2       1.00000000      -0.00566758      -0.00446655      -0.08675024
Ni       8.83187471       7.89001439       4.13138532        2       1.00000000      -0.01254486      -0.05805405      -0.04952968
Ni      11.37825825       7.85935628       4.13419371        2       1.00000000      -0.00794474      -0.06609275      -0.09949673
Pt       0.01205088      -0.08140014       6.43190255        1       0.00000000      -0.04768287       0.01785670       0.13609285
Pt       2.51135221      -0.04116246       6.36452690        1       0.00000000       0.06187572       0.02428195       0.03201943
Pt       5.07285226      -0.06608240       6.30365771        1       0.00000000      -0.05910778      -0.01632382      -0.01677820
Pt       7.58058986      -0.08400061       6.41902094        1       0.00000000       0.03057087       0.02855478       0.13971870
Ni       1.25820218       2.20641796       6.33017631        1       1.00000000       0.02381420       0.04503622      -0.07490732
Pt       3.76817176       2.28360834       6.28895739        1       0.00000000      -0.01847322       0.10344158       0.02151378
Ni       6.32298194       2.19300937       6.36068169        1       1.00000000      -0.03109505       0.02803491      -0.02555799
Pt       8.86906227       2.24846275       6.21892986        1       0.00000000       0.00884127       0.06924572      -0.12302502
Ni       2.49469463       4.37401605       6.31628092        1       1.00000000      -0.00133175       0.07364218      -0.08804088
Ni       5.06652752       4.37947138       6.34774098        1       1.00000000      -0.02686494       0.09638118      -0.02246234
Ni       7.53506217       4.31843557       6.36063534        1       1.00000000      -0.10550770       0.01065889       0.05486546
Ni      10.20696260       4.31398691       6.31057025        1       1.00000000       0.14318996       0.01064363      -0.08737202
Ni       3.79103526       6.38911487       6.33157237        1       1.00000000      -0.01598350      -0.05358483      -0.03937444
Ni       6.29577736       6.41623184       6.30541141        1       1.00000000       0.01044739       0.01672285      -0.16490155
Pt       8.85715496       6.34970526       6.32676636        1       0.00000000       0.01030870      -0.05563612       0.11404528
Ni      11.42530703       6.40789284       6.29401072        1       1.00000000       0.00301569       0.02782961      -0.13116145
