64
Lattice="10.451730961997232 0.03334099247747862 0.015148156971075952 5.254739627471497 9.041010637612466 -0.03153873774747516 0.0 0.0 21.680197998809604" Properties=species:S:1:pos:R:3:tags:I:1:initial_magmoms:R:1:forces:R:3 unique_id=c0600d07f00d4e56abb1118efd9368b2 stress="0.004753839180916035 0.00022290388222140134 0.0003812153292713254 0.00022290388222140134 0.00432287894545577 -0.00016191279000312938 0.0003812153292713254 -0.00016191279000312938 -0.003773675037394078" energy=-382.29678010310664 pbc="T T T"
Ni      -0.06222577      -0.02341879       0.13678266        1       1.00000000      -0.14060644      -0.05489942      -0.15505314
Ni       2.64946746      -0.02815886       0.13191880        1       1.00000000       0.10397369      -0.04161145      -0.22838269
Ni       5.25586483      -0.02082520       0.11756936        1       1.00000000       0.14006664       0.07597824      -0.28512846
Ni       7.86588879      -0.02941478       0.08607753        1       1.00000000      -0.03367882      -0.04523631       0.49111364
Pt       1.28750249       2.27748754       0.07603497        1       0.00000000       0.22626361       0.05365740      -1.05575831
Pt       3.93607380       2.31492209       0.09759264        1       0.00000000       0.00147631       0.15311093      -0.71959409
Pt       6.57561361       2.19763366       0.09566953        1       0.00000000      -0.08749271      -0.12343198      -0.25652521
Ni       9.14720287       2.24503299       0.11868345        1       1.00000000      -0.02759783      -0.13631577      -0.06589662
Ni       2.64016330       4.54879576       0.08742573        1       1.00000000       0.02121418      -0.06304173      -0.33202358
Ni       5.25667069       4.53461010       0.09254638        1       1.00000000       0.18135636      -0.02667548      -0.07829189
Pt       7.92850018       4.55288175       0.01627743        0       0.00000000      -0.07338281       0.04833175       0.25365486
Ni      10.47679803       4.59173339       0.00260115        0       1.00000000       0.03469625       0.07780257       0.22943471
Ni       3.91568767       6.81018098       0.12364286        1       1.00000000      -0.01747671       0.08148285      -0.06423915
Pt       6.53770266       6.83071474       0.13902474        1       0.00000000      -0.05399314      -0.00946245      -0.34689712
Ni       9.19394990       6.80150415       0.01200008        0       1.00000000      -0.03138630      -0.03038178       0.36151901
Ni      11.80114439       6.82175905       0.00000000        0       1.00000000       0.12188824       0.06318733       0.35188003
Pt       1.27757128       0.66697394       2.14802358        2       0.00000000      -0.04420187      -0.13394626       0.19786500
Pt       3.99665435       0.77700122       2.20085334        3       0.00000000       0.06530859      -0.04793995       0.20483264
Ni       6.58108400       0.74541164       2.22219331        3       1.00000000       0.09915905      -0.01201221       0.13782472
Ni       9.09122220       0.73502971       2.15737040        3       1.00000000      -0.12358440      -0.00172905       0.04314949
Ni       2.64309194       3.03152908       2.20608405        3       1.00000000       0.02154553       0.01111025       0.32868265
Ni       5.24473800       3.02772117       2.25697668        4       1.00000000       0.02281653       0.03938533       0.32989818
Pt       7.78595635       3.02639361       2.31080744        4       0.00000000      -0.05565911       0.05079086       0.18879344
Pt      10.38548451       3.07257552       2.18105970        3       0.00000000      -0.21540972       0.09972384       0.10807545
Pt       3.99144311       5.25062833       2.11896033        2       0.00000000       0.08423253       0.00038493       0.08078372
Ni       6.59386692       5.27872828       2.19899882        3       1.00000000       0.09518806      -0.04463508       0.20207033
Ni       9.12574835       5.31687949       2.23196809        3       1.00000000      -0.11810162       0.01893957       0.16678600
Pt      11.77496643       5.31023961       2.10535288        2       0.00000000       0.03900900      -0.05013700       0.03266703
Ni       5.20952194       7.52227344       2.15241679        3       1.00000000      -0.07095056      -0.03182655       0.16978389
Ni       7.88452312       7.47359279       2.18167343        3       1.00000000       0.07631490      -0.10507946       0.17627066
Pt      10.47774672       7.51754618       2.09360489        2       0.00000000      -0.05405476       0.03140382       0.01453587
Ni      13.10802402       7.59950326       2.12476276        2       1.00000000      -0.03470795       0.03839344      -0.02037538
Pt      -0.09349907       1.52515817       4.34126052        5       0.00000000      -0.07737500       0.02197685      -0.18206286
Pt       2.67277997       1.54360214       4.32571654        5       0.00000000      -0.05784461      -0.06622135      -0.21494756
Ni       5.28190928       1.55183166       4.34414678        5       1.00000000       0.02814788       0.11731750      -0.32766001
Ni       7.81398628       1.54037813       4.36288394        6       1.00000000      -0.04423785       0.01083493      -0.21508617
Pt       1.25821782       3.81060246       4.36678307        6       0.00000000      -0.12084870       0.03878263      -0.15245184
Ni       3.98186635       3.73763137       4.34016835        5       1.00000000       0.05708893      -0.02011262      -0.30602289
Ni       6.57609345       3.74374788       4.38160140        6       1.00000000       0.00521983       0.00085667      -0.17051825
Ni       9.10574233       3.84038069       4.41634608        6       1.00000000      -0.05929914       0.01254346      -0.15734650
Pt       2.61110125       6.01339718       4.35577441        6       0.00000000       0.03065489       0.00617835      -0.07741624
Pt       5.32102823       5.91838788       4.29697221        5       0.00000000      -0.00728207      -0.08885003      -0.13952487
Ni       7.92044402       5.93907057       4.35722131        6       1.00000000       0.04053275      -0.09822847      -0.22962486
Ni      10.42110632       6.00153791       4.42957405        6       1.00000000      -0.00881281       0.01679927      -0.10928070
Pt       3.92425573       8.28701065       4.27121039        5       0.00000000       0.00982202      -0.02987194      -0.12474165
Pt       6.58428239       8.21861745       4.30616394        5       0.00000000      -0.04010396       0.10761289      -0.19909529
Pt       9.19191981       8.18462637       4.36699682        6       0.00000000      -0.00877408       0.00083276      -0.08485005
Pt      11.78725859       8.35543455       4.34245698        5       0.00000000      -0.03932101       0.04726752      -0.03097581
Pt      -0.04347667      -0.01905789       6.68019800        9       0.00000000       0.15324970       0.05631166       0.17823751
Pt       2.65471704      -0.06365484       6.67970658        9       0.00000000      -0.02724470      -0.02135682       0.33302277
Pt       5.29151021      -0.10818873       6.67834710        9       0.00000000      -0.07505843       0.19120833       0.05002429
Ni       7.83492187       0.00527508       6.60810472        8       1.00000000       0.04931233       0.05015265      -0.25111165
Pt       1.28611048       2.27231783       6.54046344        7       0.00000000      -0.01458633      -0.08977317       1.02142625
Pt       3.96060338       2.24790318       6.51017040        7       0.00000000       0.13864692       0.02632963       0.74036628
Pt       6.58121382       2.22867794       6.46626568        7       0.00000000      -0.04546008      -0.00365799       0.41321514
Pt       9.12701707       2.35510557       6.63001928        8       0.00000000      -0.06571703       0.13407960      -0.02260961
Pt       2.55446573       4.55134664       6.64487325        8       0.00000000       0.16022240      -0.10071578       0.17340842
Pt       5.27957152       4.50541560       6.58926722        8       0.00000000      -0.06374839      -0.05330340       0.15769159
Ni       7.91449657       4.53697542       6.47042162        7       1.00000000      -0.02724023       0.01799339      -0.04365484
Ni      10.41424635       4.59840867       6.56613182        8       1.00000000      -0.07183863       0.00243519      -0.30233801
Pt       3.86684259       6.80496135       6.66723933        9       0.00000000       0.11584429      -0.08148346       0.00530260
Pt       6.65515823       6.70175037       6.53894748        7       0.00000000       0.00674185      -0.01470084       0.37750006
Ni       9.22293979       6.69568651       6.56076636        8       1.00000000      -0.04453048      -0.00224699      -0.28352406
Ni      11.73461587       6.76165609       6.58680194        8       1.00000000      -0.04838496      -0.07431163      -0.28680683
