64
Lattice="9.835011163707327 0.0014546510960922522 -0.007592657869643762 4.918765346656523 8.51993297755026 -0.0019397296067918757 -0.006199379190718114 0.0017504186330618635 8.407430020078733" Properties=species:S:1:pos:R:3:tags:I:1:initial_magmoms:R:1:forces:R:3 unique_id=3956a5a52b8e413097c1ccad0a67aa2a stress="0.002718357344130215 -5.235401978829726e-06 -2.574239214004521e-07 -5.235401978829726e-06 0.0027227316035792135 1.3961584802811965e-06 -2.574239214004521e-07 1.3961584802811965e-06 0.00242173232406228" energy=-376.5888300560145 pbc="T T T"
Ni       0.00577393      -0.00639945       0.10047983        4       1.00000000       0.00231602      -0.00225312      -0.02092312
Ni       2.45825281       0.00058517       0.10025666        4       1.00000000      -0.00435544       0.00182518      -0.00178572
Ni       4.91084563      -0.00492424       0.09829275        4       1.00000000      -0.01656255      -0.01059469       0.00826774
Ni       7.37462251      -0.00923977       0.10382019        4       1.00000000       0.00234392      -0.00528469       0.04153445
Ni       1.24021961       2.12997933       0.10582635        4       1.00000000       0.01364521       0.00482115      -0.00036978
Ni       3.67954299       2.12837209       0.09969384        4       1.00000000      -0.01797523      -0.00283389       0.01712093
Ni       6.11689060       2.11593971       0.06765986        4       1.00000000      -0.02700556      -0.01366972      -0.01400392
Ni       8.64193601       2.11115418       0.17962644        4       1.00000000       0.06910681      -0.03705296       0.07830392
Ni       2.45620398       4.25943049       0.09886412        4       1.00000000      -0.01648247      -0.00173126      -0.00178298
Ni       4.90981234       4.26285054       0.10936454        4       1.00000000      -0.01457914      -0.00100793       0.07135289
Ni       7.37634798       4.29156542       0.06215360        4       1.00000000       0.00665739       0.01399684      -0.04912328
Ni       9.84341565       4.26633309       0.10202009        4       1.00000000       0.00159550      -0.00471886       0.02413288
Ni       3.68647343       6.39034797       0.11264278        4       1.00000000      -0.01022575       0.00078958       0.06073129
Ni       6.14570992       6.40047864       0.10467024        4       1.00000000      -0.00564338       0.02543800       0.02867540
Ni       8.60786718       6.39937720       0.09638792        4       1.00000000      -0.00247783       0.01759783       0.00728631
Ni      11.06499083       6.39143636       0.09866045        4       1.00000000      -0.00078527       0.00154114       0.02824633
Ni       1.23834765       0.71101322       2.11981577        3       1.00000000      -0.00232251       0.01163342      -0.00906688
Ni       3.67937056       0.70581500       2.12421114        3       1.00000000      -0.00717087      -0.00604289      -0.00780341
Ni       6.11842112       0.66797485       2.12052889        3       1.00000000      -0.00629772      -0.00048585       0.01154453
Ni       8.62604593       0.66557322       2.12847201        3       1.00000000      -0.00606455      -0.01603307       0.06731228
Ni       2.45504563       2.83728782       2.12551875        3       1.00000000      -0.00720058      -0.00135990       0.01057235
Ni       4.86424119       2.83479009       2.12435457        3       1.00000000      -0.01029223      -0.00193284       0.03713589
Pt       7.36589543       2.84475546       2.13461989        3       0.00000000      -0.03306427       0.02047400       0.04849722
Ni       9.88929809       2.84794373       2.13037783        3       1.00000000       0.01568635       0.01969149       0.06466597
Ni       3.65849149       4.96221779       2.09483796        3       1.00000000      -0.02314452      -0.00578121       0.03818575
Ni       6.14164283       5.00721007       2.08469796        3       1.00000000       0.00546001       0.01812414       0.01759863
Ni       8.63358127       5.01362972       2.11624426        3       1.00000000       0.00357045      -0.00132431       0.00007683
Ni      11.06610902       4.97564886       2.11962045        3       1.00000000      -0.00324075       0.00209926       0.01469998
Ni       4.91853301       7.12194931       2.09312362        3       1.00000000       0.00331650       0.01134501       0.03062816
Ni       7.38260728       7.11332990       2.12117756        3       1.00000000       0.00967137       0.01624192       0.00645369
Ni       9.83400847       7.10137181       2.12244186        3       1.00000000      -0.00234051       0.00124999       0.00289379
Ni      12.28672235       7.09439806       2.12144067        3       1.00000000      -0.00537603      -0.00900462       0.04397853
Ni       0.02447584       1.41378537       4.14317104        2       1.00000000      -0.01061324       0.01306122       0.00796923
Ni       2.46308079       1.41860834       4.16546955        2       1.00000000       0.00066514      -0.00655541      -0.05653596
Ni       4.90071086       1.40716002       4.16663252        2       1.00000000      -0.01443958      -0.01953396      -0.06004053
Ni       7.34716545       1.38061696       4.17440469        2       1.00000000      -0.00393234      -0.01085748       0.02205002
Ni       1.23164379       3.55144248       4.17519728        2       1.00000000       0.01792932       0.00751990      -0.01665295
Ni       3.65605951       3.51079160       4.17591946        2       1.00000000      -0.00815832       0.00229861      -0.01971781
Ni       6.13987325       3.52036677       4.21483831        2       1.00000000      -0.02443395      -0.01021977      -0.00654981
Ni       8.63560039       3.59065897       4.17258643        2       1.00000000       0.02378140       0.00441281       0.01659444
Ni       2.40727906       5.68105518       4.17530762        2       1.00000000      -0.00169688       0.00166338      -0.01804783
Pt       4.91033313       5.68600600       4.17522654        2       0.00000000      -0.00007708       0.00032669       0.03911347
Ni       7.42094582       5.69717883       4.16524662        2       1.00000000       0.00447533       0.01896445      -0.07134664
Ni       9.83879332       5.69439409       4.16432679        2       1.00000000       0.00422752       0.01500919      -0.04340611
Ni       3.66103900       7.84310413       4.17706827        2       1.00000000      -0.00827443      -0.01538554      -0.00480669
Ni       6.17689821       7.84829534       4.16556486        2       1.00000000       0.01443260       0.00351364      -0.05515775
Ni       8.61091579       7.81591570       4.16654873        2       1.00000000       0.00551210       0.00496463      -0.04636362
Ni      11.04756246       7.80381845       4.16519455        2       1.00000000      -0.01646013      -0.01109371      -0.03295271
Ni       0.02625217      -0.03972668       6.19519567        1       1.00000000       0.02477442      -0.01537397      -0.07554993
Ni       2.46905897       0.00265048       6.19714703        1       1.00000000       0.03269167       0.00392954      -0.04850276
Ni       4.90529069      -0.00300507       6.19527322        1       1.00000000      -0.00992007      -0.01071766      -0.03895666
Ni       7.33779944      -0.04001321       6.19753387        1       1.00000000      -0.02476594      -0.01820664      -0.00847519
Ni       1.27997110       2.12907706       6.19380341        1       1.00000000       0.02547876      -0.00622123      -0.05609026
Ni       3.68318489       2.12231587       6.19905613        1       1.00000000       0.00514399      -0.02269627      -0.03757040
Ni       6.09100418       2.11895199       6.18832541        1       1.00000000      -0.01803308      -0.04167194      -0.04987690
Pt       8.60488046       2.13086591       6.23373848        1       0.00000000       0.00757417      -0.00110602       0.14314592
Ni       2.45726359       4.26244178       6.19869953        1       1.00000000       0.01257344       0.00296540      -0.04048750
Ni       4.90396281       4.23641384       6.24013252        1       1.00000000      -0.01667392      -0.02308648       0.04695195
Ni       7.35453914       4.30817813       6.18359849        1       1.00000000       0.00904190       0.02711666      -0.08806652
Ni       9.85954057       4.30964712       6.19248054        1       1.00000000       0.02913699       0.02093817      -0.02111063
Ni       3.65715638       6.39697071       6.23856885        1       1.00000000      -0.02857560      -0.00080888       0.03199241
Ni       6.17285944       6.40728666       6.23382735        1       1.00000000       0.04764955       0.01858066       0.00069777
Ni       8.61075628       6.40346356       6.19474479        1       1.00000000       0.02222291       0.01819794      -0.04643448
Ni      11.05374904       6.39413302       6.19505289        1       1.00000000      -0.01201903       0.00431491      -0.02085222
