64
Lattice="10.242537258848055 -0.011926516657408306 0.02117082822325836 5.1109399630200505 8.80689779351164 -0.01458161456923456 0.0 0.0 21.505041692865852" Properties=species:S:1:pos:R:3:tags:I:1:initial_magmoms:R:1:forces:R:3 unique_id=deb548a34ca04229bf169e2ddb35bdb6 energy=-372.51934250657735 stress="0.005486628750588683 -3.4260216391847936e-05 0.00019571523134313693 -3.4260216391847936e-05 0.0052968531600852695 -5.942955657445455e-05 0.00019571523134313693 -5.942955657445455e-05 -0.0010983874961948623" pbc="T T T"
Ni       0.01306335      -0.00856345       0.11998880        1       1.00000000       0.09055737       0.01676281      -0.13377638
Ni       2.52939833       0.00775911       0.14785842        1       1.00000000      -0.08259748       0.07393198      -0.05830493
Pt       5.11210527      -0.04954418       0.09418456        1       0.00000000      -0.03666414       0.23866369      -1.01416544
Ni       7.70750216      -0.06951460       0.14363682        1       1.00000000      -0.05614332      -0.08020877      -0.26115315
Ni       1.28468324       2.20914235       0.04639073        0       1.00000000       0.00387414       0.04538042       0.38049179
Pt       3.75432813       2.25498683       0.12219925        1       0.00000000       0.03445072      -0.01518255      -0.34878490
Pt       6.39891341       2.20872746       0.05692102        1       0.00000000       0.04246773      -0.03777911      -0.11709251
Pt       9.05303539       2.19272932       0.07389323        1       0.00000000       0.00211878       0.11339245      -0.54826302
Ni       2.54888246       4.44109337       0.00000000        0       1.00000000       0.05521866       0.03636680       0.28837485
Ni       5.07201265       4.43742990       0.04548757        0       1.00000000      -0.10394626       0.12459481       0.30163961
Pt       7.71937787       4.45481090       0.04046264        0       0.00000000       0.04425466       0.03521480      -0.04557092
Ni      10.29284181       4.42277668       0.02037009        0       1.00000000       0.10282259       0.00011200       0.25654462
Ni       3.79605024       6.59260605       0.03602506        0       1.00000000      -0.01300739      -0.03676244       0.38230179
Pt       6.34828243       6.65176208       0.11132637        1       0.00000000      -0.06879948       0.06403200      -0.39594585
Ni       8.97437722       6.58666759       0.01560503        0       1.00000000      -0.05826581       0.02614215       0.04718747
Ni      11.55059656       6.55794545       0.01500428        0       1.00000000       0.07522443       0.05530135       0.23109317
Ni       1.31580297       0.73740983       2.16100179        3       1.00000000       0.05014028       0.05066573       0.21952783
Ni       3.80377579       0.76031296       2.19061331        3       1.00000000      -0.04689964       0.09920953       0.28123157
Ni       6.40367752       0.76155319       2.19469281        3       1.00000000      -0.06393275       0.17085261       0.27319368
Pt       8.98610594       0.71278024       2.20483473        3       0.00000000       0.05276841       0.11561959       0.02427830
Ni       2.55009870       2.90704629       2.21251101        3       1.00000000       0.02540616      -0.12228287       0.28866739
Ni       5.10287133       2.94971819       2.19086266        3       1.00000000      -0.08053341       0.03838035       0.13468932
Ni       7.68523743       2.94861294       2.20220957        3       1.00000000       0.06046728       0.02682133       0.19562949
Ni      10.27099757       2.92013748       2.20950403        3       1.00000000       0.05363402      -0.07858653       0.24250947
Ni       3.87389213       5.12315037       2.13994394        2       1.00000000       0.10078258      -0.09153848       0.08448103
Ni       6.37950585       5.12920854       2.17916584        3       1.00000000      -0.04988510      -0.01208378       0.09487172
Ni       8.93533177       5.09352268       2.19094026        3       1.00000000      -0.10894718      -0.24534448       0.23544986
Pt      11.56907817       5.05224097       2.16520296        3       0.00000000       0.16153647      -0.18172351       0.09914621
Ni       5.12268448       7.30104220       2.16119191        3       1.00000000       0.04588645      -0.12772524       0.16356215
Ni       7.63619965       7.32978126       2.15625179        3       1.00000000      -0.14406948      -0.05247758       0.14028215
Pt      10.20274615       7.25525660       2.14170792        2       0.00000000      -0.08523304      -0.18331735      -0.24247853
Ni      12.83272465       7.28448417       2.10362317        2       1.00000000       0.08850053      -0.15436660       0.01663279
Ni       0.06497211       1.50469029       4.25376576        5       1.00000000       0.17318879       0.04164002      -0.14532886
Ni       2.52745769       1.50110018       4.23476726        4       1.00000000      -0.06188141       0.05721789      -0.22018283
Ni       5.11456328       1.48335534       4.24284182        4       1.00000000      -0.10392909      -0.00913604      -0.39543458
Ni       7.68417283       1.47906192       4.27515509        5       1.00000000      -0.02783469      -0.01399834      -0.25277872
Ni       1.28604251       3.65048370       4.30810690        5       1.00000000       0.02132308      -0.04906235      -0.01117696
Ni       3.81198136       3.69409768       4.23609008        4       1.00000000      -0.08619825       0.03703012      -0.28420008
Pt       6.39761657       3.66970844       4.26403840        5       0.00000000      -0.05035348       0.01344919      -0.01664154
Ni       9.00088657       3.69071335       4.24668204        4       1.00000000       0.09418121       0.01785663      -0.31668126
Ni       2.57201334       5.78824043       4.30998947        5       1.00000000       0.00103291      -0.18445273      -0.03894001
Ni       5.10286863       5.81740910       4.24018454        4       1.00000000      -0.00310599      -0.17809347      -0.31131477
Ni       7.70370140       5.82337196       4.24679423        4       1.00000000       0.01970737      -0.05817412      -0.33063509
Ni      10.23698346       5.78061398       4.33801588        5       1.00000000       0.02034571      -0.06974707      -0.03370596
Pt       3.90493224       7.98829111       4.24222129        4       0.00000000       0.09484482      -0.11239387       0.14215540
Ni       6.39733635       8.06027472       4.21292342        4       1.00000000      -0.05157813       0.03062586      -0.34279420
Pt       8.87079169       8.04220947       4.22667959        4       0.00000000      -0.10612449       0.06674560       0.07846617
Pt      11.55149512       8.01664934       4.22126827        4       0.00000000       0.01030130      -0.10265608      -0.01973646
Pt       0.02119177      -0.00182877       6.45965112        8       0.00000000       0.05785547       0.09028938       0.34290754
Pt       2.55864622      -0.00166593       6.46903637        8       0.00000000      -0.03640752       0.06813844       0.32526407
Pt       5.13210435      -0.04573619       6.38730411        7       0.00000000      -0.01253360       0.20507981       1.08848060
Pt       7.68985167      -0.06410325       6.50504169        8       0.00000000      -0.03468627       0.16788127       0.42792489
Ni       1.28807314       2.26227782       6.38977187        7       1.00000000      -0.01080498       0.21189886      -0.29565536
Pt       3.83333935       2.29768023       6.32371726        6       0.00000000      -0.03561942      -0.03105699       0.34183559
Ni       6.41159798       2.22288287       6.34897768        6       1.00000000       0.00125732      -0.01120676       0.14425148
Pt       8.98516570       2.28624078       6.31581213        6       0.00000000       0.01221309       0.00660051       0.52796121
Ni       2.53461978       4.43161531       6.39040576        7       1.00000000      -0.06471753      -0.00748465      -0.40763762
Ni       5.10582197       4.39321614       6.41178683        7       1.00000000      -0.05792922       0.04671602      -0.28203722
Ni       7.70934038       4.39258686       6.34171465        6       1.00000000       0.09731648       0.05003448      -0.01501873
Ni      10.28315024       4.42275359       6.40139395        7       1.00000000       0.04224266       0.00017346      -0.40676040
Ni       3.81119148       6.50536360       6.41277698        7       1.00000000      -0.03603538      -0.16449104      -0.26856293
Pt       6.40098199       6.48686682       6.32067474        6       0.00000000       0.03617750       0.08914163       0.32212507
Ni       8.99605129       6.50329386       6.40882115        7       1.00000000       0.01673018      -0.13066887      -0.27425680
Ni      11.52695195       6.49864945       6.42809203        7       1.00000000      -0.01016524       0.01003814      -0.28814227
