64
Lattice="10.282352161709195 0.02582340721920804 -0.04454554545103178 5.163539807518704 8.795291801954091 -0.11147900567661123 -0.036371285556328174 -0.08410444299176875 8.739230578966104" Properties=species:S:1:pos:R:3:tags:I:1:initial_magmoms:R:1:forces:R:3 unique_id=22f7eee01956487da99855dc964b5a2b stress="-8.811231445972345e-05 4.5833119748774434e-07 2.2250502295384782e-07 4.5833119748774434e-07 -5.781455387400547e-05 3.0089214616138598e-05 2.2250502295384782e-07 3.0089214616138598e-05 -2.443414530451521e-05" energy=-394.0846157146236 pbc="T T T"
Ni       0.01390840      -0.07145946       0.18186395        4       1.00000000       0.06084586      -0.12933149       0.30339106
Ni       2.53225887      -0.05332547       0.18711387        4       1.00000000      -0.07216259      -0.07550433       0.32251957
Pt       5.13961076      -0.06893691       0.12618055        4       0.00000000      -0.04304488      -0.26238297       0.33203067
Ni       7.72661867      -0.04883803       0.13989259        4       1.00000000      -0.01574173      -0.10286346       0.30218752
Pt       1.27877083       2.20120573       0.08217734        4       0.00000000       0.03305575      -0.02836239      -0.01977612
Pt       3.82649679       2.22104495       0.15471646        4       0.00000000      -0.08437030       0.05082279       0.25109225
Pt       6.45130741       2.22186742       0.05332583        4       0.00000000       0.01154005       0.04975473      -0.01267319
Pt       9.01167657       2.25674235       0.07062586        4       0.00000000      -0.05072077       0.06482162       0.20027175
Ni       2.54746997       4.45569234       0.04451766        4       1.00000000      -0.02358296       0.07480916       0.19356266
Pt       5.14100336       4.52457755       0.02860561        4       0.00000000      -0.08001226       0.21804627      -0.08841038
Ni       7.72586233       4.46325531      -0.00452863        4       1.00000000      -0.09416093       0.13944705       0.12133545
Ni      10.31026947       4.46717016      -0.01083704        4       1.00000000       0.07050132       0.13347630       0.11688196
Ni       3.84154385       6.62578348       0.02038570        4       1.00000000      -0.09933363       0.12475321       0.17813851
Ni       6.45512121       6.63617281       0.01595526        4       1.00000000       0.03403648       0.09436361       0.15450677
Ni       8.97824742       6.56786585       0.05140097        4       1.00000000      -0.10745433      -0.05477779       0.26238535
Ni      11.62296672       6.55861768      -0.03113696        4       1.00000000       0.08869553      -0.14436277       0.08707420
Ni       1.30301418       0.70177386       2.22232606        3       1.00000000       0.00542549      -0.00284221       0.18081323
Ni       3.78535656       0.73001385       2.19423538        3       1.00000000      -0.17741962      -0.05606047      -0.05528653
Ni       6.44666408       0.73917741       2.19184675        3       1.00000000       0.10437935      -0.08401121      -0.02079825
Pt       9.00870283       0.71818352       2.18635201        3       0.00000000       0.11152709       0.13280413      -0.05968891
Ni       2.54976357       2.94579217       2.24445943        3       1.00000000      -0.01049915       0.06545684       0.16962408
Ni       5.12896714       2.96098159       2.18120119        3       1.00000000      -0.09661292       0.27219111      -0.03717494
Ni       7.68824683       2.93376852       2.18856345        3       1.00000000      -0.01094066      -0.08786088       0.06334155
Ni      10.33273676       2.94297484       2.20198828        3       1.00000000       0.15523831      -0.03983795       0.18915697
Ni       3.83455142       5.12180077       2.16735361        3       1.00000000      -0.04194952       0.03192278       0.16503058
Ni       6.41327340       5.15277976       2.13603005        3       1.00000000      -0.04892668       0.12957591       0.05235404
Pt       8.97428532       5.07321962       2.12718534        3       0.00000000      -0.02581117      -0.08374240       0.07966912
Ni      11.62365716       5.09295449       2.10684504        3       1.00000000       0.13390287      -0.21060592       0.13363798
Ni       5.18065879       7.26421017       2.08365371        3       1.00000000       0.02029558      -0.18175500      -0.00073391
Ni       7.65013757       7.32191159       2.06488843        3       1.00000000      -0.13811325      -0.11051933       0.02361343
Pt      10.36956591       7.26719106       2.12770199        3       0.00000000       0.18157491      -0.06446427      -0.10810445
Ni      12.88090204       7.27332302       2.04470445        3       1.00000000       0.11328634      -0.22527055      -0.00682369
Ni       0.03867140       1.45518610       4.30125319        2       1.00000000       0.10391475       0.01055377      -0.07202074
Ni       2.49250345       1.47050018       4.26275945        2       1.00000000      -0.04395720       0.09747877      -0.12611669
Pt       5.13995990       1.45795310       4.19398393        2       0.00000000      -0.15201382       0.00348569       0.01637249
Ni       7.70369585       1.44974228       4.26776243        2       1.00000000       0.03468442      -0.02012256      -0.06566056
Ni       1.28378881       3.63027629       4.30052717        2       1.00000000       0.05176201       0.04745801      -0.10062784
Ni       3.79592469       3.69727185       4.24329182        2       1.00000000      -0.05757252       0.13918560      -0.18028753
Pt       6.44754706       3.70557414       4.26351827        2       0.00000000      -0.00579911      -0.01186558      -0.07992320
Ni       9.03314531       3.66954161       4.23956487        2       1.00000000       0.13000973       0.02751114      -0.06912619
Ni       2.55267336       5.77112616       4.27940046        2       1.00000000      -0.06908393      -0.12398140      -0.15090143
Ni       5.13333710       5.82034816       4.26192030        2       1.00000000      -0.00721093      -0.05017270      -0.17327191
Ni       7.67556848       5.82976873       4.24692492        2       1.00000000      -0.09159853       0.08976151      -0.08684246
Ni      10.33247696       5.78227211       4.26221771        2       1.00000000       0.14949608      -0.11702960       0.01496195
Pt       3.86450399       7.93588621       4.19181277        2       0.00000000      -0.01192659      -0.15018519       0.12167580
Ni       6.41081702       8.00340289       4.17740742        2       1.00000000      -0.12698770      -0.04325430      -0.17114781
Pt       8.91982578       7.98951804       4.14185231        2       0.00000000      -0.13866346      -0.00136084       0.03320220
Ni      11.59978007       7.98395785       4.18827030        2       1.00000000       0.09423797      -0.10966233       0.02122812
Pt      -0.01415490      -0.10176994       6.50417321        1       0.00000000       0.11799129      -0.04940628       0.11468075
Pt       2.52152641      -0.04681514       6.48803323        1       0.00000000      -0.08449267       0.05802136       0.17170795
Pt       5.14027702      -0.06233606       6.39476629        1       0.00000000       0.07368884       0.04866813      -0.39302655
Pt       7.68793800      -0.08409376       6.46567076        1       0.00000000      -0.06605858      -0.02907137       0.10517463
Ni       1.25984448       2.20338687       6.34521498        1       1.00000000       0.02208502       0.12832623      -0.29026811
Pt       3.80723036       2.27785805       6.35914205        1       0.00000000       0.00671095       0.27646007      -0.23662754
Ni       6.41525160       2.20452984       6.35341579        1       1.00000000      -0.01213579       0.09153780      -0.26668686
Pt       8.99132798       2.25904249       6.29371356        1       0.00000000       0.04161468       0.13350483      -0.31976593
Ni       2.52756666       4.39593882       6.38474315        1       1.00000000      -0.05004580       0.15890074      -0.22901359
Ni       5.13237310       4.40472239       6.32596825        1       1.00000000      -0.03934345       0.16218884      -0.24843997
Ni       7.65792717       4.36079044       6.39561192        1       1.00000000      -0.15466686       0.00437671      -0.11966531
Ni      10.33438620       4.35999533       6.35646834        1       1.00000000       0.29252897      -0.01449156      -0.23885390
Ni       3.84606499       6.46077909       6.38723816        1       1.00000000       0.00264726      -0.16949269      -0.13747646
Ni       6.39523302       6.48330833       6.36538742        1       1.00000000      -0.02004351      -0.05244404      -0.20795092
Pt       8.98917062       6.41859504       6.38930800        1       0.00000000       0.03893556      -0.12481320       0.09882015
Ni      11.59285752       6.48567610       6.34011200        1       1.00000000       0.06784533      -0.04775568      -0.20727090
