64
Lattice="10.184378461135552 -0.01601262767865536 -0.016959702359623314 5.078321888216717 8.810200067607582 0.012756050030666308 -0.01384753899018445 0.020021399667382315 8.722709323545327" Properties=species:S:1:pos:R:3:tags:I:1:initial_magmoms:R:1:forces:R:3 unique_id=f3a7a0ee073f427e920b78ffa780a8c7 stress="-0.005507475277155595 -7.783560707254008e-06 -1.61365932592398e-05 -7.783560707254008e-06 -0.005520764145798593 7.595650974024866e-08 -1.61365932592398e-05 7.595650974024866e-08 -0.004933656815199333" energy=-392.438953065328 pbc="T T T"
Ni       0.02773079       0.02682514       0.15221686        4       1.00000000       0.07661414       0.08853899       0.04731961
Ni       2.51175257      -0.00445473       0.20609852        4       1.00000000      -0.04727636      -0.03611172       0.13155016
Ni       5.09677531      -0.01827845       0.05670088        4       1.00000000      -0.05698542      -0.03598559      -0.05769714
Ni       7.63400362      -0.00936234       0.02756816        4       1.00000000       0.04212482       0.00853779      -0.03553832
Ni       1.22827523       2.22775229       0.11999965        4       1.00000000      -0.03817716       0.07688210       0.03594516
Pt       3.79991450       2.21152884       0.21475733        4       0.00000000      -0.02434365      -0.01925811      -0.07189226
Ni       6.39877256       2.23173471       0.06938814        4       1.00000000       0.01569476       0.12963408       0.03450668
Ni       8.91273437       2.24512374       0.05802030        4       1.00000000       0.03548693       0.09348236       0.00774897
Ni       2.50367477       4.43564512       0.12160138        4       1.00000000      -0.05552660       0.02421881       0.08214587
Ni       5.07233856       4.41454326       0.18831902        4       1.00000000      -0.08837854      -0.02608540       0.19194109
Ni       7.64918352       4.35106278       0.07385424        4       1.00000000       0.08350909      -0.03584472      -0.01617922
Ni      10.19372009       4.36190095       0.10440308        4       1.00000000      -0.00150425       0.00170505       0.05603151
Ni       3.80198441       6.58416065       0.06868447        4       1.00000000       0.00389763      -0.06672002      -0.01196077
Ni       6.34057278       6.60860624       0.04824219        4       1.00000000      -0.01521854      -0.00683978      -0.15417886
Pt       8.90119431       6.58881701       0.17693854        4       0.00000000      -0.04274600      -0.01329768      -0.08231747
Ni      11.45423874       6.57108515       0.04756874        4       1.00000000      -0.04926415      -0.05673749      -0.11606303
Ni       1.30562742       0.77284440       2.14343565        3       1.00000000      -0.00697648       0.09461111       0.00972091
Ni       3.77219886       0.67593975       2.18266915        3       1.00000000       0.00235772      -0.09406210       0.04262509
Pt       6.30014337       0.74449362       2.09643239        3       0.00000000      -0.00277538       0.00210424      -0.02622391
Pt       8.96028681       0.81929227       2.12025166        3       0.00000000      -0.02124182       0.01385807       0.03576531
Ni       2.50726371       2.98268468       2.19170035        3       1.00000000      -0.04625830       0.05687287       0.04444580
Ni       5.05448770       2.96546619       2.21410721        3       1.00000000      -0.02033995       0.01815210       0.13969322
Ni       7.65760283       2.96056796       2.13439792        3       1.00000000       0.04902158       0.02761675       0.02442286
Ni      10.21375674       2.97609866       2.13756728        3       1.00000000       0.02546504       0.03359607       0.02946250
Ni       3.77685770       5.08177174       2.20021078        3       1.00000000      -0.01641965      -0.01822055       0.07118411
Pt       6.41654552       5.12292977       2.13916603        3       0.00000000       0.11843419       0.00284213       0.02216108
Ni       8.95383481       5.12534399       2.20478050        3       1.00000000       0.08927930       0.00418495       0.00617332
Ni      11.41134137       5.09441924       2.14272878        3       1.00000000      -0.04905933       0.00424304      -0.06403510
Pt       5.13807198       7.33872149       2.16957343        3       0.00000000      -0.01104657      -0.01262126      -0.02058841
Ni       7.66606689       7.37134740       2.24811767        3       1.00000000       0.01664048      -0.00120658       0.07716777
Ni      10.12637347       7.30828488       2.25014781        3       1.00000000      -0.01507514      -0.00913638       0.02895325
Pt      12.65227379       7.23215093       2.14992380        3       0.00000000      -0.01571045      -0.01311392      -0.03941412
Ni       0.00234273       1.48102294       4.34589984        2       1.00000000      -0.01415306       0.01228318      -0.01686404
Pt       2.47154393       1.42523115       4.23462116        2       0.00000000      -0.06545121      -0.07840791       0.00911116
Pt       5.05255487       1.39889275       4.32238288        2       0.00000000       0.00360469      -0.06683005      -0.02290239
Pt       7.65683887       1.44227980       4.40471776        2       0.00000000      -0.03224994       0.02132839      -0.00824224
Pt       1.30298527       3.75038194       4.33311319        2       0.00000000       0.02995584      -0.01701748      -0.02443059
Ni       3.79666607       3.74392929       4.29418345        2       1.00000000       0.00617983       0.03976049      -0.03399709
Pt       6.31993557       3.72385580       4.34828733        2       0.00000000      -0.01337205      -0.00649643       0.06761052
Pt       8.92868618       3.74786099       4.33220362        2       0.00000000      -0.01632707       0.05003828      -0.00469845
Ni       2.52824331       5.87309945       4.37983855        2       1.00000000       0.04972081      -0.01305328      -0.06341439
Ni       5.06961705       5.88414721       4.34408174        2       1.00000000      -0.01138869      -0.03264685      -0.06975098
Ni       7.61551270       5.93888756       4.30631870        2       1.00000000       0.00914458       0.01526133      -0.09690462
Ni      10.20816237       5.92599930       4.27592754        2       1.00000000       0.08950210      -0.00488236      -0.17452071
Pt       3.79613411       8.00429785       4.38450714        2       0.00000000       0.02461940      -0.00134041      -0.04811321
Ni       6.36699480       8.02500180       4.33318737        2       1.00000000      -0.01154748      -0.03104293      -0.00283560
Ni       8.89422928       8.01620370       4.28427717        2       1.00000000      -0.01835099      -0.06284708      -0.02771233
Ni      11.40185677       7.99613141       4.37275305        2       1.00000000      -0.00084361      -0.03558871      -0.08227479
Pt      -0.06924607       0.03455145       6.52718516        1       0.00000000      -0.04616062       0.02602632       0.12327591
Pt       2.54892798      -0.03068978       6.50301617        1       0.00000000       0.05408938      -0.05972559       0.16910753
Ni       5.14965270      -0.02823372       6.44758608        1       1.00000000       0.02511690      -0.09243925      -0.07243072
Ni       7.56936751      -0.03564850       6.47456332        1       1.00000000      -0.10612411      -0.09657826      -0.04005979
Ni       1.21414042       2.26067794       6.48159173        1       1.00000000      -0.04254942       0.00319816      -0.01977984
Pt       3.78492493       2.26083787       6.43425495        1       0.00000000      -0.06136200       0.11563538       0.10378800
Ni       6.39592590       2.19046001       6.49536868        1       1.00000000      -0.01482574      -0.01736162       0.02948055
Ni       8.89967594       2.24126710       6.48698224        1       1.00000000       0.01600804       0.08171200      -0.01244945
Ni       2.48974130       4.47884456       6.48042308        1       1.00000000      -0.00837829       0.08524871       0.03093599
Pt       5.07364030       4.51158294       6.53844314        1       0.00000000      -0.00576774       0.09400699       0.22445467
Ni       7.63956117       4.38471707       6.48595168        1       1.00000000       0.01784770      -0.02598067      -0.00525722
Ni      10.21101803       4.38322406       6.49252693        1       1.00000000       0.11930096      -0.04590047       0.06525030
Ni       3.74094198       6.61150056       6.48080633        1       1.00000000      -0.09502416       0.02580196      -0.02662791
Ni       6.34676148       6.61031693       6.42694462        1       1.00000000       0.05736083       0.03970148      -0.22878065
Pt       8.95633165       6.53031355       6.35832364        1       0.00000000       0.08937184      -0.09960664      -0.01625707
Ni      11.48248684       6.60182012       6.42532017        1       1.00000000       0.03785131      -0.05809589      -0.14758623
