64
Lattice="10.512146815714082 0.029491970379435257 -0.009012452740408189 5.281614203413291 9.093969859856317 -0.0059042189883502915 -0.007358636848316003 -0.0013180400804532158 9.03542483413838" Properties=species:S:1:pos:R:3:tags:I:1:initial_magmoms:R:1:forces:R:3 unique_id=cc0fd7637e754181984d299096e35998 stress="-0.004254902868872278 -5.323987760319144e-05 1.2295694862551768e-05 -5.323987760319144e-05 -0.004283549199700379 -2.047397798569893e-07 1.2295694862551768e-05 -2.047397798569893e-07 -0.003520052794383069" energy=-411.3491386319975 pbc="T T T"
Pt      -0.03326874      -0.01301659       0.12655038        4       0.00000000      -0.02381236      -0.00698317       0.00602097
Ni       2.64246421      -0.00749752       0.13614347        4       1.00000000       0.05291471      -0.08428880       0.20200164
Pt       5.33396699      -0.03712878       0.05713440        4       0.00000000       0.10656061      -0.00259616      -0.07399819
Ni       7.86122940       0.00689109       0.08340722        4       1.00000000      -0.00500628       0.03880526       0.18227368
Pt       1.33482348       2.24744464      -0.00737981        4       0.00000000       0.00508464      -0.03426194      -0.18035547
Pt       3.96802949       2.25981663       0.00091160        4       0.00000000       0.00676388      -0.08376976      -0.10821988
Pt       6.58538296       2.30470150       0.01606086        4       0.00000000      -0.02011597       0.07086713      -0.12298002
Pt       9.16388546       2.28265405       0.00344048        4       0.00000000      -0.02103961      -0.02339469      -0.16701423
Pt       2.64674232       4.57687477       0.10569907        4       0.00000000      -0.01906116      -0.06416368       0.00476937
Ni       5.29078096       4.55684796       0.13648519        4       1.00000000       0.01997616      -0.00446489       0.23316047
Ni       7.87956430       4.56579107       0.15956307        4       1.00000000      -0.03442888       0.03480154       0.31348182
Pt      10.48307078       4.60398240       0.01340189        4       0.00000000      -0.08066153       0.02335884      -0.18999830
Pt       3.88824889       6.86224805       0.03023899        4       0.00000000      -0.10711815       0.03264971      -0.12352409
Pt       6.60425230       6.76856616       0.17524566        4       0.00000000      -0.07315743      -0.03754480       0.15604695
Pt       9.22268562       6.85532726       0.20175833        4       0.00000000      -0.00971783       0.05844060       0.14735402
Ni      11.85056328       6.87451033       0.05612827        4       1.00000000      -0.01060790       0.03118031       0.06694973
Pt       1.34344319       0.72279083       2.28278053        3       0.00000000       0.08540085      -0.01711997       0.01457404
Pt       3.99652086       0.65646667       2.32429900        3       0.00000000       0.09922082      -0.06445860       0.02797776
Ni       6.61343953       0.73006518       2.26590352        3       1.00000000       0.08501376      -0.01326567       0.02205864
Ni       9.13505414       0.75418446       2.27779092        3       1.00000000      -0.13731487       0.00131011       0.06323337
Pt       2.66251622       3.01361361       2.35015801        3       0.00000000       0.04855487      -0.06518685       0.02104957
Pt       5.30396939       3.04103086       2.32698502        3       0.00000000       0.01404551      -0.06338159       0.04791726
Pt       7.87279636       3.07539406       2.28306237        3       0.00000000       0.01210279      -0.06047570      -0.01686273
Pt      10.48367778       3.06475421       2.27896976        3       0.00000000       0.02157946       0.03763951      -0.09525368
Pt       3.98368567       5.32857972       2.28106177        3       0.00000000       0.02187765       0.02718587       0.03902761
Ni       6.64010551       5.32284662       2.28950385        3       1.00000000       0.07876507       0.01524133       0.20371664
Ni       9.15251688       5.36693607       2.28094946        3       1.00000000      -0.09874496       0.04713840       0.10098250
Pt      11.78870814       5.45309384       2.24374030        3       0.00000000      -0.05540654       0.06710944      -0.05112906
Pt       5.23884912       7.59198193       2.33869001        3       0.00000000      -0.09518861       0.04757851       0.12957581
Ni       7.93560288       7.53228974       2.30769284        3       1.00000000       0.04027869      -0.11355853       0.22860185
Ni      10.54102512       7.60982958       2.28217114        3       1.00000000       0.07732929       0.07074617       0.10289929
Ni      13.13316466       7.66834366       2.25852569        3       1.00000000      -0.05083043       0.14353295       0.04166106
Pt      -0.00804317       1.48593808       4.50491016        2       0.00000000      -0.00330384      -0.05541399      -0.15568983
Ni       2.65669746       1.51904833       4.51953907        2       1.00000000       0.01102088      -0.00365575      -0.04398111
Pt       5.20384637       1.55185982       4.57974761        2       0.00000000      -0.01578171       0.01654167      -0.00792995
Pt       7.86750190       1.51577355       4.52511676        2       0.00000000      -0.00936807       0.01238468      -0.07521901
Pt       1.34714541       3.75580860       4.53724849        2       0.00000000      -0.05205107       0.05120487      -0.12207958
Ni       3.96286176       3.77363435       4.51457976        2       1.00000000      -0.00083400       0.02730865       0.00660695
Ni       6.56719504       3.80680839       4.49439660        2       1.00000000       0.01360325      -0.02673413       0.00899636
Pt       9.14789189       3.85769103       4.49782031        2       0.00000000      -0.05331699       0.04196729      -0.03043144
Pt       2.66738618       6.11009899       4.51266525        2       0.00000000       0.00582127       0.05076453      -0.08551054
Pt       5.31579675       6.00881142       4.48352888        2       0.00000000       0.07431358      -0.08001275       0.04604275
Ni       7.89910837       6.07382169       4.44540472        2       1.00000000       0.01357081      -0.01700785      -0.06971455
Pt      10.47156952       6.12704476       4.44612896        2       0.00000000      -0.05702566       0.05302195      -0.05931954
Ni       3.94702102       8.33633155       4.48698583        2       1.00000000      -0.02649433       0.00026766      -0.08438661
Pt       6.68717108       8.31989714       4.46072686        2       0.00000000       0.12990267      -0.02468486       0.07279918
Ni       9.21677957       8.35293770       4.47767796        2       1.00000000       0.02936884       0.00277692       0.01884107
Pt      11.83158956       8.37337731       4.48032574        2       0.00000000      -0.04162407       0.01691132      -0.08949313
Pt      -0.10356524       0.01250158       6.65316655        1       0.00000000      -0.11208182      -0.06942704       0.02355724
Pt       2.67757684       0.10602602       6.70082428        1       0.00000000       0.03330216       0.09211271       0.15396780
Ni       5.28357102       0.02388339       6.63947245        1       1.00000000       0.08230448       0.00679793      -0.10664890
Ni       7.84851129       0.00828125       6.69612313        1       1.00000000      -0.12088900      -0.04479294      -0.08072814
Ni       1.30890659       2.28018532       6.61921935        1       1.00000000      -0.06613066      -0.01501538      -0.23304347
Ni       3.94045340       2.28047882       6.61264230        1       1.00000000      -0.08709315       0.08119703      -0.16121961
Ni       6.57415761       2.24975651       6.62609321        1       1.00000000       0.04461961      -0.11937656      -0.14263919
Ni       9.19533224       2.29127243       6.62254515        1       1.00000000       0.01951135      -0.01489544      -0.21673085
Pt       2.61251853       4.54314421       6.65662065        1       0.00000000      -0.01447127       0.05645952       0.06701194
Pt       5.25042475       4.46854181       6.70277167        1       0.00000000       0.03972504      -0.12504214       0.15120758
Pt       7.91385331       4.49013962       6.73235821        1       0.00000000       0.05142181      -0.04814693       0.23137108
Ni      10.52819350       4.55213499       6.61858108        1       1.00000000       0.01057826      -0.00293211      -0.23141300
Ni       3.91455064       6.83833017       6.63173860        1       1.00000000      -0.03845371       0.02086846      -0.18518592
Pt       6.57872644       6.82165967       6.66780408        1       0.00000000       0.07079547      -0.02567687       0.15417768
Pt       9.28389510       6.85780711       6.65537719        1       0.00000000       0.06775852       0.04046427       0.11985498
Ni      11.86399215       6.87409070       6.69936487        1       1.00000000       0.06804510       0.09309444      -0.09906861
