64
Lattice="10.332293200433917 -0.021953520456380146 0.02594946609668634 5.147134293799232 8.830861954819213 -0.012574436011964493 0.0 0.0 21.585086622935183" Properties=species:S:1:pos:R:3:tags:I:1:initial_magmoms:R:1:forces:R:3 unique_id=a2c7c51cc1af4509ad5f843800b46ddb energy=-374.8676579604081 stress="0.005622937113959891 -0.00011628677421375451 0.00027871242832134825 -0.00011628677421375451 0.005206728774816594 -4.898921029012565e-06 0.00027871242832134825 -4.898921029012565e-06 -0.0018240381715379974" pbc="T T T"
Ni       0.01188778      -0.00523440       0.14272467        1       1.00000000       0.07913549       0.01076381      -0.18554543
Ni       2.58421240       0.00094362       0.16842995        2       1.00000000      -0.02455626       0.03798310      -0.05786013
Ni       5.16150187      -0.03008912       0.12946340        1       1.00000000      -0.03820208       0.18089662      -0.38408775
Ni       7.74424766      -0.07487699       0.16449606        2       1.00000000      -0.08099492      -0.05380846      -0.22457789
Ni       1.29724778       2.21280920       0.05772115        1       1.00000000       0.00751911       0.00708216       0.42173070
Pt       3.79953713       2.20716895       0.06456739        1       0.00000000       0.02433602      -0.01124017       0.13970664
Pt       6.43714698       2.15217093       0.07614300        1       0.00000000       0.09677983      -0.05352559      -0.05401538
Pt       9.12420293       2.19329139       0.09112991        1       0.00000000      -0.02059851       0.06974350      -0.55354148
Ni       2.55353501       4.43512329       0.00000000        0       1.00000000      -0.02594875      -0.01628421       0.15693186
Ni       5.14427376       4.42060219       0.11475973        1       1.00000000       0.11502404      -0.05281333      -0.35433943
Pt       7.78458968       4.45597933       0.06657486        1       0.00000000       0.03027565      -0.00217600      -0.07527092
Ni      10.36784669       4.42761526       0.03758256        0       1.00000000       0.03166231       0.00718073       0.12102663
Ni       3.82533550       6.63835019       0.03722863        0       1.00000000      -0.02453146       0.09331680       0.28714129
Pt       6.41640825       6.67490083       0.15123964        2       0.00000000      -0.01376432       0.04131281      -0.62008895
Ni       9.05380863       6.63343442       0.03777567        0       1.00000000      -0.08937229       0.04771709       0.08220035
Ni      11.62846150       6.60618759       0.02900727        0       1.00000000       0.09491987       0.03157802       0.20864900
Ni       1.32513020       0.76530290       2.14452138        3       1.00000000       0.04853960       0.18191041       0.02103229
Ni       3.85268557       0.76192147       2.18502095        4       1.00000000      -0.04253618       0.14444141       0.24631297
Ni       6.44980894       0.74814904       2.20032046        4       1.00000000      -0.04699301       0.18422050       0.21662937
Pt       9.05014298       0.71865881       2.22035480        4       0.00000000       0.00134425       0.17440197       0.04605218
Ni       2.56532357       2.88505784       2.21121097        4       1.00000000      -0.02756002      -0.15232526       0.29467822
Ni       5.15905576       2.89822535       2.20746685        4       1.00000000      -0.06789370      -0.14864295       0.22136938
Ni       7.75173458       2.94035891       2.21749619        4       1.00000000       0.07957162       0.01489483       0.13684983
Ni      10.35434233       2.91065816       2.23257931        4       1.00000000       0.04283333      -0.10011669       0.19065689
Pt       3.87932865       5.11656869       2.11844704        3       0.00000000      -0.00209273      -0.13584316       0.00549004
Ni       6.48548320       5.12519127       2.19090373        4       1.00000000       0.10468736      -0.08013626       0.17602436
Ni       9.00757302       5.11200275       2.20408349        4       1.00000000      -0.07022428      -0.14334422       0.20331302
Pt      11.60312740       5.06215168       2.15001962        4       0.00000000      -0.02447423      -0.13765625       0.05744161
Ni       5.15244936       7.36337239       2.15564502        4       1.00000000      -0.08156815      -0.00875802       0.11218591
Ni       7.74036763       7.35051723       2.16242165        4       1.00000000       0.03540250      -0.02489786       0.10781779
Pt      10.29395930       7.35694733       2.08156763        3       0.00000000      -0.00549346      -0.09194482      -0.08142714
Ni      12.90725248       7.32708870       2.13847538        3       1.00000000       0.00407634      -0.06284340       0.02804081
Ni       0.04714468       1.54129165       4.29889301        6       1.00000000       0.15455347       0.13928941      -0.20611864
Ni       2.58983420       1.54107923       4.31174470        6       1.00000000      -0.01659994       0.06238566      -0.20811916
Ni       5.14253776       1.49335463       4.32179206        6       1.00000000      -0.13126259       0.05603222      -0.23640620
Ni       7.75936361       1.46988753       4.32234789        6       1.00000000       0.02190446      -0.10082056      -0.26381559
Ni       1.32021730       3.62093572       4.34844228        6       1.00000000       0.04112514      -0.06876301      -0.13144944
Ni       3.82016614       3.61358470       4.32751008        6       1.00000000      -0.07051965      -0.06406243      -0.22253115
Pt       6.50418086       3.59732864       4.28231851        6       0.00000000      -0.02281138      -0.01302022      -0.13321002
Ni       9.05512139       3.64002104       4.28793766        6       1.00000000       0.04526145      -0.13126559      -0.42533006
Ni       2.56420250       5.81649195       4.36851743        7       1.00000000      -0.02726910      -0.20711738       0.00075119
Pt       5.14016801       5.81761817       4.28637562        6       0.00000000      -0.00708969      -0.11390592      -0.06359218
Ni       7.77392257       5.82611413       4.30509556        6       1.00000000      -0.00229312      -0.03817971      -0.31416850
Pt      10.32203343       5.75817757       4.40773550        7       0.00000000       0.04173409      -0.04370078       0.00490382
Pt       3.85671221       8.08551380       4.29414122        6       0.00000000      -0.03969278      -0.00990871       0.06304379
Pt       6.46125921       8.15184480       4.20104742        5       0.00000000      -0.03486340       0.21569977      -0.16128477
Pt       9.01661473       8.11145967       4.27887281        6       0.00000000      -0.12130438       0.09005459      -0.05792886
Pt      11.62145656       8.09084972       4.27385428        6       0.00000000       0.03677002       0.01733579      -0.08706861
Pt       0.02034425       0.00610831       6.54440073        9       0.00000000       0.02384515       0.18872358       0.41262756
Pt       2.60706191       0.05772099       6.55474881       10       0.00000000       0.02854870       0.12152264       0.26161002
Pt       5.17701143      -0.01670238       6.55200961       10       0.00000000      -0.03256928       0.17390390       0.41067722
Pt       7.74535315      -0.06455656       6.58508662       10       0.00000000      -0.01384090       0.19963406       0.45370092
Ni       1.32582185       2.26720004       6.44932066        8       1.00000000       0.00706346       0.13084633      -0.36571949
Ni       3.85014731       2.21406658       6.38867675        8       1.00000000      -0.10467077      -0.04217891      -0.04312299
Ni       6.46647516       2.18598974       6.41544534        8       1.00000000       0.01123709      -0.11136608       0.13167117
Pt       9.06292863       2.27500723       6.37876499        8       0.00000000       0.04412234      -0.05094489       0.53153704
Ni       2.54441053       4.39167851       6.45240746        9       1.00000000      -0.06560224      -0.04854892      -0.39919175
Pt       5.09826197       4.31747837       6.52491527        9       0.00000000      -0.07344995      -0.06686712       0.17524845
Ni       7.78533263       4.39459151       6.40752881        8       1.00000000       0.04047539       0.09516776      -0.00725804
Ni      10.37135976       4.39380855       6.50438925        9       1.00000000       0.07920943      -0.08207524      -0.20865473
Ni       3.82441320       6.55904541       6.48795878        9       1.00000000      -0.06460155      -0.12245485      -0.14287493
Pt       6.51172916       6.54756592       6.44578802        8       0.00000000       0.08223210      -0.08277450       0.62170784
Ni       9.07192954       6.54227942       6.50018212        9       1.00000000      -0.00179442      -0.03599218      -0.09824860
Ni      11.63377648       6.52175469       6.51039511        9       1.00000000       0.06284985      -0.00773582      -0.18191191
