64
Lattice="10.317168107964413 -0.008510105891619567 0.017929415934959638 5.151214086091168 8.84795491439034 -0.013626419123123741 0.014639306808925666 -0.02129911888055057 8.801181281758803" Properties=species:S:1:pos:R:3:tags:I:1:initial_magmoms:R:1:forces:R:3 unique_id=66b969bbe28e49c98887a8aebd52483b stress="0.0002135685679926641 -2.944409589205493e-09 -5.547898725728562e-06 -2.944409589205493e-09 0.00022865203553001923 1.9628692454850115e-05 -5.547898725728562e-06 1.9628692454850115e-05 0.0002085411512501925" energy=-397.3415806149988 pbc="T T T"
Ni       0.01193970       0.00463784       0.17823913        4       1.00000000       0.06645034       0.07496790       0.33841401
Ni       2.57775735       0.00783772       0.20235901        4       1.00000000      -0.01060983       0.03719965       0.40269156
Ni       5.15361075      -0.02690166       0.17314465        4       1.00000000      -0.04839002       0.07164442       0.21981427
Ni       7.73292160      -0.06529721       0.20126308        4       1.00000000      -0.00724370      -0.10238409       0.36882934
Ni       1.29251281       2.21882666       0.10364273        4       1.00000000       0.02031264       0.01637870       0.24903905
Pt       3.77544483       2.17280354       0.18959006        4       0.00000000      -0.06018907       0.02977300       0.23567277
Pt       6.44733693       2.12708487       0.10676042        4       0.00000000       0.06319517      -0.08053861      -0.06863535
Pt       9.12027879       2.20556761       0.12738972        4       0.00000000       0.11592815      -0.00538086       0.13000622
Ni       2.52766973       4.44698536       0.04867028        4       1.00000000      -0.06652619       0.04024298       0.02405562
Pt       5.10213486       4.45577351       0.03009813        4       0.00000000      -0.09272169       0.06782902      -0.14757430
Pt       7.78400317       4.46455280       0.02939612        4       0.00000000       0.10828375       0.09792310      -0.13451026
Ni      10.36955025       4.44578090       0.06328837        4       1.00000000       0.11562050       0.09504443       0.03148488
Ni       3.81266943       6.67810531       0.07458396        4       1.00000000      -0.07918444       0.08924184       0.16968893
Pt       6.44232035       6.74092230       0.09227243        4       0.00000000      -0.01853901       0.04562328      -0.12219313
Ni       9.05740782       6.66668977       0.05814332        4       1.00000000       0.03301022       0.06575312      -0.02601177
Ni      11.61928595       6.63241932       0.06379740        4       1.00000000       0.10016810      -0.02698357      -0.00078614
Ni       1.32371807       0.74184246       2.22718971        3       1.00000000       0.02946871       0.03890828       0.15638016
Ni       3.82094324       0.73442151       2.23158736        3       1.00000000      -0.19452680       0.03122150       0.08573266
Ni       6.45903319       0.73945426       2.22842962        3       1.00000000       0.06688795       0.00611796       0.08906181
Pt       9.05023592       0.72511657       2.25702056        3       0.00000000       0.06171202       0.22242814      -0.04688121
Ni       2.54683704       2.89436107       2.26932306        3       1.00000000      -0.06004971      -0.10566566       0.26054559
Ni       5.16406344       2.93389727       2.23204231        3       1.00000000      -0.03522335       0.06540586      -0.06672594
Ni       7.72342233       2.92315203       2.25713884        3       1.00000000       0.05730357      -0.06085095      -0.08765344
Ni      10.36285722       2.90841028       2.27273260        3       1.00000000       0.08732585      -0.09966079       0.17124336
Pt       3.87400369       5.15840499       2.24145254        3       0.00000000      -0.00335259      -0.06124880      -0.09554328
Ni       6.45008351       5.16512563       2.22572629        3       1.00000000       0.00446503       0.05684957      -0.09867503
Pt       8.98702301       5.12552512       2.29691269        3       0.00000000      -0.15006835      -0.07469361      -0.05697302
Pt      11.61120955       5.09646277       2.23156393        3       0.00000000      -0.00882062      -0.07361836       0.12241584
Ni       5.18868692       7.38241469       2.20433313        3       1.00000000       0.08971070       0.01944149       0.07741516
Ni       7.69126228       7.39962653       2.21574010        3       1.00000000      -0.13842579       0.00497166       0.06079202
Pt      10.30748231       7.40170170       2.13308296        3       0.00000000      -0.01160473      -0.06448483      -0.04768584
Ni      12.90612069       7.36132507       2.17667621        3       1.00000000       0.02083227      -0.08003408       0.01316581
Ni       0.06619973       1.51180106       4.34493946        2       1.00000000       0.15603753       0.08133740      -0.06980805
Ni       2.51629850       1.49845752       4.33605481        2       1.00000000      -0.09114006       0.04075179      -0.05920318
Pt       5.14031019       1.48711818       4.28767654        2       0.00000000      -0.14942876       0.02143065       0.06280889
Ni       7.76295902       1.48185966       4.36187227        2       1.00000000       0.03816781      -0.05519324      -0.05618073
Ni       1.29106347       3.66306339       4.39706439        2       1.00000000      -0.00786139      -0.02982623      -0.00596353
Ni       3.80766805       3.69952793       4.35508640        2       1.00000000      -0.14068957      -0.04952112      -0.09402498
Pt       6.53216893       3.68183004       4.35946189        2       0.00000000       0.06856685      -0.11042183      -0.18148376
Ni       9.08224430       3.69353357       4.36457237        2       1.00000000       0.22032901      -0.06846146      -0.10058544
Ni       2.55956204       5.82729888       4.41832499        2       1.00000000      -0.04742822      -0.13524951       0.06437204
Pt       5.19211172       5.88784748       4.40705352        2       0.00000000       0.10920468       0.00952769      -0.06853367
Ni       7.75721530       5.87508853       4.40529094        2       1.00000000       0.01803523       0.01620255      -0.01886296
Ni      10.31834825       5.81449918       4.44222089        2       1.00000000       0.03560280      -0.12221161       0.08339381
Pt       3.90720849       8.10224250       4.32781400        2       0.00000000      -0.04378461       0.00754152       0.16164064
Ni       6.45243569       8.11926479       4.32076049        2       1.00000000      -0.02040999       0.14065239      -0.14160790
Pt       8.94405605       8.04304427       4.32061165        2       0.00000000      -0.06591232       0.00196976       0.08120932
Pt      11.62108608       8.02134963       4.33227919        2       0.00000000       0.02487636      -0.10297418       0.07675659
Pt       0.03031137      -0.04701273       6.56024212        1       0.00000000       0.02581947      -0.04200739       0.17620327
Pt       2.57062850      -0.05386664       6.56549480        1       0.00000000      -0.06205416      -0.03287752       0.19959447
Pt       5.16282578      -0.08065318       6.60767149        1       0.00000000       0.01091056      -0.08926706       0.06845024
Pt       7.74477373      -0.06410398       6.61002107        1       0.00000000      -0.09370912      -0.06927970       0.21615408
Ni       1.29182126       2.25447193       6.49184606        1       1.00000000      -0.04165368       0.16477314      -0.20803310
Pt       3.83654407       2.29934035       6.46532107        1       0.00000000      -0.04388287       0.15176018      -0.17831375
Ni       6.46066443       2.22365770       6.46337657        1       1.00000000      -0.02071660       0.04227773      -0.25747236
Pt       9.05514213       2.28760674       6.41420866        1       0.00000000      -0.01572117       0.13550581      -0.31884423
Ni       2.54737830       4.44521090       6.49023916        1       1.00000000      -0.15073285       0.09091493      -0.21616246
Ni       5.17226398       4.42668690       6.44332431        1       1.00000000       0.03929461       0.01840204      -0.33257003
Ni       7.75241547       4.44885089       6.42941687        1       1.00000000       0.07038594       0.13458346      -0.33255903
Ni      10.35370319       4.43859540       6.49989054        1       1.00000000       0.09428220       0.07231284      -0.19916531
Ni       3.85526836       6.55112498       6.52382853        1       1.00000000      -0.07650354      -0.17363014      -0.05983516
Ni       6.47291211       6.56550417       6.44839501        1       1.00000000       0.11728964      -0.05481419      -0.15374899
Ni       9.03471463       6.53066893       6.51126757        1       1.00000000       0.02034518      -0.19348601      -0.19558736
Ni      11.61124255       6.52637662       6.52789859        1       1.00000000      -0.03271807      -0.14214439      -0.14863776
