64
Lattice="10.323244529752126 0.009371601918104789 0.007626029188188799 5.169738310211291 8.903208882128213 -0.008220028852497249 0.0 0.0 21.552523248533184" Properties=species:S:1:pos:R:3:tags:I:1:initial_magmoms:R:1:forces:R:3 unique_id=dc079c4bf0cc4d5b80abcb1702b92132 stress="0.005591679980748882 0.00019627751778570398 0.0003090275320406361 0.00019627751778570398 0.005562558313210224 -2.819601187260902e-05 0.0003090275320406361 -2.819601187260902e-05 -0.002121141506073834" energy=-376.1229456720331 pbc="T T T"
Ni      -0.01849793       0.02971512       0.14680430        1       1.00000000      -0.03782533       0.03897796      -0.02031501
Ni       2.58009368       0.00588084       0.15612507        2       1.00000000      -0.00175310       0.02523440      -0.11189223
Ni       5.16519279      -0.00775348       0.11438897        1       1.00000000       0.01189714       0.21912957      -0.37597042
Ni       7.76748709      -0.02936210       0.06616775        1       1.00000000       0.03115518      -0.05111841       0.38957906
Ni       1.27338815       2.21926252       0.03355828        0       1.00000000       0.00814794      -0.06810943       0.29129943
Pt       3.81496926       2.22928102       0.13669429        1       0.00000000       0.04881668      -0.00975515      -0.55916769
Pt       6.48668203       2.16920340       0.14078560        1       0.00000000       0.01161888      -0.06906707      -0.48715307
Ni       9.05717394       2.19245056       0.09487655        1       1.00000000      -0.07718405      -0.12653949      -0.06101745
Ni       2.57022315       4.46646666       0.00737996        0       1.00000000       0.03138175      -0.00639530       0.18168774
Ni       5.15606848       4.45889993       0.10141728        1       1.00000000       0.10067635      -0.05373437      -0.14402098
Pt       7.82147548       4.46458073       0.04962979        0       0.00000000       0.01726520      -0.05319723       0.01402327
Ni      10.35894946       4.46563871       0.00000000        0       1.00000000       0.03512543       0.00828202       0.17272104
Ni       3.84622331       6.69953270       0.11100739        1       1.00000000      -0.03016537       0.12001997      -0.04525512
Pt       6.43644207       6.73055242       0.13285397        1       0.00000000      -0.06704524       0.04026265      -0.51953153
Ni       9.06449356       6.69574811       0.01769773        0       1.00000000      -0.07221689      -0.02238934       0.16097110
Ni      11.63641472       6.69431089       0.00273948        0       1.00000000       0.13206424       0.05440362       0.20460249
Ni       1.28863468       0.72468696       2.10655639        3       1.00000000      -0.03140592      -0.02377259      -0.02497117
Ni       3.86975590       0.74802615       2.15968233        4       1.00000000       0.07794096       0.00695952       0.17302588
Ni       6.48082601       0.74910364       2.19776123        4       1.00000000       0.08354469       0.07979540       0.24754735
Ni       9.01068146       0.72864598       2.13489549        3       1.00000000      -0.12825111      -0.00391214       0.03956683
Ni       2.57885120       2.95980165       2.16291742        4       1.00000000      -0.05767120       0.09085459       0.09957896
Ni       5.16950623       2.94880526       2.19560369        4       1.00000000      -0.05037573      -0.10357693       0.24277332
Ni       7.75152642       2.95519365       2.19110181        4       1.00000000       0.04184332      -0.07127243       0.18094136
Pt      10.28531073       2.91233244       2.13962250        3       0.00000000      -0.00272106       0.01393683       0.03101992
Pt       3.93248913       5.19513899       2.16937223        4       0.00000000       0.05352652      -0.05109517       0.05284500
Ni       6.48539292       5.19594381       2.17984842        4       1.00000000       0.10321757       0.05613579       0.17701172
Ni       9.00831564       5.20191749       2.19571700        4       1.00000000      -0.07442415      -0.04093735       0.24127588
Pt      11.62327800       5.20716564       2.11580691        3       0.00000000       0.01228740      -0.04042845       0.02491210
Ni       5.14925873       7.44682456       2.13572307        3       1.00000000      -0.08002616       0.04206971       0.00008798
Ni       7.75109270       7.41610252       2.14500357        3       1.00000000       0.06830023      -0.08713301       0.05285760
Pt      10.30608035       7.44288831       2.06755901        3       0.00000000      -0.00865611      -0.02157596      -0.06401463
Ni      12.93294806       7.46077774       2.10900034        3       1.00000000      -0.02671502       0.06859804      -0.05646529
Ni      -0.02302602       1.50379278       4.29401620        6       1.00000000      -0.04433979      -0.00879503      -0.20110265
Pt       2.58000575       1.51579897       4.20015195        5       0.00000000      -0.05625587      -0.01340574      -0.06434048
Ni       5.17972421       1.49848603       4.26399325        6       1.00000000      -0.00510892       0.04027759      -0.36189632
Ni       7.77351945       1.50185773       4.26258662        6       1.00000000       0.07694570       0.06421652      -0.35560226
Pt       1.26396223       3.75776531       4.38494557        7       0.00000000      -0.05036691      -0.03760002       0.04102037
Ni       3.88569246       3.74067135       4.28211168        6       1.00000000       0.04473521      -0.00116897      -0.18887780
Pt       6.48859519       3.72676349       4.20591617        5       0.00000000      -0.03239355      -0.00310584       0.02278175
Ni       9.03366076       3.73709084       4.30756441        6       1.00000000      -0.02305484       0.02604075      -0.25097919
Ni       2.58686507       5.90590708       4.32305906        6       1.00000000       0.03499972       0.00029617      -0.10808846
Ni       5.15699465       5.90928275       4.27880213        6       1.00000000       0.00623569       0.01436071      -0.21863312
Ni       7.79592268       5.88140027       4.27779710        6       1.00000000       0.08228282      -0.06329257      -0.27024496
Ni      10.30562518       5.90853261       4.35738342        7       1.00000000      -0.05126527       0.02729765      -0.09861709
Pt       3.87015666       8.17248142       4.21575406        5       0.00000000       0.01785509       0.05418269      -0.04866078
Pt       6.44129257       8.12048081       4.17808386        5       0.00000000      -0.02443002      -0.05266542      -0.13917370
Pt       9.04298330       8.09680822       4.28038581        6       0.00000000      -0.06128362      -0.01540257       0.02952622
Pt      11.65161004       8.15056306       4.28771237        6       0.00000000      -0.02221734      -0.00448030       0.02875179
Pt      -0.02433561       0.02993975       6.52569746        9       0.00000000       0.03484060       0.04527447       0.12286144
Pt       2.58589154      -0.00749390       6.55252325       10       0.00000000       0.04338785      -0.03744941       0.36930448
Pt       5.21182671      -0.09713494       6.54233424        9       0.00000000      -0.08676902       0.11668712       0.42014575
Ni       7.74412648      -0.00937357       6.48662129        9       1.00000000       0.02706979       0.10004763      -0.11724435
Ni       1.28306357       2.26932338       6.48004984        9       1.00000000      -0.02627297      -0.01937626      -0.09406678
Pt       3.82144012       2.26774516       6.41374351        8       0.00000000       0.20123195      -0.10623391       0.55575207
Pt       6.50138029       2.19832584       6.40099580        8       0.00000000      -0.04617887      -0.05540190       0.51951579
Pt       9.08666331       2.31667881       6.45502046        9       0.00000000       0.00783925       0.13602734      -0.04713776
Ni       2.52040613       4.45741630       6.46873467        9       1.00000000      -0.03813706       0.06072924      -0.07813652
Pt       5.14621540       4.45615170       6.46934986        9       0.00000000      -0.03648392       0.04953124       0.23037021
Ni       7.80931886       4.46828842       6.38148901        8       1.00000000       0.09967297       0.04434574      -0.01751410
Ni      10.33596981       4.50109554       6.46963893        9       1.00000000      -0.09551240       0.12132945      -0.19293321
Pt       3.75989584       6.66020991       6.48865946        9       0.00000000       0.09308964      -0.08903885       0.00204217
Pt       6.52584876       6.61657979       6.39815101        8       0.00000000      -0.07104078      -0.05780255       0.45479152
Ni       9.08468874       6.59524216       6.45798507        9       1.00000000       0.01601174      -0.12533104      -0.20689588
Ni      11.59326893       6.61405057       6.46691379        9       1.00000000      -0.13745993      -0.17074417      -0.24527162
