64
Lattice="10.449534584739075 -0.003697473595351059 0.04583037625865998 5.2215651863061385 9.066065229196225 0.004666611193063883 0.03742034551782725 -0.017204923331517658 9.031272612383836" Properties=species:S:1:pos:R:3:tags:I:1:initial_magmoms:R:1:forces:R:3 unique_id=b6ab9a0aaf6046d0884cc957c6401424 stress="-0.0004011127795308239 -5.196895194501723e-06 5.450554378660976e-06 -5.196895194501723e-06 -0.0004050007865969013 1.81542555832173e-05 5.450554378660976e-06 1.81542555832173e-05 -0.00030490110117775" energy=-407.3003745436898 pbc="T T T"
Pt      -0.09462078      -0.02406266       0.06780982        4       0.00000000      -0.23411400      -0.05448968      -0.12892335
Ni       2.63885583      -0.03218883       0.07318985        4       1.00000000       0.11817113      -0.08942250       0.18020526
Ni       5.24017947      -0.04625305       0.15630986        4       1.00000000       0.13038103      -0.12535912       0.23452298
Ni       7.83258505      -0.03224224       0.12597068        4       1.00000000      -0.12874785      -0.22586540       0.29633127
Pt       1.25969711       2.26349398       0.10810002        4       0.00000000       0.00310233      -0.01309098       0.17523650
Pt       3.94496938       2.20432246       0.11850763        4       0.00000000       0.05887806      -0.04546397       0.13983716
Pt       6.60940636       2.18881757       0.16339924        4       0.00000000       0.17099404      -0.19456758      -0.00238339
Ni       9.13319566       2.27274068       0.09857470        4       1.00000000      -0.03501627       0.05804642       0.19469254
Pt       2.57358846       4.61215177       0.10348075        4       0.00000000       0.01152890       0.11143249       0.08989418
Pt       5.28576477       4.53928297       0.15916358        4       0.00000000       0.25919798      -0.10599938       0.10217761
Ni       7.88744903       4.53716172       0.16517588        4       1.00000000       0.20191504      -0.02349190       0.30392771
Ni      10.40032754       4.55990402       0.09732699        4       1.00000000      -0.21873103       0.14316804       0.16336475
Ni       3.89694717       6.83213919       0.16064425        4       1.00000000      -0.05383387       0.05348111       0.36309237
Pt       6.60843468       6.81446620       0.21639432        4       0.00000000       0.16798733      -0.00002136       0.17441214
Ni       9.16157042       6.78835088       0.10334322        4       1.00000000       0.10695195      -0.09137967       0.15151857
Ni      11.74381413       6.82998954       0.17329831        4       1.00000000       0.05140613       0.16498813       0.17888194
Pt       1.28843133       0.65782361       2.26435609        3       0.00000000      -0.03298227      -0.00780450      -0.15818117
Pt       3.99951412       0.72189706       2.29616765        3       0.00000000       0.06256717       0.12495049       0.08193951
Ni       6.57481151       0.74034919       2.30446110        3       1.00000000       0.16349141      -0.01972413       0.06422006
Ni       9.10215652       0.72332755       2.29459481        3       1.00000000      -0.23223660       0.01540524      -0.03086170
Pt       2.66575938       3.03920180       2.32792954        3       0.00000000       0.03803891       0.11783556      -0.06750956
Ni       5.26489211       3.01566565       2.34314623        3       1.00000000       0.04456684       0.01122575       0.22610915
Pt       7.79080770       3.03623150       2.37443367        3       0.00000000      -0.17821734       0.00040811       0.14154757
Pt      10.36441711       3.03557675       2.29403251        3       0.00000000      -0.15999336      -0.00668813      -0.10242094
Pt       3.98795304       5.34876233       2.29182900        3       0.00000000      -0.00433538       0.00714949      -0.17734887
Ni       6.59061207       5.29045278       2.30852224        3       1.00000000       0.26453613       0.02296778       0.10832877
Ni       9.10383154       5.30425459       2.29892339        3       1.00000000      -0.22226660       0.11056793       0.08363247
Pt      11.69684656       5.33541521       2.29763694        3       0.00000000      -0.10684372      -0.04671382       0.00610457
Ni       5.21778225       7.54798773       2.26272812        3       1.00000000      -0.04462447       0.03256649       0.01211933
Ni       7.85316119       7.49941415       2.29090336        3       1.00000000       0.13157249      -0.17353683       0.22319108
Pt      10.43999791       7.53921668       2.21892516        3       0.00000000      -0.07996022      -0.03845067       0.04463260
Ni      13.08603234       7.60061503       2.26739362        3       1.00000000      -0.00201038       0.20237050      -0.12107239
Pt      -0.10171511       1.54050178       4.50404502        2       0.00000000      -0.21789711       0.09807023      -0.17987900
Pt       2.67347586       1.50280401       4.48713125        2       0.00000000      -0.07032381      -0.01839192       0.01179794
Ni       5.28274035       1.54223048       4.47984788        2       1.00000000       0.13601029       0.16418980      -0.25930673
Ni       7.83557244       1.53183089       4.50519463        2       1.00000000      -0.12412707       0.08961758      -0.27389182
Pt       1.23381310       3.81382110       4.49584459        2       0.00000000      -0.20310914       0.07624322       0.02477224
Ni       3.98478735       3.74404091       4.48493608        2       1.00000000       0.16817408      -0.04075725      -0.14066158
Ni       6.56981294       3.74124700       4.48682005        2       1.00000000       0.04994911      -0.05551717      -0.08357127
Ni       9.11761706       3.79857464       4.53062332        2       1.00000000      -0.21712564       0.15328677      -0.15367478
Pt       2.61272123       6.05109425       4.45343989        2       0.00000000      -0.05556063       0.08308010       0.04569128
Pt       5.32280439       5.97325098       4.42598656        2       0.00000000       0.24737353      -0.03634050       0.07389043
Ni       7.89417507       5.98527187       4.48915979        2       1.00000000       0.13513161      -0.24140343      -0.24598814
Ni      10.40945886       6.01286825       4.55305409        2       1.00000000      -0.19652569      -0.05625480      -0.00867048
Pt       3.91257782       8.33845354       4.43919631        2       0.00000000      -0.00064735      -0.07600542      -0.23869880
Pt       6.55945958       8.28036366       4.48506127        2       0.00000000      -0.03683942      -0.07812499      -0.01960858
Pt       9.16272320       8.21444242       4.53793476        2       0.00000000      -0.01898619      -0.18585276       0.00130549
Pt      11.76729382       8.37627123       4.47860094        2       0.00000000      -0.08826039       0.15660666      -0.09496379
Ni       0.00647591       0.00991590       6.65961122        1       1.00000000      -0.09880321       0.02856385      -0.28411561
Ni       2.63496436      -0.02437639       6.73380227        1       1.00000000      -0.03943044       0.05534882      -0.16675642
Pt       5.22018199      -0.04387683       6.77916041        1       0.00000000      -0.04531508      -0.02870860       0.16649438
Ni       7.88737366       0.00656969       6.75283453        1       1.00000000       0.04719552       0.04255474      -0.16263837
Pt       1.24196485       2.20833611       6.67222788        1       0.00000000      -0.08982689      -0.06836578      -0.15204479
Pt       3.94668972       2.22028475       6.64134315        1       0.00000000       0.01256831       0.01775300      -0.22910338
Pt       6.64133636       2.20769627       6.61360988        1       0.00000000       0.10985706      -0.05025169      -0.11712875
Ni       9.16838467       2.23749398       6.75116832        1       1.00000000      -0.04646284      -0.06221900      -0.10321753
Pt       2.60319316       4.51469782       6.65266846        1       0.00000000       0.03191152      -0.01576626      -0.26868339
Pt       5.28270410       4.51071091       6.63902473        1       0.00000000       0.17018705       0.07570503      -0.13288365
Pt       7.97657276       4.52291960       6.69651625        1       0.00000000       0.09793802       0.01183168       0.04948021
Ni      10.44623277       4.52329971       6.74434453        1       1.00000000       0.01911180      -0.02003292      -0.15184265
Pt       3.93972340       6.87761264       6.76295607        1       0.00000000       0.01324774       0.12433743       0.15739991
Pt       6.63325600       6.84109644       6.69513322        1       0.00000000       0.10791371       0.05405579       0.04774474
Ni       9.16993410       6.77383035       6.73804982        1       1.00000000       0.02146662      -0.05117217      -0.13966242
Pt      11.70526685       6.77062513       6.78513717        1       0.00000000      -0.07016859      -0.06057395       0.07719659
