64
Lattice="10.168604163300996 0.01808367765109073 -0.04499054850059724 5.099963005890251 8.747153221394186 -0.08786425818947635 -0.03673462902480108 -0.06163046909688962 8.680586500509584" Properties=species:S:1:pos:R:3:tags:I:1:initial_magmoms:R:1:forces:R:3 unique_id=422cd204bb9449ee8c8d858f21a7f716 stress="-0.0073552325103661345 -3.0084847290392678e-05 1.1484709228828727e-05 -3.0084847290392678e-05 -0.007320070136351692 -1.6159556861770534e-06 1.1484709228828727e-05 -1.6159556861770534e-06 -0.006339140473680539" energy=-390.8528806570744 pbc="T T T"
Ni       0.03336352      -0.04777444       0.20330658        4       1.00000000       0.05263390      -0.03147495       0.14387191
Ni       2.48512143      -0.03394488       0.21186366        4       1.00000000      -0.04201587      -0.02765142       0.16743707
Pt       5.10847487      -0.03051631       0.15148430        4       0.00000000      -0.04095770      -0.00751003      -0.15318206
Ni       7.63885912      -0.03354628       0.16075106        4       1.00000000       0.00445404      -0.04608605       0.15070175
Ni       1.25007605       2.19579626       0.11134676        4       1.00000000      -0.07812823       0.01979545       0.13487623
Pt       3.73094193       2.20550338       0.16865921        4       0.00000000      -0.07369926      -0.00573381      -0.08094327
Ni       6.37141055       2.20697319       0.08185263        4       1.00000000      -0.03745836       0.02717961       0.10548717
Pt       8.90582609       2.24742261       0.07454250        4       0.00000000      -0.01663643       0.04482370      -0.19966769
Ni       2.49301769       4.40607814       0.06881183        4       1.00000000      -0.02218812      -0.00413864       0.06387929
Pt       5.11215298       4.44950142       0.03112332        4       0.00000000      -0.04926752       0.04581583      -0.17654019
Ni       7.64690052       4.42559600       0.05888660        4       1.00000000      -0.01649228       0.05695289       0.12983486
Ni      10.20147194       4.41892558       0.04117550        4       1.00000000       0.00310271       0.05363466       0.10329604
Ni       3.79765797       6.58405078       0.05019456        4       1.00000000      -0.02255249       0.03739277       0.04861061
Ni       6.38033394       6.59582492       0.04064888        4       1.00000000      -0.00682192       0.02920467      -0.02303593
Ni       8.86423510       6.50819129       0.09954447        4       1.00000000      -0.08497165      -0.06058444       0.12363010
Ni      11.48691877       6.50939261      -0.01345244        4       1.00000000       0.03620077      -0.07592347      -0.05833840
Ni       1.29023423       0.72638586       2.19661606        3       1.00000000      -0.00662903       0.02909982       0.13394499
Ni       3.73346789       0.72247523       2.17725497        3       1.00000000      -0.07716982      -0.06030604       0.04045011
Ni       6.37988219       0.75399366       2.16325559        3       1.00000000       0.06080870      -0.01003614       0.04770680
Pt       8.91726130       0.73524162       2.16950319        3       0.00000000       0.05656659       0.00275915       0.13994745
Ni       2.49457752       2.93044889       2.22291885        3       1.00000000       0.00094553       0.00165104       0.08267648
Ni       5.08629714       2.95039275       2.14325230        3       1.00000000      -0.01702577       0.12634019      -0.04533329
Ni       7.61158682       2.95867631       2.14185332        3       1.00000000       0.01338349       0.02765782      -0.01168358
Ni      10.21169306       2.96069656       2.16783472        3       1.00000000       0.03337639       0.01802479       0.03679719
Ni       3.79024705       5.09210969       2.16349116        3       1.00000000       0.01790086      -0.01910792      -0.00551542
Ni       6.37773309       5.13187570       2.12837709        3       1.00000000      -0.00651351       0.02445044      -0.03244720
Ni       8.87826298       5.04539820       2.11924004        3       1.00000000       0.00972655      -0.06515696       0.08031541
Ni      11.47393020       5.03979569       2.10970456        3       1.00000000       0.05715942      -0.10415747       0.08547295
Ni       5.12267430       7.21904558       2.08407391        3       1.00000000      -0.03871522      -0.07749355       0.02756582
Ni       7.56458443       7.25050032       2.06623139        3       1.00000000      -0.02874250      -0.07209983       0.06456608
Pt      10.21851431       7.17243524       2.11021035        3       0.00000000       0.03931259      -0.14340938       0.09201815
Ni      12.73160957       7.21973911       2.04506736        3       1.00000000       0.05617618      -0.11006056       0.03674803
Ni       0.04429290       1.46823456       4.27041326        2       1.00000000       0.06947892      -0.00455027      -0.02988046
Ni       2.45765266       1.48020946       4.23064965        2       1.00000000       0.00042628       0.02718816      -0.02391686
Pt       5.07609544       1.46241224       4.16636914        2       0.00000000      -0.03726755       0.02386872      -0.13044749
Ni       7.62338212       1.45173835       4.23463283        2       1.00000000      -0.01466495      -0.03671458      -0.06315127
Ni       1.26284341       3.62122599       4.27304842        2       1.00000000       0.02970890      -0.01697286      -0.04673275
Ni       3.74533564       3.69661041       4.20824438        2       1.00000000       0.00268378       0.05917105      -0.15193080
Pt       6.38456084       3.68845899       4.23329727        2       0.00000000       0.05033539      -0.03228455      -0.07745250
Ni       8.94234975       3.67652268       4.17627914        2       1.00000000       0.04910996       0.05072663      -0.14668551
Ni       2.51178569       5.74214946       4.24969075        2       1.00000000      -0.04809161      -0.04001235      -0.14552040
Ni       5.07391907       5.79410769       4.23020395        2       1.00000000       0.02253450      -0.03171845      -0.18126165
Ni       7.60302336       5.80195825       4.19212082        2       1.00000000       0.01771806       0.00829492      -0.10151056
Ni      10.20509490       5.73627977       4.22402489        2       1.00000000       0.01936634      -0.04356414      -0.02216187
Pt       3.81231298       7.89819072       4.19205889        2       0.00000000      -0.02444717      -0.00219666       0.05103024
Ni       6.32673792       7.96350465       4.15753183        2       1.00000000      -0.06696308      -0.00873931      -0.08117767
Pt       8.81168913       7.94753754       4.13529657        2       0.00000000      -0.06174304      -0.02458071       0.00972785
Ni      11.46061956       7.93212797       4.17035664        2       1.00000000       0.01374955      -0.07111416      -0.06025487
Pt      -0.00893106      -0.08350277       6.47981594        1       0.00000000      -0.05497617       0.01523656       0.14559120
Pt       2.49278367      -0.02619476       6.46616442        1       0.00000000       0.09621933       0.06041538       0.17875854
Pt       5.08575787      -0.04428079       6.34113273        1       0.00000000      -0.04460945       0.02558663       0.07849074
Pt       7.59940044      -0.07125975       6.43955003        1       0.00000000       0.06425641       0.03924368       0.17640964
Ni       1.24639718       2.21937150       6.36846195        1       1.00000000       0.03632388       0.05469880      -0.07122223
Pt       3.76582717       2.29876914       6.31627378        1       0.00000000      -0.00833381       0.10129928       0.03922223
Ni       6.33949088       2.21653634       6.38121155        1       1.00000000      -0.00689878       0.05931230      -0.02752407
Pt       8.89172227       2.27083345       6.23807940        1       0.00000000       0.02192403       0.05657326      -0.05659731
Ni       2.49154147       4.39657044       6.34448065        1       1.00000000       0.00664150       0.08091049      -0.09244359
Ni       5.07094498       4.40457006       6.27666552        1       1.00000000      -0.03051428       0.09362264      -0.18094973
Ni       7.55449456       4.34674345       6.37322518        1       1.00000000      -0.10750395       0.01446961       0.03767997
Ni      10.23774402       4.34359139       6.31944942        1       1.00000000       0.16079910       0.00260535      -0.06301673
Ni       3.79807516       6.42836540       6.35447843        1       1.00000000       0.00222034      -0.05745781      -0.04037271
Ni       6.31331586       6.45740716       6.32460005        1       1.00000000       0.01487211      -0.00056369      -0.16332473
Pt       8.88742538       6.38313567       6.37806071        1       0.00000000       0.03048203      -0.05254695       0.12362778
Ni      11.46682924       6.45655785       6.29861115        1       1.00000000       0.02140145       0.02594086      -0.13614991
