64
Lattice="10.4471802471751 0.03419000558770027 0.01705640148405245 5.253199536982035 9.055057944008023 -0.029441361870771947 0.0 0.0 21.68333713057438" Properties=species:S:1:pos:R:3:tags:I:1:initial_magmoms:R:1:forces:R:3 unique_id=ea66067727a74ebaa74326e4af371b8f stress="0.007009376168367301 0.00019003279374987076 0.0003025697876038601 0.00019003279374987076 0.006623438631137218 -0.00029695707846720873 0.0003025697876038601 -0.00029695707846720873 -0.0020717601940747413" energy=-381.02943928563474 pbc="T T T"
Ni      -0.05573470      -0.00564437       0.13809317        1       1.00000000      -0.13359596      -0.08500325      -0.17072340
Ni       2.63894801      -0.01539159       0.13621528        1       1.00000000       0.09182055      -0.06652659      -0.26384021
Ni       5.25102405      -0.01605924       0.12802685        1       1.00000000       0.11072498       0.07626530      -0.29433807
Ni       7.86529537      -0.02285333       0.09270697        1       1.00000000      -0.02742935      -0.02430730       0.48623994
Ni       1.30948277       2.27634037       0.12245315        1       1.00000000       0.07542336       0.06432992      -0.34461730
Pt       3.87015029       2.32231163       0.11679749        1       0.00000000       0.05738035       0.12056557      -0.82806417
Pt       6.56134764       2.20268180       0.10499758        1       0.00000000      -0.11001399      -0.10888286      -0.31489249
Ni       9.16168827       2.24224225       0.12127481        1       1.00000000      -0.06113475      -0.12745702      -0.08771055
Ni       2.61410421       4.54707909       0.00293565        0       1.00000000       0.00251626      -0.01800958       0.23828396
Ni       5.25568422       4.53364308       0.10730903        1       1.00000000       0.16632991      -0.06393030      -0.22510400
Pt       7.93081715       4.55777508       0.02249339        0       0.00000000      -0.03468331       0.02866790       0.22981126
Ni      10.49422693       4.57161487       0.00000000        0       1.00000000       0.01212397       0.04067891       0.28308990
Ni       3.91186390       6.82563714       0.12596045        1       1.00000000      -0.01528398       0.13168000      -0.17301726
Pt       6.53575872       6.84395679       0.14861551        1       0.00000000      -0.02812753       0.00487208      -0.43283818
Ni       9.19372859       6.81106180       0.02127871        0       1.00000000      -0.02544847      -0.03964690       0.34343679
Ni      11.80116889       6.82518292       0.00502958        0       1.00000000       0.09544279       0.05180065       0.36212925
Pt       1.27867067       0.69633737       2.10850216        2       0.00000000      -0.02721110      -0.04024982       0.15223469
Pt       3.98607517       0.77301201       2.20659933        3       0.00000000       0.07468679      -0.09161942       0.26616901
Ni       6.58030586       0.74769235       2.22540395        3       1.00000000       0.09803442      -0.01356396       0.13317266
Ni       9.09207246       0.73798612       2.16410980        3       1.00000000      -0.11315779      -0.00368385       0.03639761
Ni       2.61232201       3.03160127       2.18855234        3       1.00000000      -0.04207841       0.02048286       0.22116778
Ni       5.26002236       3.02096445       2.21404945        3       1.00000000       0.09787547       0.02520800       0.22612894
Pt       7.80588639       3.03239449       2.30991484        4       0.00000000      -0.00811251       0.05692817       0.19350689
Pt      10.42053079       3.06190892       2.12722935        2       0.00000000      -0.10269433       0.05863135       0.06524722
Pt       3.98160828       5.28899903       2.09037069        2       0.00000000       0.05121614      -0.04186996       0.03159447
Ni       6.59708035       5.28826012       2.20423792        3       1.00000000       0.11470431      -0.04668062       0.19586637
Ni       9.13013198       5.31665926       2.23662525        3       1.00000000      -0.07629378      -0.00874248       0.13611115
Pt      11.77557792       5.31006248       2.10889195        2       0.00000000       0.06276278      -0.03771295      -0.00917850
Ni       5.21231689       7.54985306       2.15179506        3       1.00000000      -0.07933269       0.01283263       0.16231156
Ni       7.87942477       7.48969810       2.18452281        3       1.00000000       0.08771130      -0.09825861       0.17302763
Pt      10.47769629       7.52449351       2.09948109        2       0.00000000      -0.04692297       0.02790820       0.00158493
Ni      13.10234235       7.61439441       2.13041691        2       1.00000000      -0.04522693       0.06547423      -0.02671063
Pt      -0.08745927       1.54009315       4.34471170        5       0.00000000      -0.06370077       0.04737515      -0.13281014
Pt       2.62490348       1.50191216       4.35109942        6       0.00000000      -0.15334857      -0.11551559      -0.15475319
Ni       5.28709358       1.51934284       4.35483911        6       1.00000000       0.02981133       0.04572774      -0.33056326
Ni       7.81459923       1.54507627       4.36738666        6       1.00000000      -0.03311920       0.02367108      -0.21519754
Pt       1.24051614       3.81371286       4.41208457        6       0.00000000      -0.09679748       0.00351921      -0.05465709
Pt       3.99810486       3.73290559       4.30658758        5       0.00000000       0.02107903       0.07054972      -0.19532158
Ni       6.60429617       3.76316464       4.38808308        6       1.00000000       0.04527815       0.03008370      -0.16906190
Ni       9.10573778       3.84551742       4.41257645        6       1.00000000      -0.04832126       0.00985195      -0.15306045
Pt       2.58483644       6.02797048       4.39542149        6       0.00000000       0.04545848      -0.02310782      -0.07752404
Pt       5.33758687       5.97555199       4.29606013        5       0.00000000      -0.00806023      -0.11254758      -0.20277913
Ni       7.92520536       5.94953249       4.35558143        6       1.00000000       0.04538088      -0.08870155      -0.23274815
Ni      10.41178429       6.01178409       4.43177100        6       1.00000000      -0.01773011      -0.00798119      -0.10018315
Pt       3.92258629       8.30498716       4.28103683        5       0.00000000       0.01039465       0.00724976      -0.12809914
Pt       6.58133532       8.24276228       4.29717785        5       0.00000000      -0.02950867       0.10861790      -0.18131834
Pt       9.18916443       8.19081923       4.37217537        6       0.00000000      -0.02482100      -0.01005371      -0.08032789
Pt      11.78569060       8.36871748       4.34371428        5       0.00000000      -0.04286664       0.04007227      -0.04193985
Pt      -0.04569216      -0.01754920       6.67713587        9       0.00000000       0.10893170       0.05261615       0.15210318
Pt       2.64372401      -0.05166066       6.68333713        9       0.00000000      -0.00053889       0.04780364       0.39369564
Pt       5.29220546      -0.11187869       6.67554914        9       0.00000000      -0.09519087       0.16952026       0.11812021
Ni       7.83377157       0.00227529       6.60300837        8       1.00000000       0.04746037       0.02390089      -0.23109981
Pt       1.30082411       2.34234205       6.68098661        9       0.00000000      -0.03860451      -0.09591778       0.22682147
Pt       3.93763636       2.26403789       6.53723164        7       0.00000000       0.18878191      -0.16555778       0.87486664
Pt       6.57251559       2.24142649       6.46503510        7       0.00000000      -0.09969879       0.02460799       0.48327047
Pt       9.13110582       2.36385177       6.62779226        8       0.00000000      -0.03424823       0.17163425      -0.02490789
Ni       2.58574050       4.53699009       6.58912080        8       1.00000000       0.00149505       0.02984146      -0.13914638
Pt       5.25671867       4.52164132       6.61775596        8       0.00000000       0.10602582       0.01581353       0.20016777
Ni       7.91242610       4.54721595       6.46539516        7       1.00000000      -0.01549951       0.04933170       0.00595749
Ni      10.43977907       4.61472516       6.57436833        8       1.00000000      -0.07696576      -0.01332277      -0.29234651
Pt       3.83289303       6.76971653       6.66875352        9       0.00000000       0.13812087      -0.03422939       0.00071964
Pt       6.65068677       6.71704462       6.53765868        7       0.00000000      -0.05846776      -0.05777528       0.44414818
Ni       9.21883868       6.70724686       6.55869759        8       1.00000000      -0.01454881      -0.00999976      -0.25107355
Ni      11.73537484       6.73785862       6.58909196        8       1.00000000      -0.05818665      -0.10725846      -0.27742899
