64
Lattice="10.193303793817442 0.02567504878253166 -0.02655668529552733 5.118887141397794 8.820459663259495 -0.03255653060083434 -0.021683442744571575 -0.018175649907473446 8.694528000776193" Properties=species:S:1:pos:R:3:tags:I:1:initial_magmoms:R:1:forces:R:3 unique_id=44498f3c48434075bba18136a8ab9b13 stress="-0.00013992828741885704 1.2323740825474408e-06 8.713181262350926e-06 1.2323740825474408e-06 -0.00013664281264359757 -2.6831228523812877e-06 8.713181262350926e-06 -2.6831228523812877e-06 -9.07255629667078e-05" energy=-391.9037298326716 pbc="T T T"
Ni       0.02377778      -0.04421366       0.18360282        4       1.00000000       0.03893505      -0.08141165       0.22536753
Ni       2.50239694       0.00699980       0.15033125        4       1.00000000      -0.07103471       0.08927377       0.03194844
Pt       5.11847746      -0.04666191       0.18735790        4       0.00000000      -0.03491824      -0.10319195       0.33908002
Ni       7.65400879      -0.02589782       0.14342970        4       1.00000000       0.02374723      -0.13459176       0.12399257
Ni       1.27081066       2.22324118       0.11678454        4       1.00000000      -0.03402506       0.11227532       0.19483435
Pt       3.79049913       2.27039893       0.17658569        4       0.00000000      -0.07431396       0.09246788       0.22053527
Ni       6.37739873       2.25108499       0.10421028        4       1.00000000      -0.02571733       0.06904888       0.19718329
Pt       8.92516048       2.27697407       0.12389813        4       0.00000000      -0.00789963      -0.00534015       0.27136798
Ni       2.52797740       4.44928632       0.10566974        4       1.00000000      -0.04995026       0.08435719       0.17249656
Ni       5.12031181       4.45365357       0.18007582        4       1.00000000      -0.06914345       0.07885081       0.21991385
Ni       7.62994632       4.45705199       0.09096923        4       1.00000000      -0.06526363       0.09625843       0.17067941
Ni      10.22968227       4.45915564       0.08642002        4       1.00000000       0.08055169       0.07348870       0.14476480
Ni       3.83691189       6.59718107       0.10017778        4       1.00000000      -0.03467032      -0.05517667       0.13570041
Ni       6.35681120       6.59909439       0.06506412        4       1.00000000      -0.12128217      -0.04519257       0.00770883
Ni       8.93805368       6.56782574       0.15071857        4       1.00000000       0.08796622      -0.12847669       0.28728955
Ni      11.50499809       6.58469319       0.15538291        4       1.00000000       0.02636562      -0.06427382       0.23045829
Ni       1.29480995       0.77012713       2.16080981        3       1.00000000      -0.01415901       0.11649199      -0.04527867
Ni       3.77941886       0.74492347       2.20258350        3       1.00000000      -0.10637928       0.01264854      -0.15887826
Ni       6.38313485       0.74328052       2.18699277        3       1.00000000      -0.00171610      -0.07593955      -0.09196748
Pt       8.88950572       0.67950858       2.19342868        3       0.00000000       0.03818152       0.00060805      -0.13565023
Ni       2.51415685       2.97916523       2.23677877        3       1.00000000       0.01449472       0.10580619       0.03546777
Ni       5.10709179       2.98785232       2.16051663        3       1.00000000      -0.10327920       0.10637851      -0.10000539
Ni       7.62582512       2.98794151       2.16900074        3       1.00000000       0.08626086       0.00032835      -0.02164675
Ni      10.24193282       3.01932628       2.16976545        3       1.00000000       0.03696674       0.08446189      -0.02749600
Ni       3.81140245       5.14850520       2.17115939        3       1.00000000      -0.08224040      -0.02417736       0.02538569
Ni       6.35161191       5.14235316       2.11549705        3       1.00000000      -0.03028426       0.06676847       0.01454013
Ni       8.96692336       5.11940229       2.13439805        3       1.00000000       0.07084627      -0.06363474       0.02005235
Ni      11.48249017       5.15754789       2.15826895        3       1.00000000       0.04423695      -0.03761209       0.11011218
Ni       5.08487415       7.28896835       2.16150198        3       1.00000000      -0.07305162      -0.18244607       0.04793428
Pt       7.64296467       7.37007095       2.11814777        3       0.00000000      -0.04061867       0.04371887      -0.13245751
Ni      10.24706818       7.30523965       2.20743711        3       1.00000000       0.02499868      -0.08289858       0.07583317
Ni      12.73956985       7.30609346       2.15131820        3       1.00000000      -0.00411968      -0.18047659       0.05084680
Pt       0.06244326       1.49316871       4.26058710        2       0.00000000       0.00923859       0.07912009       0.11449202
Ni       2.53384707       1.48267043       4.23754502        2       1.00000000       0.09692751       0.04252595      -0.15321227
Pt       5.07584051       1.44442449       4.17078521        2       0.00000000      -0.04927552      -0.07601799       0.08636472
Ni       7.63488163       1.45326435       4.26114768        2       1.00000000       0.02841758      -0.02776422      -0.05947831
Ni       1.29845733       3.71323213       4.29653645        2       1.00000000       0.07079942       0.12496501      -0.09509366
Ni       3.76105276       3.73412792       4.23345420        2       1.00000000       0.02426767       0.08576228      -0.13793734
Pt       6.37796500       3.66999733       4.23669441        2       0.00000000      -0.06782863       0.03118404       0.06082870
Ni       8.97131729       3.73097711       4.22577479        2       1.00000000       0.12693960       0.04671076      -0.19885946
Ni       2.57237829       5.85143154       4.24438832        2       1.00000000      -0.01662061      -0.01634378      -0.16363866
Ni       5.04190675       5.91337771       4.25375980        2       1.00000000      -0.03188787      -0.03802138      -0.17081611
Pt       7.65059421       5.89237838       4.24622559        2       0.00000000       0.08921266       0.00938001       0.13558468
Ni      10.24400394       5.86279706       4.22119653        2       1.00000000       0.09114704      -0.02562830      -0.10160619
Ni       3.81904241       8.00602472       4.25721795        2       1.00000000      -0.01974043      -0.11752253      -0.02051827
Ni       6.35700570       8.06619312       4.23836692        2       1.00000000      -0.10322193       0.02708827      -0.10856122
Ni       8.93668209       8.07557135       4.22739131        2       1.00000000       0.06300803      -0.05519650      -0.05373466
Ni      11.50584721       8.03156698       4.18816314        2       1.00000000       0.05633110      -0.10685813      -0.09539173
Pt      -0.01466276      -0.07665931       6.46802524        1       0.00000000       0.09145103       0.01102432       0.10262803
Pt       2.50878891      -0.00492787       6.41512036        1       0.00000000      -0.09410644      -0.01680631      -0.13534516
Pt       5.09515612      -0.00221557       6.36744577        1       0.00000000       0.03143146       0.00839375      -0.29185904
Pt       7.64344613       0.00796672       6.40153901        1       0.00000000      -0.05058563       0.02691130      -0.03594642
Ni       1.25343745       2.25544121       6.42572165        1       1.00000000       0.00959795       0.03905780      -0.07569359
Pt       3.76164560       2.28162158       6.35267465        1       0.00000000       0.02589207       0.00953872      -0.30304279
Ni       6.36511890       2.24028673       6.42035695        1       1.00000000      -0.07422436       0.02732042      -0.10520718
Pt       8.90003641       2.32146485       6.34027339        1       0.00000000      -0.03828256       0.08871276      -0.35068999
Ni       2.52396242       4.38721911       6.39564839        1       1.00000000       0.01303491       0.00339291      -0.18697200
Pt       5.10136054       4.48720083       6.46004067        1       0.00000000      -0.01760802       0.08083245       0.16423517
Ni       7.62244271       4.41435745       6.42712325        1       1.00000000      -0.05910097       0.01631636      -0.07159472
Ni      10.23116382       4.38810143       6.38317101        1       1.00000000       0.12361102      -0.06002122      -0.18495035
Ni       3.83481376       6.58063383       6.38936906        1       1.00000000      -0.01903388       0.00307564      -0.19391545
Ni       6.36399316       6.59477451       6.40824859        1       1.00000000       0.05327742       0.05720672      -0.18572673
Pt       8.91216063       6.51164063       6.46183322        1       0.00000000      -0.00974652      -0.18267150       0.10170793
Pt      11.53159582       6.51457326       6.38561975        1       0.00000000       0.11719375      -0.06405930       0.07383679
