64
Lattice="10.394545575445967 -0.015498474977237477 0.03735558667173979 5.183850714672778 8.867850022110622 -0.015763731581630053 0.03050070879602506 -0.03247178109809288 8.858226141789528" Properties=species:S:1:pos:R:3:tags:I:1:initial_magmoms:R:1:forces:R:3 unique_id=61c52bbe3bd04c71a695cea95af3402c stress="0.0003574197963104042 -2.5835025226617364e-06 3.0414564858679894e-06 -2.5835025226617364e-06 0.0003659593494632976 2.1662137535792878e-05 3.0414564858679894e-06 2.1662137535792878e-05 0.00033128960742873775" energy=-400.7554378892919 pbc="T T T"
Ni      -0.01029133      -0.02118435       0.17606433        4       1.00000000      -0.06360302      -0.00182231       0.34761803
Ni       2.62210620      -0.01960102       0.11135747        4       1.00000000       0.13286596      -0.01467797       0.24732362
Ni       5.19652929      -0.04274065       0.16748233        4       1.00000000       0.03063271      -0.04164146       0.23496993
Ni       7.79216488      -0.08144558       0.20994822        4       1.00000000      -0.02503067      -0.18499862       0.41439241
Pt       1.30385033       2.21445765       0.09974653        4       0.00000000       0.04451255       0.01269625      -0.07979897
Pt       3.87689200       2.15097703       0.11116738        4       0.00000000       0.04858138      -0.04434347      -0.08214702
Pt       6.49564592       2.11862439       0.12065943        4       0.00000000       0.06044491      -0.13652224      -0.05784074
Pt       9.11953273       2.19269655       0.14563004        4       0.00000000       0.04724066      -0.05343467       0.09336608
Ni       2.57561568       4.47218423       0.11328693        4       1.00000000       0.05655222       0.03237724       0.11158572
Pt       5.16039275       4.45673752       0.14254367        4       0.00000000      -0.02818759       0.04334936       0.27030115
Pt       7.83558624       4.47528963       0.04483522        4       0.00000000       0.11972211       0.11109803      -0.18931651
Ni      10.42196361       4.46731788       0.08285774        4       1.00000000       0.07938335       0.10569647       0.10312001
Ni       3.84356810       6.69216121       0.08469482        4       1.00000000      -0.06906406       0.07246599       0.22810932
Pt       6.49653775       6.74990469       0.19471394        4       0.00000000       0.00051952       0.06804549       0.20398054
Ni       9.11945744       6.67877942       0.07330646        4       1.00000000       0.06312098       0.07626770       0.08371168
Ni      11.70252076       6.64550877       0.08253014        4       1.00000000       0.11679455      -0.02251455       0.07421535
Ni       1.33771451       0.74114484       2.22669289        3       1.00000000       0.09802834       0.13182745      -0.04587587
Ni       3.87735440       0.75670260       2.25635994        3       1.00000000      -0.08133834       0.11005992       0.16059905
Ni       6.49860879       0.75136671       2.26863644        3       1.00000000      -0.03920084       0.11738361       0.18281064
Pt       9.10389201       0.71670530       2.28765085        3       0.00000000       0.01444558       0.19908649       0.00582827
Ni       2.60585439       2.89844667       2.28368937        3       1.00000000       0.00874824      -0.12588358       0.19486494
Ni       5.19285341       2.89625516       2.28738089        3       1.00000000      -0.14100185      -0.12063524       0.06088696
Ni       7.77652085       2.91838342       2.27937052        3       1.00000000       0.03515331      -0.09051956      -0.12662013
Ni      10.42211108       2.91124357       2.31577857        3       1.00000000       0.05910317      -0.10848687       0.17156739
Pt       3.87890234       5.16582553       2.26347314        3       0.00000000      -0.02166224      -0.13037315      -0.04817607
Ni       6.50552477       5.15906611       2.25454991        3       1.00000000       0.00680691       0.01462611      -0.04242471
Pt       9.05029390       5.12752341       2.28748175        3       0.00000000      -0.15909978      -0.09270308      -0.07220334
Pt      11.69640196       5.10228483       2.22983600        3       0.00000000      -0.06325683      -0.11155263       0.08274730
Ni       5.19482394       7.39656429       2.21137802        3       1.00000000      -0.06479451      -0.00141887       0.05947337
Ni       7.78787446       7.41829378       2.23169411        3       1.00000000       0.07448489       0.09864367       0.02546485
Pt      10.38684477       7.43101072       2.14835600        3       0.00000000       0.00655060      -0.03734925       0.01345935
Ni      12.99471054       7.37359354       2.21059532        3       1.00000000      -0.03935643      -0.04907012       0.04317479
Ni       0.04913644       1.53498864       4.37217210        2       1.00000000       0.10949047       0.15397134      -0.14650718
Ni       2.61355948       1.52825805       4.40315099        2       1.00000000       0.00717399       0.11342910      -0.16728034
Ni       5.18076355       1.49517333       4.39928970        2       1.00000000      -0.11230769       0.05083570      -0.14226535
Ni       7.81246322       1.47449429       4.40444737        2       1.00000000       0.05512611      -0.06271714      -0.08874304
Ni       1.31969905       3.62122096       4.38731566        2       1.00000000       0.02570646      -0.10537433      -0.18686283
Ni       3.86253989       3.61500196       4.38261754        2       1.00000000      -0.07397287      -0.10040250      -0.15194575
Pt       6.55771219       3.60183713       4.34170744        2       0.00000000      -0.04868079      -0.00977710      -0.07179802
Ni       9.11833385       3.64575620       4.39182256        2       1.00000000       0.07098059      -0.16441326      -0.25358652
Ni       2.59394985       5.86378994       4.41376757        2       1.00000000      -0.04604167      -0.05875269       0.02386312
Pt       5.20154166       5.86634963       4.36076262        2       0.00000000       0.15896545      -0.05283200       0.17449960
Ni       7.81611391       5.85933016       4.40664938        2       1.00000000      -0.00906587       0.02244502      -0.08675753
Pt      10.40342839       5.80247994       4.51817394        2       0.00000000       0.04667747      -0.01585313       0.08372143
Pt       3.89503803       8.12664144       4.36531952        2       0.00000000      -0.07479769      -0.01364240       0.21949836
Pt       6.51962472       8.19800602       4.29690849        2       0.00000000      -0.01920551       0.13483086       0.02342832
Pt       9.06913691       8.15759920       4.38687855        2       0.00000000      -0.06056155       0.08124157      -0.00026408
Pt      11.69724876       8.13784932       4.36314468        2       0.00000000       0.05354625       0.09870476       0.05905535
Pt       0.07415674       0.00801483       6.62206468        1       0.00000000       0.07315816       0.06394195       0.19638594
Ni       2.62764614       0.00497415       6.58719224        1       1.00000000      -0.05145576       0.15619083      -0.13362396
Pt       5.15077320      -0.01511703       6.64482633        1       0.00000000      -0.11816709       0.06864747       0.12163701
Pt       7.79077506      -0.06240483       6.67160522        1       0.00000000      -0.06623448      -0.01588521       0.24648069
Ni       1.34067684       2.19928426       6.46290790        1       1.00000000       0.03259877       0.01201026      -0.31739167
Ni       3.87920810       2.17044449       6.47438196        1       1.00000000      -0.20493687      -0.02429852      -0.31126537
Ni       6.51449937       2.17936722       6.50530248        1       1.00000000       0.01810337      -0.08129144      -0.28877657
Pt       9.12182867       2.27025120       6.47022813        1       0.00000000      -0.00095308       0.05626903      -0.28505758
Pt       2.54084378       4.40423574       6.53209239        1       0.00000000      -0.11311546      -0.01123993       0.00396522
Pt       5.19898722       4.32967342       6.51655125        1       0.00000000      -0.04085816      -0.13046382      -0.30304322
Ni       7.84048312       4.40956818       6.48009976        1       1.00000000       0.05405948       0.02239423      -0.47648657
Ni      10.39917636       4.41153070       6.59316801        1       1.00000000      -0.05914961      -0.00838927      -0.04783335
Ni       3.88585717       6.61201531       6.56886330        1       1.00000000      -0.00627270      -0.04584313      -0.09783042
Pt       6.59698217       6.60953436       6.52950831        1       0.00000000       0.09122878       0.04861717      -0.11722150
Ni       9.12337136       6.58489828       6.59157612        1       1.00000000       0.06109565      -0.05946782      -0.07502360
Ni      11.69101715       6.58939011       6.60433243        1       1.00000000      -0.06022991       0.05143829      -0.07213800
