64
Lattice="10.494024976850836 0.03337675594551897 0.06683881253652266 5.275917606970146 9.1446648002685 0.060054373194812376 0.0 0.0 21.829116708400843" Properties=species:S:1:pos:R:3:tags:I:1:initial_magmoms:R:1:forces:R:3 unique_id=8ec9f8adf7174f47bcbaaad8f044ca17 stress="0.007597954254834366 6.0523767996135304e-05 0.00017949427226089692 6.0523767996135304e-05 0.008133739599108484 8.237918479015242e-05 0.00017949427226089692 8.237918479015242e-05 -0.0003591494951006493" energy=-387.1152520630114 pbc="T T T"
Pt      -0.05575409       0.06357175       0.01831315        0       0.00000000      -0.13576121       0.00905001      -0.12295214
Ni       2.65941041       0.01925454       0.15348220        2       1.00000000       0.01440721      -0.03734152      -0.00130930
Ni       5.26807031       0.00963368       0.08444789        1       1.00000000       0.12715486      -0.05780062       0.44051275
Ni       7.84323025       0.04026646       0.19102118        2       1.00000000      -0.04598966       0.05410266       0.06506854
Pt       1.31165569       2.30500382       0.00000000        0       0.00000000      -0.00627467       0.07180123      -0.14469054
Ni       3.95430282       2.27572139       0.16296717        2       1.00000000       0.04934075       0.07642246      -0.04858954
Pt       6.60012000       2.22488306       0.19604288        2       0.00000000      -0.10561081      -0.11808598      -0.12988964
Ni       9.18275059       2.33846298       0.13384372        1       1.00000000      -0.03265390       0.01386743       0.43891023
Pt       2.57103326       4.60385463       0.15197629        2       0.00000000      -0.11311221       0.14173418      -0.59426609
Pt       5.30439517       4.52131203       0.19410588        2       0.00000000       0.11054238      -0.11346395      -0.40669336
Ni       7.93365050       4.56983202       0.19827072        2       1.00000000       0.06509944       0.01142755       0.33379827
Ni      10.48164409       4.59971745       0.14316172        1       1.00000000      -0.00742514       0.02918681       0.34785435
Pt       3.90538934       6.89433586       0.13810497        1       0.00000000       0.02932212      -0.07267717      -0.94406507
Pt       6.63452648       6.85231148       0.18015594        2       0.00000000      -0.01136880      -0.11289800      -0.71160022
Pt       9.29049295       6.84492127       0.09594600        1       0.00000000       0.02904651      -0.12064942       0.13187978
Ni      11.81527503       6.91198019       0.22171192        2       1.00000000       0.04019179       0.02718490       0.05543214
Pt       1.30473021       0.78579664       2.27534740        4       0.00000000       0.00674539       0.06312874       0.21087220
Pt       4.04625605       0.79138276       2.21690768        3       0.00000000       0.14924952      -0.09374683       0.04574790
Ni       6.60532840       0.79970063       2.33081379        4       1.00000000       0.06530689       0.02060084       0.24015564
Ni       9.15271458       0.83403032       2.31957668        4       1.00000000      -0.06234056       0.16636538       0.12728190
Pt       2.67219780       3.07264923       2.32508047        4       0.00000000      -0.00776908      -0.09686188       0.22450241
Ni       5.30298871       3.06448704       2.34917129        4       1.00000000       0.03719006       0.03591215       0.39745710
Pt       7.85247018       3.09101775       2.40058174        5       0.00000000       0.01144229       0.03191175       0.16528269
Pt      10.45826852       3.15699965       2.31734437        4       0.00000000      -0.02876951       0.06010062       0.05082577
Pt       3.98630927       5.30201269       2.37105841        5       0.00000000       0.05450344       0.06089092       0.32013203
Ni       6.63672724       5.30773600       2.35220645        5       1.00000000       0.11751049      -0.08402878       0.30877832
Ni       9.20502343       5.34666153       2.37195828        5       1.00000000      -0.04664499      -0.02993525       0.22899563
Ni      11.79532533       5.37803364       2.35726648        5       1.00000000      -0.07856677      -0.00944006       0.19022874
Pt       5.26791697       7.63562243       2.34749142        4       0.00000000      -0.03048900       0.03803470       0.26765977
Pt       7.94746170       7.54662594       2.38492064        5       0.00000000       0.11558896      -0.02556023       0.34873871
Pt      10.56050095       7.59071955       2.37898569        5       0.00000000      -0.06446359      -0.02541067       0.22676839
Pt      13.10647835       7.73420065       2.36272637        5       0.00000000       0.00880959       0.06833363       0.15994184
Pt      -0.06844272       1.59830568       4.57970641        7       0.00000000      -0.12506664       0.13665479      -0.15710693
Pt       2.67364863       1.57926687       4.53863951        6       0.00000000       0.02009330       0.08060644      -0.22425848
Pt       5.36769528       1.57057567       4.47615667        6       0.00000000       0.06043472      -0.01898178      -0.21687527
Ni       7.89853262       1.59217434       4.53150894        6       1.00000000      -0.02479379       0.09348085      -0.22699453
Pt       1.24531155       3.87497243       4.53035390        6       0.00000000      -0.26829517       0.03413610      -0.18728129
Ni       4.00065952       3.81069330       4.53484285        6       1.00000000       0.06369707      -0.04564563      -0.31259795
Ni       6.64504782       3.83189043       4.52703331        6       1.00000000       0.11458217      -0.01345281      -0.29803968
Ni       9.17682160       3.88298946       4.56445133        7       1.00000000      -0.14099006       0.07607843      -0.22006411
Pt       2.58814327       6.12581085       4.49857051        6       0.00000000      -0.11951829       0.13747165      -0.28830657
Pt       5.36891278       6.02374359       4.50027002        6       0.00000000       0.09485720      -0.05870623      -0.29385929
Ni       7.96892030       6.05652921       4.55810533        7       1.00000000       0.13921814      -0.16878266      -0.33463930
Ni      10.49219351       6.10156430       4.59223823        7       1.00000000      -0.17840783      -0.08838493      -0.16145544
Pt       3.91917141       8.46180781       4.52626466        6       0.00000000      -0.08097814       0.04588804      -0.23027256
Pt       6.62432747       8.39600642       4.58149084        7       0.00000000      -0.05078757       0.05481701      -0.24024760
Pt       9.31718709       8.32995103       4.64812668        7       0.00000000       0.06425423      -0.00595158      -0.07466240
Ni      11.85092059       8.43544908       4.61129839        7       1.00000000       0.02157574       0.04786347      -0.16992650
Ni       0.03535439       0.05435396       6.65669693        8       1.00000000       0.02302391      -0.03195265       0.03113441
Pt       2.66676898       0.02342703       6.80756928        9       0.00000000      -0.10502986      -0.03910989       0.17493777
Ni       5.28023231       0.02565834       6.76476759        9       1.00000000       0.02257322       0.06598485      -0.26768890
Pt       7.91069268       0.07849253       6.80026557        9       0.00000000      -0.07081356       0.01863845      -0.11595134
Ni       1.29752234       2.29828220       6.66730669        8       1.00000000       0.01407521      -0.02445394       0.08696396
Pt       3.97183777       2.27325869       6.80042244        9       0.00000000      -0.00263857       0.17453089       0.13240409
Pt       6.65398377       2.30852537       6.70264919        8       0.00000000       0.17002558       0.09496865       0.26029292
Ni       9.26153312       2.33238418       6.80149021        9       1.00000000      -0.02948556       0.00355336      -0.37575415
Pt       2.59976472       4.55332481       6.69707609        8       0.00000000       0.11906460      -0.06911218       0.54937580
Pt       5.31565558       4.56526916       6.70042918        8       0.00000000      -0.01412460      -0.18467415       0.52939180
Pt       8.04815270       4.59343809       6.75017487        9       0.00000000      -0.02733093      -0.01393262      -0.30880010
Ni      10.52744441       4.59858331       6.79866902        9       1.00000000       0.02795848      -0.00261710      -0.44065499
Pt       3.99297050       6.90303677       6.70823974        8       0.00000000      -0.03580798      -0.06381595       0.71473780
Pt       6.67254342       6.87776785       6.73118186        8       0.00000000       0.17659338      -0.12087744       0.66124693
Ni       9.24858445       6.86977483       6.72962025        8       1.00000000      -0.09020304      -0.10650778       0.04843896
Pt      11.73907794       6.91429039       6.82911671        9       0.00000000      -0.02196716       0.01013075      -0.26625626
