64
Lattice="10.409707602516786 0.024816943814247733 -0.027708772115877536 5.226345905045879 8.991288040114288 0.006597395537140938 0.0 0.0 21.679010529139667" Properties=species:S:1:pos:R:3:tags:I:1:initial_magmoms:R:1:forces:R:3 unique_id=9a82410c3ca54488a20bda9976e9af9c stress="0.006602100412381865 0.00032931904367071587 0.00025073159333712056 0.00032931904367071587 0.006721716108899718 0.00014993293616258818 0.00025073159333712056 0.00014993293616258818 -0.002169362567899267" energy=-380.4745035903858 pbc="T T T"
Ni      -0.04676912       0.00493983       0.21087092        2       1.00000000      -0.06061983       0.02277182       0.00408556
Ni       2.62807378      -0.00906464       0.10835103        1       1.00000000       0.04062525       0.03532975       0.36525257
Ni       5.20358517      -0.01239014       0.14244886        1       1.00000000       0.04796892       0.08243890      -0.32503307
Ni       7.83618722      -0.03563976       0.09933234        1       1.00000000      -0.03405024      -0.01833576       0.45054996
Pt       1.26883515       2.21296688       0.15764362        2       0.00000000       0.16619602      -0.12740155      -0.73204342
Pt       3.88605413       2.19478602       0.10892935        1       0.00000000       0.02015891       0.04208824      -0.01035795
Pt       6.54175757       2.13728112       0.13026974        1       0.00000000      -0.13618115      -0.07553812      -0.69122046
Ni       9.11921691       2.22478551       0.13161437        1       1.00000000       0.01492586      -0.13139575      -0.05195806
Ni       2.59589840       4.52310261       0.15743951        2       1.00000000      -0.01417252      -0.06723181      -0.20692230
Pt       5.19876744       4.52160513       0.15880694        2       0.00000000       0.28194708      -0.09626174      -0.74393895
Pt       7.90916975       4.52722894       0.00000000        0       0.00000000      -0.20544370      -0.00198221      -0.09675531
Ni      10.44325261       4.55560424       0.04078277        0       1.00000000       0.06222344       0.03624734       0.26624772
Ni       3.87301565       6.79909518       0.19996257        2       1.00000000       0.01337364       0.04738371       0.02490762
Pt       6.53079710       6.85395260       0.20632105        2       0.00000000      -0.03931435      -0.10179864      -0.39520903
Ni       9.15710948       6.79522387       0.05728277        1       1.00000000      -0.01553616      -0.01046765       0.28522373
Ni      11.74291968       6.78974635       0.04929531        0       1.00000000       0.08441430       0.07868580       0.34411386
Ni       1.30917849       0.70852691       2.22035254        3       1.00000000       0.03977260      -0.09520538       0.07671462
Ni       3.88793523       0.77759934       2.24034370        3       1.00000000      -0.02066071       0.07178882       0.12452478
Ni       6.51304472       0.74464688       2.26159600        4       1.00000000       0.04050805      -0.00357406       0.19772184
Ni       9.09877556       0.72370582       2.18062650        3       1.00000000      -0.03190779      -0.07491000       0.05051901
Ni       2.63966316       2.98771293       2.24871237        3       1.00000000       0.07221790       0.03183038       0.21253548
Ni       5.16893757       2.95988779       2.28728517        4       1.00000000      -0.07985000      -0.08686785       0.27741522
Pt       7.78870129       2.93690005       2.26686470        4       0.00000000      -0.03275206       0.05520524       0.18162174
Pt      10.40417542       2.94078044       2.26816130        4       0.00000000      -0.03483809       0.06322234       0.19991244
Pt       3.90293766       5.26591544       2.27330157        4       0.00000000      -0.01581018       0.07258881       0.18513939
Ni       6.51597706       5.28025883       2.25710400        4       1.00000000       0.00859863      -0.02858131       0.27257569
Pt       9.06632507       5.31534786       2.30281425        4       0.00000000      -0.03380072      -0.03044174       0.10445352
Pt      11.72566914       5.30459331       2.17361365        3       0.00000000      -0.07375728      -0.03353234       0.06943738
Ni       5.19693500       7.54806274       2.22003511        3       1.00000000      -0.06350432       0.02963570       0.17224085
Ni       7.81062301       7.56043155       2.24581009        3       1.00000000       0.02593475       0.13441219       0.11604635
Pt      10.42176597       7.58870711       2.15102995        3       0.00000000      -0.03072458       0.04448672       0.04008880
Ni      13.04109987       7.57070684       2.18598353        3       1.00000000      -0.02453468       0.08042771       0.04766238
Ni      -0.04080311       1.52811343       4.42538462        6       1.00000000      -0.03762392       0.03349752      -0.15275021
Pt       2.66092703       1.55552516       4.34703197        5       0.00000000       0.07662483      -0.00853051      -0.17060720
Ni       5.20250914       1.53011101       4.36923539        6       1.00000000       0.02541902       0.02391667      -0.35155142
Ni       7.81264300       1.52328405       4.39740185        6       1.00000000       0.01495803       0.01934546      -0.21833304
Pt       1.26612806       3.81839510       4.42675964        6       0.00000000      -0.00169566       0.08400865      -0.07080221
Ni       3.90207554       3.74508308       4.40711696        6       1.00000000       0.02020439       0.00221584      -0.24244021
Pt       6.52759258       3.74446582       4.36871324        6       0.00000000       0.06154888       0.01302767      -0.23902289
Ni       9.11003227       3.79670082       4.44559501        6       1.00000000       0.00134062      -0.03513184      -0.14496798
Ni       2.58401801       6.00753174       4.44101148        6       1.00000000       0.04537641       0.03386724      -0.13581068
Pt       5.20574177       6.01296623       4.38124093        6       0.00000000      -0.06575556       0.10294221      -0.15806332
Ni       7.85623803       5.97947104       4.43206059        6       1.00000000       0.02844585      -0.03969147      -0.12351923
Ni      10.39430969       6.01044392       4.48007071        7       1.00000000       0.00406244       0.03506311      -0.00867115
Pt       3.88711766       8.31389050       4.34366047        5       0.00000000       0.01647623       0.05215999      -0.07343101
Pt       6.52051245       8.29323669       4.33751022        5       0.00000000      -0.03746615       0.19691396      -0.13436350
Pt       9.11705531       8.20303998       4.41611922        6       0.00000000      -0.01665627      -0.02972563      -0.08060426
Pt      11.73044550       8.27125832       4.42004983        6       0.00000000      -0.02495467       0.01968082      -0.01903257
Pt      -0.01885257       0.01357480       6.67718970       10       0.00000000       0.12527758       0.14174999       0.02807587
Ni       2.61625609       0.01056161       6.61843964        9       1.00000000      -0.04160878      -0.02442379      -0.21640027
Pt       5.14752442      -0.04776041       6.67115935       10       0.00000000       0.02336749       0.09688187       0.06669790
Ni       7.77233704       0.02556852       6.60275658        9       1.00000000      -0.05745084       0.04111571      -0.21854332
Pt       1.32674101       2.24122264       6.56166976        9       0.00000000      -0.19026793      -0.10686554       0.67845164
Ni       3.89112337       2.24117615       6.53015786        8       1.00000000       0.07706147      -0.01675864       0.02752086
Pt       6.48997547       2.20219020       6.51473218        8       0.00000000      -0.08514570      -0.17695363       0.62943002
Pt       9.09130229       2.34298667       6.57673280        9       0.00000000       0.08644600      -0.03173529      -0.12268245
Pt       2.53057712       4.53784047       6.65150988       10       0.00000000       0.13093258       0.04077863       0.13856961
Pt       5.19333391       4.47619660       6.55478659        9       0.00000000      -0.10218799      -0.00158888       0.82168789
Ni       7.85830067       4.53464866       6.48335539        8       1.00000000       0.00048182       0.03941115       0.16345590
Ni      10.35818076       4.59195197       6.57581773        9       1.00000000      -0.05098642      -0.02593897      -0.30605548
Pt       3.81348418       6.80120069       6.67901053       10       0.00000000       0.08891350      -0.17928056      -0.00246432
Pt       6.63374256       6.74928218       6.57406394        9       0.00000000       0.00438144      -0.13006777       0.38408904
Ni       9.15035506       6.70954090       6.59488164        9       1.00000000      -0.00574006      -0.07244597      -0.28295518
Ni      11.65714954       6.75373662       6.59246046        9       1.00000000      -0.08518567      -0.04245557      -0.28045877
