64
Lattice="10.212240088114884 -0.010018986789690305 0.02530860515016375 5.097443346977388 8.730513497491811 -0.04439011662292471 0.020664389573158488 -0.053781994191678166 8.704512851791488" Properties=species:S:1:pos:R:3:tags:I:1:initial_magmoms:R:1:forces:R:3 unique_id=a390acc8b678472b91ac16ba7cf51701 stress="-0.00748175821989374 -3.3212572985465545e-06 -1.0006719578069423e-05 -3.3212572985465545e-06 -0.007394281089188631 3.3192737171380308e-06 -1.0006719578069423e-05 3.3192737171380308e-06 -0.00639246575257979" energy=-391.67165029387525 pbc="T T T"
Ni       0.04719965      -0.05572382       0.20415907        4       1.00000000       0.09276140      -0.06252711       0.17529735
Ni       2.49399731      -0.03966957       0.23431237        4       1.00000000      -0.01535264      -0.02688751       0.23038540
Pt       5.09721666      -0.04810252       0.16961838        4       0.00000000      -0.00754651       0.08016282      -0.21829209
Ni       7.68772336      -0.06600932       0.22837019        4       1.00000000       0.00980816      -0.00555228       0.18047579
Ni       1.27605666       2.18754833       0.11673732        4       1.00000000       0.01334481       0.01485207       0.15931467
Pt       3.74507546       2.24318214       0.18103820        4       0.00000000       0.00777506       0.03441326      -0.08539157
Pt       6.39807575       2.26027421       0.10630705        4       0.00000000      -0.00567552       0.07083001      -0.11190546
Pt       9.01083612       2.22510793       0.13677346        4       0.00000000       0.06308367       0.05221889      -0.16595204
Ni       2.54695285       4.40894570       0.04072263        4       1.00000000       0.06856090       0.07027279      -0.07257501
Ni       5.10209158       4.44908683       0.09932732        4       1.00000000      -0.00001473       0.10052376       0.07093827
Ni       7.65287003       4.43554426       0.11139208        4       1.00000000       0.00288377       0.06074825       0.08308402
Ni      10.23344043       4.39800071       0.07789555        4       1.00000000       0.04626586       0.09219453       0.01196986
Ni       3.84060023       6.53079169       0.07868258        4       1.00000000       0.07214479       0.00085457       0.03328237
Ni       6.36638301       6.53251270       0.09382172        4       1.00000000      -0.01875641      -0.02136032      -0.02588956
Ni       8.87341686       6.48321010       0.15093056        4       1.00000000      -0.14544550      -0.04688159       0.04861086
Ni      11.52897262       6.49577225       0.05767503        4       1.00000000       0.09524879      -0.01594783      -0.05392741
Ni       1.31278835       0.71844268       2.21499190        3       1.00000000       0.00539995      -0.00555459       0.16211013
Ni       3.78635366       0.75094425       2.23503849        3       1.00000000      -0.01566620       0.00294550       0.04904929
Ni       6.38445916       0.76311772       2.24004339        3       1.00000000      -0.02820229       0.08274868       0.03305282
Pt       8.96804700       0.70975005       2.24088481        3       0.00000000       0.01491809      -0.02895479       0.14488948
Ni       2.54669333       2.86599766       2.26599863        3       1.00000000       0.01301186      -0.06823034       0.10893171
Ni       5.08716799       2.92959529       2.23056106        3       1.00000000      -0.04501881       0.05302747      -0.03653190
Ni       7.66823191       2.94305543       2.23151833        3       1.00000000       0.02496468      -0.00335948      -0.02646668
Ni      10.24260309       2.88651354       2.26224625        3       1.00000000       0.05450794      -0.02354253       0.08465974
Ni       3.87834457       5.07123523       2.16852805        3       1.00000000       0.06068813      -0.02507529       0.02772003
Ni       6.37863352       5.09404998       2.15058535        3       1.00000000      -0.01225680      -0.03671947       0.00054340
Ni       8.87783679       5.02191294       2.18801058        3       1.00000000      -0.01757918      -0.08574165       0.05434554
Pt      11.54273543       4.99224281       2.20257026        3       0.00000000       0.05759413      -0.05182643       0.01547700
Ni       5.14843556       7.20053120       2.12418194        3       1.00000000      -0.01215536      -0.08591459       0.04313981
Ni       7.57462598       7.22855396       2.13395042        3       1.00000000      -0.07309131      -0.09952971       0.06893551
Pt      10.16642168       7.17799816       2.15240896        3       0.00000000      -0.01758612      -0.15481713       0.09108037
Ni      12.80971339       7.20131715       2.12031767        3       1.00000000       0.08902789      -0.12157194       0.02952646
Ni       0.07580546       1.47220671       4.28417969        2       1.00000000       0.07527689      -0.04066922      -0.01311025
Ni       2.51310280       1.48245963       4.26097235        2       1.00000000      -0.01206906       0.00207903       0.01290171
Ni       5.09565988       1.46701688       4.25160463        2       1.00000000      -0.09131611       0.03111478      -0.16005680
Ni       7.66612419       1.45357840       4.30178220        2       1.00000000      -0.00425741      -0.02908899      -0.07092682
Ni       1.28846834       3.59850669       4.33129334        2       1.00000000       0.01832602      -0.02597309      -0.01071835
Ni       3.80439687       3.65875393       4.24181024        2       1.00000000      -0.00389200       0.05006666      -0.15712124
Pt       6.38231548       3.63290601       4.28935084        2       0.00000000       0.00034840      -0.02137021      -0.07440610
Ni       8.97276231       3.65017125       4.25527093        2       1.00000000       0.00033058       0.04591634      -0.14373955
Ni       2.57842538       5.71294163       4.32054032        2       1.00000000       0.02935441      -0.04322531      -0.07705450
Ni       5.12166363       5.76179635       4.29356459        2       1.00000000       0.03878877      -0.05581735      -0.12436541
Ni       7.63546369       5.77251137       4.26617863        2       1.00000000      -0.01276855       0.01344434      -0.11992684
Ni      10.22401846       5.70198641       4.32612932        2       1.00000000      -0.00434718      -0.02556189      -0.04997809
Pt       3.90591346       7.89207164       4.24635929        2       0.00000000      -0.00045459      -0.02102916       0.06384754
Ni       6.37513399       7.94871587       4.22327707        2       1.00000000      -0.03092236      -0.02283591      -0.06295357
Pt       8.83218135       7.97891108       4.22093761        2       0.00000000      -0.06419154      -0.02371710       0.00748089
Pt      11.52471869       7.93335055       4.23033333        2       0.00000000       0.03550947      -0.06492971      -0.13098449
Pt       0.02902874      -0.07800430       6.50652648        1       0.00000000      -0.09008442       0.02207320       0.18023561
Pt       2.53103541      -0.02814914       6.51333441        1       0.00000000       0.05110269       0.07016513       0.23590937
Pt       5.12578375      -0.01658469       6.38760381        1       0.00000000      -0.09541009       0.10917362       0.08304257
Pt       7.67551395      -0.08674602       6.54584383        1       0.00000000       0.00482202       0.00767608       0.21100966
Ni       1.28731479       2.21802475       6.39701427        1       1.00000000       0.00039648       0.04859096      -0.04695215
Pt       3.82224202       2.29034114       6.32495301        1       0.00000000      -0.01276358       0.09269088      -0.02990967
Ni       6.39438826       2.19243953       6.35179850        1       1.00000000      -0.03166145       0.00635617      -0.13149750
Pt       8.96138658       2.25091928       6.31512841        1       0.00000000      -0.01594138       0.04861077      -0.05009513
Ni       2.53209441       4.38373040       6.38516006        1       1.00000000      -0.02951424       0.06572674      -0.11167576
Ni       5.12246351       4.39056033       6.42283026        1       1.00000000      -0.02968660       0.08371211      -0.02500289
Ni       7.60262410       4.32552840       6.43359502        1       1.00000000      -0.15014178       0.01062831      -0.01180324
Ni      10.30339761       4.32164993       6.40714593        1       1.00000000       0.11553696       0.01067246      -0.10128388
Ni       3.83687820       6.41293328       6.41455227        1       1.00000000      -0.01768782      -0.06766002      -0.02015439
Ni       6.35742703       6.44006523       6.40152042        1       1.00000000      -0.01404884       0.01413982      -0.13621282
Pt       8.93903133       6.36858906       6.45311636        1       0.00000000      -0.01872315      -0.04334453       0.07166217
Ni      11.52735754       6.42424311       6.41948461        1       1.00000000      -0.01755304       0.00658709      -0.11604826
