64
Lattice="10.16685211886948 0.027335230399090717 -0.0627279604686729 5.107099063378712 8.753969039572652 -0.04723824281966447 -0.051217165251241405 -0.014966398293894935 8.68311897354898" Properties=species:S:1:pos:R:3:tags:I:1:initial_magmoms:R:1:forces:R:3 unique_id=ce7416ee1a84489eb54686f89aaa7a89 stress="-0.00021097432925059473 -3.170551157712716e-06 2.201589948639359e-05 -3.170551157712716e-06 -0.000201591088272772 -5.30442271743902e-06 2.201589948639359e-05 -5.30442271743902e-06 -0.00014949261695351018" energy=-389.4328950049502 pbc="T T T"
Ni       0.03202376      -0.04739021       0.19805739        4       1.00000000       0.05178157      -0.04878598       0.24638485
Ni       2.51368999      -0.02582528       0.19427199        4       1.00000000      -0.03357651      -0.05363813       0.19538489
Ni       5.09031395       0.00690718       0.15760568        4       1.00000000      -0.06394530       0.02507306       0.22513904
Ni       7.58079099      -0.02356357       0.12664837        4       1.00000000      -0.11125806      -0.05730156       0.17912561
Ni       1.27367768       2.20160953       0.11403516        4       1.00000000      -0.03130609       0.05370074       0.20141781
Pt       3.80260775       2.21433634       0.15634014        4       0.00000000      -0.08004528       0.03273515       0.29178606
Ni       6.34852224       2.21953847       0.07870872        4       1.00000000      -0.02588167       0.09118964       0.16028687
Pt       8.89276813       2.27513279       0.07298051        4       0.00000000      -0.03813064       0.04284481       0.24879050
Ni       2.52836178       4.41511796       0.08424197        4       1.00000000      -0.02219827       0.05477380       0.11146761
Ni       5.10738284       4.42206054       0.07257990        4       1.00000000      -0.04044573       0.08972118       0.10774468
Ni       7.59609794       4.43653942       0.06353545        4       1.00000000      -0.11043945       0.11117202       0.16605194
Ni      10.20192531       4.43743247       0.04119382        4       1.00000000       0.01424347       0.15374293       0.11551571
Ni       3.82796628       6.54587274       0.07741290        4       1.00000000       0.00848771      -0.02843001       0.08401058
Ni       6.35678832       6.56131399       0.06524879        4       1.00000000      -0.08372778      -0.00468000       0.00099618
Ni       8.87341762       6.55245562       0.10388928        4       1.00000000      -0.15712510      -0.03903618       0.17403770
Ni      11.47516125       6.56151243      -0.00420414        4       1.00000000       0.02176912      -0.05433880      -0.07456753
Ni       1.30600030       0.72645130       2.15761587        3       1.00000000       0.02919765       0.01324184       0.07225892
Ni       3.75905695       0.73303553       2.15552147        3       1.00000000      -0.06619333      -0.00499481      -0.07081086
Ni       6.33716896       0.76930134       2.11403976        3       1.00000000      -0.02402997       0.03121765       0.00306809
Pt       8.86501366       0.71604696       2.12304255        3       0.00000000      -0.01749504       0.10806511      -0.19278169
Ni       2.51006389       2.94828001       2.21312771        3       1.00000000       0.06139200       0.03406098       0.02718035
Ni       5.09584608       2.98053058       2.14396354        3       1.00000000      -0.07290811       0.15341659      -0.11006480
Ni       7.59198224       2.98041277       2.14812874        3       1.00000000       0.05808164       0.03205053      -0.01722823
Ni      10.20985983       3.00726789       2.12591064        3       1.00000000       0.01026558       0.08177182      -0.03392027
Ni       3.81232429       5.10015524       2.14609110        3       1.00000000       0.01758805      -0.02896303      -0.00285358
Ni       6.35224951       5.13438840       2.10257846        3       1.00000000      -0.01711269       0.03530735      -0.01684225
Ni       8.87705044       5.08633700       2.12171094        3       1.00000000      -0.04244736      -0.02758460       0.02269920
Ni      11.46821435       5.08651868       2.10641907        3       1.00000000       0.09862576      -0.07407671       0.03692009
Ni       5.12564893       7.22849277       2.11333272        3       1.00000000      -0.02340117      -0.13315757       0.02052167
Ni       7.57162986       7.26842571       2.09018615        3       1.00000000      -0.04783781      -0.12441041       0.02408567
Pt      10.21303708       7.25385997       2.07625094        3       0.00000000       0.00997937      -0.11493412      -0.03133296
Ni      12.72211936       7.23813128       2.05378587        3       1.00000000       0.07278818      -0.21037871      -0.03325359
Pt       0.06477032       1.50922770       4.25593188        2       0.00000000       0.07081401       0.00567190       0.11726591
Ni       2.52090507       1.50527429       4.23384404        2       1.00000000       0.12510532       0.08775984      -0.08841187
Pt       5.08093490       1.47681622       4.17656595        2       0.00000000      -0.02243239      -0.01505199       0.04878787
Ni       7.59983273       1.47462455       4.23246601        2       1.00000000       0.05485129      -0.02936894      -0.06321587
Ni       1.28863036       3.69414773       4.29480460        2       1.00000000       0.06850814      -0.01802881      -0.09521415
Ni       3.74921293       3.72783046       4.22797477        2       1.00000000       0.03878099       0.06037542      -0.14861960
Pt       6.36504606       3.72152503       4.25272100        2       0.00000000       0.04335887      -0.03250928      -0.00646044
Ni       8.91127118       3.74609132       4.19360881        2       1.00000000       0.08376653       0.07360759      -0.14237446
Ni       2.50675766       5.76980226       4.28418975        2       1.00000000      -0.02988010      -0.00416290      -0.19383612
Ni       5.07090877       5.81358988       4.26742748        2       1.00000000      -0.00103242      -0.07529960      -0.16766279
Ni       7.59997487       5.83401625       4.21682465        2       1.00000000       0.00479399       0.02280466      -0.17289856
Ni      10.20171127       5.78380878       4.23035320        2       1.00000000       0.03815463      -0.03365389      -0.08177046
Pt       3.79577689       7.89866532       4.22701972        2       0.00000000      -0.03857670      -0.06455288       0.12190375
Ni       6.34018950       7.96025287       4.20120156        2       1.00000000      -0.03197976      -0.07713800      -0.11161309
Pt       8.84001237       7.97644967       4.16860961        2       0.00000000      -0.05948617      -0.04211611       0.12636062
Ni      11.43905734       7.97067320       4.20118978        2       1.00000000       0.01996842      -0.08633241      -0.01467484
Pt      -0.02935601      -0.07626513       6.50671274        1       0.00000000       0.12409095      -0.08603775       0.13960859
Pt       2.48736673       0.00350809       6.45898566        1       0.00000000      -0.13395649       0.01488580       0.10033514
Pt       5.06795457      -0.01186275       6.46738910        1       0.00000000       0.13785475      -0.00236862       0.06492565
Pt       7.58762710      -0.03811294       6.42443328        1       0.00000000      -0.11102242      -0.07536966       0.03228015
Ni       1.24504603       2.25478079       6.42254041        1       1.00000000       0.05431761       0.06683448      -0.05506514
Pt       3.76648757       2.32617699       6.34305171        1       0.00000000       0.02826025       0.21176487      -0.33491671
Ni       6.32272804       2.25002278       6.40105677        1       1.00000000      -0.03447732       0.02906920      -0.06310070
Pt       8.85235490       2.31472169       6.29029313        1       0.00000000       0.01913927       0.13493774      -0.42781448
Ni       2.49238991       4.42936311       6.38075715        1       1.00000000       0.03837853       0.05861563      -0.12381299
Ni       5.07146494       4.43628774       6.39299030        1       1.00000000      -0.01133888       0.06749219      -0.06195729
Ni       7.54293618       4.39376274       6.39243328        1       1.00000000      -0.12732212       0.00695285       0.00335987
Ni      10.22605135       4.38416151       6.33512187        1       1.00000000       0.19652788      -0.02549636      -0.14223006
Ni       3.79289996       6.45457111       6.40003171        1       1.00000000       0.00246407      -0.13022421      -0.06137044
Ni       6.31119352       6.48722447       6.36518774        1       1.00000000       0.02241710      -0.00596355      -0.17383424
Pt       8.88475049       6.42753287       6.40188716        1       0.00000000       0.06126571      -0.18163042       0.05783857
Ni      11.45836356       6.49863065       6.32485724        1       1.00000000       0.02399171       0.00515863      -0.21303007
