64
Lattice="10.313170581589823 0.005356397270788842 -0.0485544103682148 5.161224066904179 8.955308041988113 0.043565520140214274 0.0 0.0 21.67620196491715" Properties=species:S:1:pos:R:3:tags:I:1:initial_magmoms:R:1:forces:R:3 unique_id=f652e12b139748729bffd924817794e9 energy=-378.2335287895973 stress="0.004970933182735587 4.6195623624204984e-05 -0.0002922361303561143 4.6195623624204984e-05 0.0048854856848828294 0.0006017443792645718 -0.0002922361303561143 0.0006017443792645718 -0.002966679812960813" pbc="T T T"
Ni       0.03027910       0.01585110       0.18990976        2       1.00000000       0.03045987      -0.05504670      -0.14410672
Ni       2.52077299       0.02942153       0.08376368        1       1.00000000      -0.04439726       0.08909907       0.14703116
Ni       5.20221840       0.03622805       0.08095692        1       1.00000000       0.03879463       0.09607216       0.20652270
Ni       7.70647421       0.02393646       0.07144949        1       1.00000000      -0.01318004      -0.02124871       0.34508191
Ni       1.24820942       2.18745567       0.19516316        2       1.00000000      -0.09984129      -0.09814297      -0.23031725
Pt       3.84868925       2.19414952       0.14485836        1       0.00000000      -0.03582982      -0.13342783      -1.02102983
Ni       6.45015004       2.19198139       0.17710608        2       1.00000000      -0.03913037      -0.09417474      -0.42915686
Ni       9.02945975       2.20113317       0.05705531        1       1.00000000       0.04468879      -0.00653007       0.23088830
Ni       2.59586757       4.51536406       0.22157398        2       1.00000000       0.00764821       0.12154589      -0.31366306
Ni       5.12152644       4.51281054       0.21884388        2       1.00000000      -0.04094796       0.08681142      -0.30234454
Pt       7.64794822       4.47864538       0.00852696        0       0.00000000       0.02003824       0.11616523      -0.05594075
Pt      10.38346189       4.43372305       0.06073114        1       0.00000000       0.00052109      -0.00509901       0.00161374
Pt       3.86904018       6.75087781       0.14571144        1       0.00000000       0.00057716       0.07042926       0.18713971
Ni       6.40803582       6.75444264       0.11784968        1       1.00000000       0.00528888      -0.01063412       0.18809263
Pt       9.02253836       6.81894440       0.00000000        0       0.00000000      -0.00161407      -0.13325445      -0.21660761
Ni      11.63521510       6.75229013       0.19633202        2       1.00000000       0.03197643      -0.00125981      -0.28773569
Ni       1.26223505       0.76919825       2.21119052        3       1.00000000       0.06537563       0.01465693       0.08789429
Ni       3.85755566       0.75788943       2.25156700        4       1.00000000      -0.02781664      -0.01835809       0.19152898
Ni       6.44578455       0.74883730       2.21187831        3       1.00000000       0.05199351      -0.00757054       0.10201376
Pt       9.06304530       0.68374642       2.18096433        3       0.00000000      -0.03166820       0.01537461       0.06690473
Pt       2.46613422       3.04042390       2.23353148        3       0.00000000      -0.13570807       0.17449393       0.17775229
Pt       5.15445231       2.99841799       2.24916286        3       0.00000000       0.07703821       0.08227957       0.28043755
Pt       7.76949861       2.95960906       2.21071600        3       0.00000000       0.01645613      -0.04441487       0.09892360
Ni      10.30684711       2.97046007       2.26016115        4       1.00000000      -0.01520397       0.00605966       0.18605776
Ni       3.86851137       5.29204515       2.26224982        4       1.00000000      -0.01276307       0.00539805       0.18320036
Ni       6.38349935       5.28539224       2.25850107        4       1.00000000      -0.02752064       0.02950624       0.08868907
Pt       9.02921738       5.22568580       2.28660176        4       0.00000000       0.02551829       0.09650705       0.11433706
Ni      11.63242315       5.26957603       2.22564469        3       1.00000000      -0.02373092       0.09081521       0.14327799
Ni       5.12207883       7.43413817       2.28908611        4       1.00000000      -0.00503990      -0.13617861       0.14671279
Pt       7.65250805       7.51724553       2.23771221        3       0.00000000      -0.02617463       0.02362570       0.03994757
Pt      10.39914219       7.54919765       2.24411558        3       0.00000000      -0.06293121      -0.00847352       0.09251257
Ni      12.91960326       7.48811377       2.23109612        3       1.00000000       0.02881443      -0.00194593       0.10590683
Ni      -0.04207356       1.54914276       4.41936475        5       1.00000000       0.00749705      -0.00494596      -0.11723632
Pt       2.48900713       1.50986654       4.37601812        5       0.00000000      -0.08326769       0.02496369      -0.14285868
Ni       5.17840006       1.49551278       4.39592662        5       1.00000000       0.04647505       0.02511400      -0.16877066
Pt       7.75814277       1.45416505       4.43311943        5       0.00000000       0.08394153      -0.00038746      -0.00709050
Ni       1.21555283       3.74709951       4.43259893        5       1.00000000       0.04827279      -0.06015259      -0.16960835
Pt       3.84779230       3.80332356       4.41740829        5       0.00000000      -0.02203048       0.01144074      -0.14219437
Pt       6.49880977       3.83311952       4.42851158        5       0.00000000       0.01048256      -0.03137359      -0.16044804
Ni       9.05001935       3.72240429       4.45943319        6       1.00000000       0.06036040      -0.12187958      -0.14170638
Pt       2.59265549       6.09043952       4.38053387        5       0.00000000       0.00240234       0.02049270      -0.14140405
Ni       5.14809020       6.02641222       4.41365286        5       1.00000000       0.00771191      -0.05135102      -0.16216449
Ni       7.70781702       6.01175416       4.46718430        6       1.00000000      -0.02603762       0.05152140      -0.19499935
Pt      10.28748498       5.94146347       4.46840806        6       0.00000000       0.05057122      -0.00045141      -0.17847605
Ni       3.84660123       8.22812219       4.47074297        6       1.00000000      -0.00081050       0.00024500      -0.13583106
Pt       6.34665451       8.18528667       4.46179451        6       0.00000000       0.01525101      -0.06724114      -0.08609498
Pt       9.05187394       8.26171465       4.50074130        6       0.00000000       0.03006434       0.02611960      -0.05110932
Ni      11.60414979       8.27457078       4.43494241        5       1.00000000      -0.00865175      -0.01322427      -0.09354082
Pt      -0.08282201      -0.01136250       6.65123282        9       0.00000000       0.05504809       0.08662823      -0.16255534
Ni       2.55326368      -0.02233730       6.59969639        8       1.00000000      -0.05169163      -0.01369645      -0.17277052
Ni       5.12997357       0.02544242       6.57918299        8       1.00000000       0.03454023       0.03568896      -0.11379453
Ni       7.71358761       0.02445641       6.56512051        8       1.00000000      -0.03115246      -0.07083692      -0.10325937
Pt       1.17756431       2.27717834       6.64116825        8       0.00000000      -0.06871098       0.01669306       0.04652102
Pt       3.86631313       2.18133654       6.53410408        7       0.00000000       0.18668330       0.07044046       1.09182251
Pt       6.50745335       2.22838476       6.66334028        9       0.00000000      -0.20644467       0.13433075       0.10983047
Ni       9.00336570       2.30977291       6.56315810        8       1.00000000       0.06658226       0.01824861      -0.18959047
Pt       2.51626031       4.55239124       6.67182504        9       0.00000000      -0.06577716      -0.10282252       0.20762301
Pt       5.21420699       4.62949253       6.67620196        9       0.00000000       0.04084800      -0.09804245       0.13161235
Ni       7.78995673       4.55149385       6.47648884        7       1.00000000       0.06530229       0.06433460       0.27747892
Ni      10.22273509       4.50850968       6.50364239        7       1.00000000       0.04290826      -0.05420256       0.27319543
Ni       3.85108112       6.77914507       6.54958189        7       1.00000000       0.00020411      -0.03611517       0.05934717
Ni       6.48516565       6.76653925       6.61233167        8       1.00000000       0.06258537      -0.07269967      -0.23905461
Ni       8.94931144       6.73933775       6.50669276        7       1.00000000      -0.03618125      -0.05379120       0.46530542
Pt      11.54808198       6.85087405       6.66243398        9       0.00000000      -0.11866734      -0.07612789       0.00025688
