64
Lattice="10.30493296132774 -0.0013052888120060838 -0.005750142564086026 5.151336067393394 8.86989727082356 -0.06253504977565866 0.0 0.0 21.59342069914752" Properties=species:S:1:pos:R:3:tags:I:1:initial_magmoms:R:1:forces:R:3 unique_id=c8de239368fd4043af6d28b0249d444c energy=-374.9710767122954 stress="0.005284519876751772 3.000736234911946e-05 0.0002272154951684883 3.000736234911946e-05 0.005281148819785642 -0.0003862568804073876 0.0002272154951684883 -0.0003862568804073876 -0.0020998952119230044" pbc="T T T"
Ni      -0.01822742       0.02067192       0.19772238        2       1.00000000      -0.00700921      -0.00071633      -0.06462438
Ni       2.57056046      -0.00327374       0.20011778        2       1.00000000      -0.04658772       0.00591983      -0.15856521
Ni       5.14444217      -0.02938454       0.15226328        2       1.00000000      -0.03216516       0.18278814      -0.47228779
Ni       7.76204181      -0.05109175       0.08543384        1       1.00000000       0.06118886      -0.06156457       0.30953030
Ni       1.26764456       2.20463149       0.06357344        1       1.00000000      -0.01223868      -0.08117964       0.27624851
Pt       3.79339345       2.21727840       0.08337713        1       0.00000000       0.06936702      -0.03388660      -0.03557572
Pt       6.46034256       2.19523435       0.10545007        1       0.00000000      -0.03260740       0.03463194      -0.74609218
Ni       9.03914439       2.16927961       0.11650486        1       1.00000000      -0.10271781      -0.11485625      -0.09928034
Ni       2.57532856       4.44864103       0.03365002        0       1.00000000       0.10022386       0.03604324       0.20310000
Ni       5.11451118       4.44883560       0.14554231        1       1.00000000      -0.04921900       0.04223627       0.01760165
Pt       7.80593152       4.44777743       0.06010725        1       0.00000000       0.02700781       0.00084852      -0.05271986
Ni      10.33964235       4.43621833       0.01422806        0       1.00000000       0.06871341       0.02169153       0.19383608
Ni       3.83166296       6.64786486       0.13834434        1       1.00000000      -0.02623679      -0.03149183       0.03211702
Pt       6.40693373       6.69157113       0.13476835        1       0.00000000      -0.10655928       0.04369707      -0.51265027
Ni       9.03505495       6.65805743       0.00568648        0       1.00000000      -0.09867140      -0.01021744       0.06843936
Ni      11.61372288       6.64656598       0.00000000        0       1.00000000       0.14409789       0.00927866       0.20222515
Ni       1.28778196       0.71048906       2.15395177        4       1.00000000       0.00121110      -0.02744962       0.02241349
Ni       3.83335605       0.74165036       2.18394734        4       1.00000000       0.00889626       0.04163201       0.19297662
Pt       6.47862748       0.74151091       2.24886945        4       0.00000000       0.01557016       0.12192268       0.02995975
Ni       9.03044291       0.69970227       2.16735124        4       1.00000000       0.02615255      -0.03306952       0.07422171
Ni       2.59855024       2.94056434       2.18402692        4       1.00000000       0.06884516       0.03308521       0.13901361
Ni       5.11056490       2.98294703       2.19929356        4       1.00000000      -0.16230119       0.04032859       0.13490469
Ni       7.74409437       2.96431461       2.20405419        4       1.00000000       0.04530348       0.02827879       0.15094587
Pt      10.27552581       2.88901462       2.15463257        4       0.00000000       0.08049093       0.01518342       0.00949019
Ni       3.90036563       5.16313616       2.16975186        4       1.00000000       0.12460330      -0.02156115       0.13572421
Ni       6.42081776       5.16446860       2.18843264        4       1.00000000      -0.05695563       0.07166865       0.14590160
Ni       8.98556483       5.15675929       2.20505002        4       1.00000000      -0.07406886      -0.08942293       0.24839214
Pt      11.66196045       5.15703639       2.11963206        3       0.00000000       0.12731341      -0.08509052      -0.00776060
Ni       5.11193459       7.36831915       2.13806163        3       1.00000000      -0.08784028      -0.13608865       0.03460738
Ni       7.71669404       7.37115405       2.13974818        3       1.00000000       0.01502131      -0.12310492       0.04709836
Pt      10.25366678       7.34457020       2.06016972        3       0.00000000       0.00835447      -0.09203793       0.00003631
Ni      12.92628421       7.36647484       2.09824730        3       1.00000000       0.02280330      -0.03017492      -0.00484951
Ni      -0.02164961       1.47759438       4.32702824        6       1.00000000       0.00527324      -0.01176844      -0.19673295
Pt       2.60096526       1.51093078       4.29074805        6       0.00000000      -0.05787974      -0.00191646      -0.10682071
Ni       5.13828856       1.47759873       4.32059214        6       1.00000000      -0.05040057       0.08264390      -0.25237355
Ni       7.76905630       1.47541930       4.31594985        6       1.00000000       0.20108343       0.09453564      -0.22654932
Pt       1.26011305       3.72589977       4.40410296        7       0.00000000      -0.05957405      -0.00169123       0.03069514
Ni       3.86814662       3.70072264       4.29690546        6       1.00000000       0.05388478       0.11835081      -0.28411050
Pt       6.45500301       3.69894758       4.21924648        5       0.00000000      -0.05500302       0.02242210      -0.04084244
Ni       9.01006500       3.69608989       4.31956580        6       1.00000000      -0.02326109       0.04103105      -0.24078389
Ni       2.59044035       5.85144391       4.31363208        6       1.00000000       0.17597415      -0.05129351      -0.14604513
Ni       5.11898766       5.85128791       4.25809553        6       1.00000000      -0.09116221      -0.01045608      -0.34388727
Ni       7.77061126       5.83209330       4.27693802        6       1.00000000       0.05439713      -0.03847910      -0.26573701
Ni      10.27429257       5.85042596       4.35428265        7       1.00000000      -0.07633390      -0.00404777      -0.11275011
Pt       3.85468945       8.10937948       4.21103078        5       0.00000000       0.02757304       0.04219134      -0.01328930
Pt       6.41941418       8.07250507       4.17303215        5       0.00000000      -0.05280209      -0.02119717      -0.12503440
Pt       9.00883696       8.04103426       4.26682863        6       0.00000000      -0.06652495      -0.02628260       0.00197040
Pt      11.61551468       8.05687474       4.32047090        6       0.00000000       0.00849380      -0.09605291       0.09784983
Pt      -0.02421185       0.00566034       6.57039624       10       0.00000000       0.09146826       0.07937120       0.16157361
Pt       2.58867841       0.01661587       6.59342070       10       0.00000000       0.01883546       0.01145503       0.35940223
Pt       5.17968569      -0.10077390       6.58259778       10       0.00000000      -0.08726532       0.05767058       0.54928802
Ni       7.72186591      -0.04043405       6.51986132        9       1.00000000       0.03075398       0.13705646      -0.01140681
Ni       1.30047293       2.24248363       6.50351022        9       1.00000000      -0.00600523       0.00773153      -0.09606785
Ni       3.83290186       2.20894121       6.42086872        8       1.00000000       0.04386507      -0.08018189       0.12314960
Pt       6.45013521       2.16206894       6.39499789        8       0.00000000       0.00364632      -0.01453247       0.71340146
Pt       9.05557755       2.27410349       6.46890072        9       0.00000000       0.05559303       0.14015854       0.01316024
Ni       2.51954281       4.37985964       6.48442766        9       1.00000000      -0.01529476       0.05509078      -0.11372255
Pt       5.07382488       4.36100849       6.48346474        9       0.00000000      -0.10915374       0.08171081       0.10312011
Ni       7.77785362       4.41794275       6.38691702        8       1.00000000       0.05023026       0.05017372      -0.01114628
Ni      10.30750734       4.44921610       6.47185968        9       1.00000000      -0.06114180       0.11218118      -0.16441762
Pt       3.74333086       6.60086130       6.49020826        9       0.00000000       0.11640101      -0.18776495      -0.01207979
Pt       6.49684476       6.55753731       6.39355950        8       0.00000000      -0.12505733      -0.06889446       0.45855225
Ni       9.05445919       6.54665528       6.44985666        8       1.00000000      -0.01587558      -0.06444705      -0.19248172
Ni      11.55351503       6.55486194       6.46004904        9       1.00000000      -0.10472342      -0.21209028      -0.17026184
