64
Lattice="10.192288588872042 0.00608174202691071 0.006552806599499923 5.101411237530592 8.770719935963177 -0.08783490784050793 0.0 0.0 21.52041585093455" Properties=species:S:1:pos:R:3:tags:I:1:initial_magmoms:R:1:forces:R:3 unique_id=ede2d825288e47de81f21079ed9d10c0 energy=-370.13264713430897 stress="0.0032302306411289665 -5.378653270334656e-05 0.00021478768212730568 -5.378653270334656e-05 0.0027465481671877148 -0.00054188674071387 0.00021478768212730568 -0.00054188674071387 -0.004018957961318631" pbc="T T T"
Ni       0.04011566      -0.04689097       0.20623839        2       1.00000000       0.11694439       0.00500909      -0.34424634
Ni       2.50174519      -0.03297435       0.20880357        2       1.00000000       0.02389256      -0.01007354      -0.07789729
Pt       5.11739690      -0.02898207       0.17069439        2       0.00000000      -0.10066367       0.16048540      -0.99447602
Ni       7.66665206      -0.01391868       0.18262864        2       1.00000000      -0.00475672       0.06923941      -0.58343584
Ni       1.27122879       2.19257428       0.10943358        1       1.00000000      -0.03773604       0.00296022       0.33260589
Pt       3.78635512       2.24696688       0.18501919        2       0.00000000       0.00900737      -0.07586513      -0.71021785
Ni       6.37770721       2.23448184       0.10860167        1       1.00000000      -0.03636623       0.00586695       0.14946763
Pt       8.92496583       2.24222298       0.11499487        1       0.00000000       0.04553779       0.14547929      -0.75423146
Ni       2.54367304       4.40803042       0.02921088        0       1.00000000       0.07831936       0.00884352       0.20350605
Ni       5.10601312       4.40987252       0.04079232        0       1.00000000      -0.10874170       0.00560360       0.13757517
Ni       7.63642793       4.41091090       0.05099719        1       1.00000000       0.12374215       0.00901486       0.08772846
Ni      10.20515346       4.40736704       0.04341692        0       1.00000000      -0.08854632      -0.01295690       0.15387859
Ni       3.86185308       6.54124738       0.00882164        0       1.00000000       0.13762763      -0.05427252       0.14707639
Ni       6.36807557       6.58261160       0.03149071        0       1.00000000       0.00754473       0.08376189       0.21479816
Ni       8.88132177       6.52308805       0.11819393        1       1.00000000      -0.11984083      -0.04792184      -0.14160889
Ni      11.48097770       6.52430572       0.00000000        0       1.00000000      -0.05861304      -0.00510736       0.05992586
Ni       1.31667935       0.71737934       2.21722212        4       1.00000000       0.01416395       0.08167308       0.16484946
Ni       3.74778450       0.71863224       2.22066073        4       1.00000000      -0.17352247      -0.10100347       0.21336909
Ni       6.39196686       0.76976137       2.19794100        4       1.00000000       0.07457491       0.11011225       0.09703646
Pt       8.97244475       0.76286757       2.24317658        4       0.00000000       0.05003044      -0.10681642       0.24389265
Ni       2.53900653       2.86496331       2.25166509        5       1.00000000      -0.01809430      -0.12016566       0.24677688
Ni       5.09982680       2.91973650       2.18396871        4       1.00000000       0.05539616       0.02110551       0.09347810
Ni       7.64045447       2.92611730       2.20045216        4       1.00000000      -0.01518113       0.03755082       0.15076533
Ni      10.21738871       2.89970318       2.23063362        4       1.00000000       0.07557457      -0.07128428       0.21635582
Ni       3.84459228       5.04323929       2.15224194        4       1.00000000      -0.01750127      -0.14252799       0.05097990
Pt       6.37642685       5.12992546       2.11714864        3       0.00000000       0.01747961       0.00898533       0.00525593
Ni       8.90226317       5.04919374       2.16120154        4       1.00000000       0.01121409      -0.15846487       0.09264333
Pt      11.46917840       4.99418188       2.17733793        4       0.00000000       0.00044101      -0.08643314       0.08301412
Ni       5.15383063       7.29017850       2.10678367        3       1.00000000       0.00493205       0.04401766       0.08803200
Ni       7.60753749       7.32307074       2.14248184        3       1.00000000      -0.06827783       0.05810585       0.15176098
Pt      10.11002369       7.27002856       2.22031502        4       0.00000000      -0.01999305      -0.12926905       0.22407790
Pt      12.76948821       7.24473314       2.08694347        3       0.00000000       0.02564590      -0.06010283       0.05863991
Ni       0.07284395       1.46066597       4.30386720        7       1.00000000       0.15983492      -0.00462384      -0.12687934
Ni       2.49685486       1.43490131       4.27016230        7       1.00000000      -0.03467869      -0.04606978      -0.15453662
Pt       5.07550940       1.40688112       4.21087932        6       0.00000000      -0.02316921      -0.04525131      -0.16528696
Ni       7.64672221       1.43208039       4.30609377        7       1.00000000      -0.05194437      -0.07102472      -0.21603447
Ni       1.28141382       3.59925374       4.33242298        7       1.00000000       0.03894621      -0.05477297      -0.03557937
Ni       3.77760741       3.67853977       4.26001715        7       1.00000000      -0.02637408       0.07482268      -0.17651174
Pt       6.40540730       3.65893653       4.33819974        7       0.00000000       0.02384533       0.00802557       0.03722714
Ni       8.97200629       3.66661322       4.25123952        7       1.00000000       0.06527434       0.10072556      -0.21928713
Ni       2.54487450       5.75044577       4.32463943        7       1.00000000      -0.02751150      -0.03428906      -0.08537354
Ni       5.09896644       5.79523374       4.30924836        7       1.00000000       0.06132638      -0.03642613      -0.09445731
Ni       7.66059647       5.83782794       4.26230990        7       1.00000000       0.04773403       0.08829663      -0.14742179
Ni      10.21026093       5.76696348       4.30414350        7       1.00000000       0.00946386      -0.03254616      -0.03432085
Pt       3.87174523       7.93686941       4.25352362        7       0.00000000       0.06210990       0.03260995       0.02848964
Ni       6.41285656       7.97917318       4.19529924        6       1.00000000       0.02781478      -0.00291854      -0.17004440
Ni       8.86189683       7.96994641       4.23586156        6       1.00000000      -0.20050675       0.04852795      -0.16598395
Ni      11.48216380       7.93942850       4.24365983        6       1.00000000       0.06909553      -0.12103583      -0.13470364
Pt       0.02416443      -0.09273327       6.52041585       10       0.00000000      -0.16593370       0.16522585       0.30198106
Pt       2.53295859      -0.05457430       6.45064717       10       0.00000000       0.22317723       0.06948567       0.11992547
Pt       5.11001560      -0.07641274       6.37285203        9       0.00000000      -0.18388301      -0.10410244       1.00488736
Pt       7.63313978      -0.09144547       6.50751488       10       0.00000000       0.06833631       0.15314141       0.44793637
Ni       1.27471774       2.20337355       6.40407248        9       1.00000000       0.01798563       0.07160868      -0.16806343
Pt       3.79837162       2.28181863       6.36779128        9       0.00000000      -0.12727413       0.04997186       0.59590560
Ni       6.37296282       2.19102489       6.44600542        9       1.00000000      -0.00587060       0.02060300      -0.01160373
Pt       8.93313807       2.25182091       6.31157816        8       0.00000000      -0.00192702      -0.14263663       0.73219447
Ni       2.52197429       4.39104174       6.38210139        9       1.00000000       0.06016410      -0.05083623      -0.27005070
Ni       5.10564836       4.39824368       6.42014912        9       1.00000000      -0.10227198       0.01769661      -0.13977122
Ni       7.60303753       4.34352678       6.43298202        9       1.00000000      -0.03095926      -0.00902423      -0.00930012
Ni      10.27089681       4.33957139       6.39017912        9       1.00000000       0.05053002      -0.02352575      -0.23652166
Ni       3.82640921       6.43346846       6.38569270        9       1.00000000       0.00237256      -0.02966188      -0.17864377
Ni       6.34784515       6.45818523       6.37688672        9       1.00000000      -0.01079856       0.03604999      -0.25005543
Pt       8.92126971       6.39648611       6.39738049        9       0.00000000       0.03861905       0.09699106      -0.00138891
Ni      11.50601818       6.45272463       6.36932527        9       1.00000000      -0.03776137       0.09941327      -0.13810340
