64
Lattice="10.570190320893415 0.007222969629288959 0.01822417452202282 5.29135043563644 9.167866717456546 0.02982564678937604 0.0 0.0 21.808487334654586" Properties=species:S:1:pos:R:3:tags:I:1:initial_magmoms:R:1:forces:R:3 unique_id=55f0da5790294175b2d11ffa7f9f6eea energy=-391.29056409224364 stress="0.00523569939296244 6.324633969134395e-05 -9.274662340214128e-05 6.324633969134395e-05 0.005397910765680174 2.023432038511858e-05 -9.274662340214128e-05 2.023432038511858e-05 -0.000684914749242994" pbc="T T T"
Pt       0.00702956       0.03025484       0.00000000        0       0.00000000      -0.16584508      -0.05550115      -0.10373499
Ni       2.64900917       0.00776582       0.10673790        1       1.00000000       0.04602484       0.03034913       0.05052679
Pt       5.28217388       0.00639836       0.03331311        0       0.00000000       0.04076974       0.04197217       0.02018850
Pt       7.90797846       0.05818706       0.09684519        1       0.00000000       0.01709266       0.13447757      -0.49442392
Pt       1.29212650       2.28038950       0.02398149        0       0.00000000      -0.05171826       0.15087663      -0.09701148
Pt       3.98286117       2.24866691       0.12640643        1       0.00000000       0.00058045      -0.03673778      -0.39811854
Ni       6.62442853       2.29904337       0.11884113        1       1.00000000       0.03139230      -0.06665551       0.18808612
Ni       9.24246284       2.30929136       0.12466544        1       1.00000000      -0.01407391       0.02872962       0.11600919
Pt       2.63303942       4.60522413       0.08616108        1       0.00000000       0.00810900      -0.08089148      -0.62567814
Pt       5.31863406       4.55650772       0.03530962        0       0.00000000       0.01536067      -0.00810611      -0.13304161
Pt       7.92886821       4.50241341       0.06959008        1       0.00000000      -0.08438915      -0.08991531       0.09042404
Pt      10.55732405       4.57414067       0.04155478        0       0.00000000      -0.01196821      -0.09922891      -0.02480714
Pt       3.93686307       6.88829520       0.01019143        0       0.00000000      -0.01197298       0.12656203      -0.26783994
Pt       6.63345024       6.88428007       0.12148227        1       0.00000000      -0.00699493      -0.23265969      -0.60473659
Pt       9.28345010       6.89171467       0.02501903        0       0.00000000       0.03881217      -0.14527889      -0.03562091
Ni      11.88990673       6.88510070       0.11179286        1       1.00000000      -0.00128055       0.03918431       0.15963327
Pt       1.33445334       0.79417561       2.30298910        2       0.00000000       0.03742520       0.02026395       0.18947117
Ni       3.97410283       0.76868603       2.29703167        2       1.00000000       0.02203630       0.00252062       0.36845960
Pt       6.57827591       0.80981393       2.34370907        2       0.00000000      -0.10095851      -0.01519855       0.25256911
Pt       9.26442355       0.88434774       2.31369329        2       0.00000000       0.01863672       0.21118668       0.27613050
Pt       2.63455260       3.04172082       2.31654328        2       0.00000000       0.01622336       0.08931087       0.26035275
Pt       5.37142764       3.07195102       2.35025770        3       0.00000000       0.22015712       0.15032399       0.26031916
Ni       7.93122937       3.07659326       2.29656024        2       1.00000000       0.01169598       0.02877590       0.19917610
Ni      10.55668579       3.06607529       2.30819822        2       1.00000000      -0.01039417       0.09545590       0.24508908
Pt       3.99904802       5.34429291       2.35069211        3       0.00000000       0.04443453      -0.00839889       0.27352600
Ni       6.62949612       5.32278754       2.32168761        2       1.00000000       0.07772355      -0.04378745       0.35782529
Pt       9.21382348       5.28780093       2.35063058        3       0.00000000      -0.10570894      -0.08978372       0.19051311
Pt      11.86239923       5.35029384       2.36429504        3       0.00000000      -0.10677276      -0.02842728       0.34064351
Pt       5.29742078       7.63968563       2.33583248        2       0.00000000      -0.04525764       0.09582769       0.24968599
Pt       7.96102007       7.66586293       2.31540030        2       0.00000000       0.10730357       0.01645735       0.27225187
Pt      10.57529182       7.66287541       2.36686015        3       0.00000000      -0.01077635      -0.06326673       0.28213030
Pt      13.20139971       7.65359840       2.37315384        3       0.00000000      -0.00711646       0.05855139       0.33209118
Ni       0.00223334       1.54969919       4.55690597        5       1.00000000      -0.07942352       0.01636192      -0.19486414
Pt       2.65620923       1.53986931       4.53828912        4       0.00000000       0.06031425      -0.01089820      -0.22603763
Ni       5.30799111       1.53102198       4.55132135        5       1.00000000       0.06373759      -0.09681174      -0.26471591
Pt       7.88647338       1.57245673       4.51603792        4       0.00000000      -0.11838648       0.04288787      -0.20313067
Pt       1.28622021       3.84409049       4.57868063        5       0.00000000      -0.07128986      -0.05748301      -0.13023325
Pt       4.02819903       3.81807042       4.55919587        5       0.00000000       0.08326660      -0.14055520      -0.14062522
Ni       6.61857541       3.82996958       4.55455095        5       1.00000000       0.04676818       0.03168022      -0.24322848
Pt       9.25605027       3.81969242       4.56721867        5       0.00000000      -0.05084136      -0.06089692      -0.12753989
Ni       2.62300778       6.14175539       4.56746804        5       1.00000000      -0.14372969       0.06183366      -0.30866367
Pt       5.28744804       6.08004842       4.58840424        5       0.00000000      -0.03063319      -0.06977002      -0.16873494
Pt       7.96532512       6.08486392       4.59235525        5       0.00000000       0.11574547       0.00712652      -0.17770301
Ni      10.60422653       6.13718506       4.59282886        5       1.00000000       0.06764440      -0.02066520      -0.18532082
Pt       3.94581171       8.39897583       4.59861032        5       0.00000000      -0.06356871       0.03798809      -0.10720086
Pt       6.60203381       8.44623923       4.58949657        5       0.00000000       0.01188614       0.02773729      -0.18790728
Pt       9.35828079       8.42193758       4.61451614        5       0.00000000       0.09390102       0.00881613      -0.04815810
Ni      11.89548464       8.39995339       4.59334534        5       1.00000000       0.04289269      -0.03052314      -0.21899874
Ni       0.01418053       0.01927491       6.70911325        6       1.00000000       0.00228016       0.03001847      -0.12746189
Pt       2.65361822       0.00150095       6.80848733        7       0.00000000      -0.04988097      -0.12445128       0.23568623
Ni       5.29747965       0.00648612       6.71427479        6       1.00000000       0.10714333       0.06056845      -0.17962188
Pt       7.92588828      -0.00509046       6.72760445        6       0.00000000      -0.17583564       0.04708259       0.54583628
Ni       1.31631846       2.29863779       6.71454186        6       1.00000000       0.01362418      -0.03041611      -0.17000209
Pt       3.98849453       2.29197467       6.73075576        6       0.00000000       0.04630124      -0.05943237       0.59277106
Pt       6.61400409       2.36176796       6.77645981        7       0.00000000       0.09462155       0.14457580      -0.08736722
Pt       9.33099173       2.33340569       6.79794590        7       0.00000000       0.08069843      -0.07069696      -0.17267317
Pt       2.65591832       4.62933097       6.70918534        6       0.00000000       0.05818060       0.17087999       0.55277507
Ni       5.30634301       4.60516217       6.73108405        6       1.00000000       0.03965304      -0.03230149      -0.06554852
Ni       7.94706890       4.60228465       6.73971931        6       1.00000000       0.02733528       0.01526097      -0.25820834
Ni      10.57016323       4.61433992       6.73374312        6       1.00000000      -0.09254627       0.11927679      -0.25515985
Ni       3.97518412       6.88433341       6.72295564        6       1.00000000      -0.08592563      -0.03615701      -0.12183909
Pt       6.60327722       6.84980399       6.76262186        7       0.00000000       0.04202627      -0.03470787       0.71698484
Ni       9.27873923       6.87542697       6.73387955        6       1.00000000      -0.04460363      -0.16771433      -0.18311627
Pt      11.84360316       6.88961000       6.74690653        6       0.00000000      -0.10990576      -0.03560221      -0.28008191
