64
Lattice="10.280047853788249 0.00351518854515589 0.028862934228420345 5.143068169473321 8.88943941213726 0.0041246353978297455 0.0 0.0 21.558659334599056" Properties=species:S:1:pos:R:3:tags:I:1:initial_magmoms:R:1:forces:R:3 unique_id=a806f4b4dc304e7eb4671d45df8e1ddc stress="0.005574908985207999 0.00017862299752046678 0.00026240011129043735 0.00017862299752046678 0.005870453946916102 5.3863132036156425e-05 0.00026240011129043735 5.3863132036156425e-05 -0.001322842079660335" energy=-375.1582322910599 pbc="T T T"
Ni       0.01545572      -0.00693533       0.11930648        1       1.00000000       0.09997572       0.02580607      -0.05104330
Ni       2.54203773       0.01467076       0.14766168        1       1.00000000      -0.07249045       0.08815217       0.02050673
Pt       5.13412659      -0.03460704       0.08985374        1       0.00000000      -0.06617884       0.22518364      -0.95872791
Ni       7.73734969      -0.05346387       0.14736395        1       1.00000000      -0.05730296      -0.10104837      -0.17866876
Ni       1.29572452       2.22949657       0.05120709        1       1.00000000       0.01959450       0.03559969       0.42868991
Pt       3.77338719       2.27717083       0.13443132        1       0.00000000       0.02274890      -0.00867371      -0.27738374
Pt       6.42690095       2.22783377       0.07310301        1       0.00000000      -0.00211138      -0.04043865      -0.13549669
Pt       9.09323913       2.22759922       0.08463550        1       0.00000000       0.00413040       0.14944982      -0.50585297
Ni       2.56888801       4.48037551       0.01576343        0       1.00000000       0.07892003       0.02986585       0.31323643
Ni       5.09927821       4.47993019       0.14663864        1       1.00000000      -0.09456696       0.08989173      -0.06701959
Pt       7.72982257       4.49217449       0.00000000        0       0.00000000      -0.07567219       0.01312654      -0.24887875
Ni      10.34426067       4.47153305       0.02700366        0       1.00000000       0.12101148      -0.01643330       0.27837871
Ni       3.82131673       6.66029492       0.05734624        1       1.00000000      -0.01876061      -0.03598881       0.41937741
Pt       6.39002668       6.72662343       0.14434592        1       0.00000000      -0.05254689       0.03848559      -0.48030714
Ni       9.02062883       6.66361103       0.03152928        0       1.00000000      -0.04155118       0.02652148       0.13167218
Ni      11.60488750       6.63737872       0.03585598        0       1.00000000       0.09087573       0.05638873       0.28647820
Ni       1.32301587       0.75168008       2.17705541        3       1.00000000       0.07031866       0.08349164       0.21023000
Ni       3.82111212       0.77760150       2.20686020        3       1.00000000      -0.05692373       0.11292703       0.28569834
Ni       6.42926884       0.77972469       2.21353214        3       1.00000000      -0.06674747       0.13782628       0.29868716
Pt       9.02131918       0.74049142       2.21042042        3       0.00000000       0.06510155       0.15353068      -0.00198793
Ni       2.56841964       2.93472905       2.23286146        3       1.00000000       0.01922452      -0.13739319       0.30159229
Ni       5.12265722       2.97245936       2.21161544        3       1.00000000      -0.11392416      -0.04311996       0.21003026
Ni       7.69940501       2.94619404       2.21454955        3       1.00000000       0.00858332      -0.06210804       0.16312300
Ni      10.33762339       2.94042540       2.23144029        3       1.00000000       0.17390835      -0.10551227       0.25690171
Ni       3.88246212       5.17004595       2.14034274        2       1.00000000       0.01627063      -0.11092761      -0.01302210
Ni       6.39857915       5.17135279       2.17142273        3       1.00000000       0.04827020      -0.14012843       0.02011526
Pt       8.96692157       5.14264789       2.25133581        4       0.00000000      -0.06476482      -0.20603406      -0.01825608
Pt      11.65665330       5.12555991       2.19325054        3       0.00000000       0.10996118      -0.15136516       0.09740117
Ni       5.14576378       7.40155360       2.17241865        3       1.00000000       0.00522586       0.01097896       0.13103585
Ni       7.67652314       7.44238904       2.18833960        3       1.00000000      -0.11749913       0.05808040       0.18996940
Pt      10.28957725       7.38441981       2.17814070        3       0.00000000       0.01668891      -0.06664512      -0.23029474
Ni      12.89684129       7.37983093       2.14347282        2       1.00000000       0.10303295      -0.10729809       0.03441704
Ni       0.07136725       1.52898174       4.28602898        6       1.00000000       0.18650603       0.08385617      -0.19108285
Ni       2.53905845       1.52002416       4.26454954        6       1.00000000      -0.09264871       0.05830576      -0.28622900
Ni       5.13627647       1.50072820       4.27953444        6       1.00000000      -0.11834782      -0.00941555      -0.38777473
Ni       7.72501372       1.49676568       4.31577188        6       1.00000000       0.02099873      -0.09491961      -0.26423443
Ni       1.29940713       3.68664976       4.34373790        6       1.00000000       0.02326107      -0.05686372      -0.03243545
Ni       3.81176426       3.69178308       4.26526548        6       1.00000000      -0.12628171      -0.05151039      -0.31555839
Pt       6.47655767       3.64770108       4.27663780        6       0.00000000      -0.01049596      -0.03108419      -0.07648498
Ni       9.05611305       3.72185298       4.32117344        6       1.00000000       0.19179469      -0.06569551      -0.16378577
Ni       2.55820690       5.85901448       4.35509277        7       1.00000000      -0.02519384      -0.17874728       0.02098447
Pt       5.13205931       5.88814894       4.22204892        5       0.00000000      -0.02907169      -0.15753253      -0.07199954
Ni       7.75629093       5.89835564       4.33325562        6       1.00000000      -0.04912125      -0.05688222      -0.12203256
Ni      10.29936226       5.86237142       4.40021476        7       1.00000000       0.06884879      -0.06206410       0.04068838
Pt       3.90517815       8.14702238       4.28847781        6       0.00000000       0.07945857       0.00964039       0.08182524
Ni       6.44184363       8.17982011       4.26613401        6       1.00000000      -0.10582542       0.10151379      -0.34458290
Pt       8.92299411       8.13929448       4.27545354        6       0.00000000      -0.11358511       0.07407443       0.01814539
Pt      11.60023064       8.11632085       4.28233064        6       0.00000000       0.01243773      -0.07839316      -0.01338222
Pt       0.01987450       0.01653096       6.50241807        9       0.00000000       0.07502546       0.14058937       0.28373886
Pt       2.57106595       0.01308805       6.51471150        9       0.00000000      -0.02529315       0.04086659       0.25048952
Pt       5.15286509      -0.04135504       6.43404628        8       0.00000000      -0.01164725       0.13599751       0.99771590
Pt       7.71417023      -0.03799015       6.55865933       10       0.00000000      -0.07479333       0.17702018       0.37329367
Ni       1.28884835       2.28735634       6.43988374        8       1.00000000      -0.08476854       0.19677250      -0.36601082
Pt       3.81151506       2.26822147       6.37073816        8       0.00000000       0.01298186       0.04963083       0.30570310
Ni       6.45180510       2.22769260       6.41004933        8       1.00000000      -0.03283778      -0.07425528       0.10599811
Pt       9.02541396       2.32283297       6.37232447        8       0.00000000       0.01540239      -0.01502285       0.42443165
Ni       2.52062471       4.47056337       6.44844057        8       1.00000000      -0.04846779       0.01119468      -0.42899487
Pt       5.12756220       4.44163089       6.52827832        9       0.00000000      -0.08305501      -0.06420398       0.10207549
Ni       7.76744424       4.45393585       6.38560881        8       1.00000000       0.05943196       0.09837029       0.05663366
Ni      10.32598574       4.48086111       6.46140311        9       1.00000000       0.04303959      -0.01400387      -0.45311015
Ni       3.82096506       6.62181303       6.48542204        9       1.00000000      -0.08072126      -0.09221865      -0.25452417
Pt       6.49538336       6.62180702       6.41690775        8       0.00000000       0.08802091       0.05107623       0.41753487
Ni       9.05572672       6.58615839       6.47422955        9       1.00000000       0.09424084      -0.11919931      -0.28487111
Ni      11.57820515       6.58267755       6.49170381        9       1.00000000      -0.03209514      -0.00908804      -0.33276572
