64
Lattice="10.309285085197363 -0.024468863480852258 0.0322720872149469 5.133451885222533 8.954460980845852 0.040589425819547956 0.0 0.0 21.551490048967487" Properties=species:S:1:pos:R:3:tags:I:1:initial_magmoms:R:1:forces:R:3 unique_id=a114ac15ef3148a39a336883cf383383 energy=-377.97863805084467 stress="0.0057588632832795295 0.00014553068974140548 0.00018643043319164896 0.00014553068974140548 0.005955450867917848 0.0001309557756018028 0.00018643043319164896 0.0001309557756018028 -0.0010339462686994958" pbc="T T T"
Ni       0.04488668       0.00448199       0.07533505        1       1.00000000       0.13156750      -0.00281136      -0.03152653
Ni       2.54197420       0.00499762       0.11324072        1       1.00000000      -0.08003783       0.07252086       0.01081274
Pt       5.09240967      -0.03775358       0.05942015        1       0.00000000      -0.05749710       0.22637453      -0.82918714
Pt       7.76482144      -0.12405011       0.10402172        1       0.00000000      -0.11514498      -0.03601938      -0.71555954
Ni       1.29646002       2.24973956       0.02192580        0       1.00000000       0.01051713       0.05448778       0.44850405
Pt       3.77567623       2.29380744       0.12112553        1       0.00000000       0.01477983       0.05081759      -0.33572833
Pt       6.42637768       2.26490866       0.05824538        1       0.00000000       0.02020058      -0.04626314      -0.05908572
Pt       9.12404912       2.25842984       0.08525352        1       0.00000000      -0.05037900       0.10609974      -0.51519812
Ni       2.56335886       4.50420862       0.00000000        0       1.00000000       0.11555597      -0.01482710       0.31227056
Ni       5.11006485       4.50363727       0.11566017        1       1.00000000      -0.08796437       0.12345208       0.16237659
Pt       7.76702997       4.53332273       0.05073817        1       0.00000000       0.00665944       0.07231048       0.07095270
Ni      10.34796065       4.48658456       0.02287976        0       1.00000000       0.05408514      -0.02399157       0.26858070
Ni       3.83753498       6.66875049       0.04432705        0       1.00000000      -0.00437200      -0.15505964       0.49263191
Pt       6.39716694       6.76035031       0.13383421        1       0.00000000      -0.04997179       0.05145334      -0.21258907
Ni       9.02284570       6.68949301       0.03460200        0       1.00000000      -0.06235789       0.01752824       0.17913411
Ni      11.59334084       6.64178607       0.02732068        0       1.00000000       0.05059934       0.06825860       0.18544357
Ni       1.32149181       0.74236597       2.11928009        2       1.00000000       0.14639963      -0.02221890       0.02416014
Ni       3.84525692       0.76518558       2.16060114        3       1.00000000       0.03366193      -0.01010501       0.18544058
Ni       6.42220302       0.78004730       2.18238093        3       1.00000000      -0.09310515       0.16128883       0.24045870
Pt       9.11075864       0.72318185       2.20219392        3       0.00000000       0.18406888       0.02355376      -0.05959320
Ni       2.57142367       2.99062057       2.17081136        3       1.00000000       0.01427839       0.05557212       0.12863000
Ni       5.13293607       3.00995978       2.19924033        3       1.00000000      -0.09372378       0.07247995       0.22782798
Ni       7.73020751       3.01929303       2.18740370        3       1.00000000       0.03176314       0.11918701       0.14831303
Ni      10.33474211       2.97751801       2.20574652        3       1.00000000       0.08247438       0.00514568       0.20697344
Ni       3.89833012       5.22406498       2.16750327        3       1.00000000       0.16272351      -0.04118514       0.14596107
Ni       6.41911720       5.23183895       2.19501751        3       1.00000000      -0.06373881       0.07404341       0.13841904
Ni       8.98132933       5.19033827       2.19968561        3       1.00000000      -0.12884319      -0.16917807       0.22813236
Pt      11.64483349       5.16208015       2.11784597        2       0.00000000       0.11527307      -0.11422388       0.05208978
Ni       5.15742533       7.42996821       2.19288791        3       1.00000000       0.05556204      -0.19173176       0.19585531
Ni       7.67939275       7.45979801       2.19358166        3       1.00000000      -0.13961764      -0.02097400       0.19452988
Pt      10.26035535       7.40077305       2.16295129        3       0.00000000      -0.08027785      -0.15725660      -0.28902276
Ni      12.91780451       7.38678050       2.20051588        3       1.00000000       0.21831867      -0.22918807       0.11430670
Ni       0.02532508       1.51135025       4.29525233        5       1.00000000      -0.01694141      -0.06233421      -0.19303929
Pt       2.56006984       1.50321735       4.21164196        4       0.00000000      -0.02677741      -0.08210809      -0.09103208
Ni       5.15637249       1.52628498       4.29030179        5       1.00000000      -0.08837171       0.05451875      -0.40961478
Pt       7.73418281       1.54526423       4.28069386        5       0.00000000      -0.04536633      -0.02507192      -0.13262185
Pt       1.29759671       3.73534471       4.36506560        6       0.00000000       0.00947910      -0.02254362       0.04441127
Ni       3.87458591       3.78355373       4.28409444        5       1.00000000      -0.00978312       0.09535399      -0.34445238
Pt       6.42437123       3.79888966       4.26929560        5       0.00000000      -0.10781456       0.05172819      -0.09479475
Ni       9.01231654       3.75125506       4.31041840        5       1.00000000      -0.10016347      -0.00218924      -0.38588054
Ni       2.62042118       5.94473468       4.35714362        6       1.00000000       0.10399009      -0.15784564      -0.08768894
Ni       5.14628448       5.95996831       4.29244240        5       1.00000000       0.02474557      -0.12386235      -0.39208356
Ni       7.70772881       5.95240888       4.31243861        5       1.00000000      -0.13971211      -0.02184999      -0.39044155
Pt      10.26055945       5.90658892       4.42418831        6       0.00000000      -0.01073969       0.00485676      -0.02770214
Pt       3.94512831       8.11784931       4.29759068        5       0.00000000       0.10806293      -0.14053629       0.05618369
Ni       6.43010350       8.18719561       4.29174887        5       1.00000000      -0.04180493      -0.07701070      -0.42013698
Pt       8.92697046       8.17946649       4.30180506        5       0.00000000      -0.14348643      -0.04416056      -0.06813866
Pt      11.61651602       8.16551024       4.28482260        5       0.00000000       0.04741758      -0.11260490      -0.19158037
Pt       0.02265991       0.03512881       6.50006611        8       0.00000000       0.05643295       0.14338745       0.15627574
Pt       2.58626050       0.01024779       6.55149005        9       0.00000000      -0.01074493      -0.04691826       0.26260158
Pt       5.17765820      -0.02990798       6.43775728        7       0.00000000      -0.00781572       0.15334759       0.80428116
Pt       7.74949019      -0.05498627       6.48473251        8       0.00000000       0.04945048       0.07091043       0.80083948
Ni       1.29325795       2.30508960       6.50054029        8       1.00000000      -0.03626285       0.08783258      -0.13551195
Pt       3.84404385       2.30447376       6.43050744        7       0.00000000       0.11934251       0.04500118       0.37303688
Ni       6.46287118       2.26935892       6.44140102        7       1.00000000      -0.06057392       0.01987276       0.03684002
Pt       9.06342866       2.35221745       6.44162097        7       0.00000000       0.07795563       0.03947033       0.56208239
Ni       2.54176460       4.53600548       6.50107811        8       1.00000000      -0.02177443       0.07549886      -0.30578212
Pt       5.12322677       4.51231808       6.52192964        8       0.00000000      -0.06433974       0.03649768      -0.05440204
Ni       7.76845296       4.49684354       6.43448417        7       1.00000000       0.05659119       0.11435870      -0.13749544
Ni      10.33385445       4.50859922       6.54559890        8       1.00000000      -0.01391332      -0.01063941      -0.14287592
Ni       3.82595123       6.68756326       6.50508840        8       1.00000000      -0.10150378      -0.07682789      -0.26580016
Pt       6.47489487       6.68492563       6.41753414        7       0.00000000       0.01178124       0.01621458       0.23678248
Ni       9.04531517       6.65940482       6.54047161        8       1.00000000      -0.03169924      -0.09926966      -0.12077891
Ni      11.60666705       6.64829845       6.54803414        8       1.00000000       0.07288262      -0.02261746      -0.25579478
