64
Lattice="10.454484640619668 0.0008664043707546471 0.05990459727045894 5.227992648504851 9.102853198219288 0.009251090598702253 0.0 0.0 21.728127293383302" Properties=species:S:1:pos:R:3:tags:I:1:initial_magmoms:R:1:forces:R:3 unique_id=53a36d7515e945f0bff4cba11f23e100 energy=-386.10072851795076 stress="0.0037416339781599205 -8.496209158459888e-06 0.0003637997749384091 -8.496209158459888e-06 0.00392449371415925 -0.00021581635215502733 0.0003637997749384091 -0.00021581635215502733 -0.0035584349676602046" pbc="T T T"
Pt      -0.08106195       0.02408652       0.06472345        1       0.00000000      -0.22240700      -0.11384901      -0.58919775
Ni       2.63983645      -0.02062864       0.00000000        0       1.00000000       0.04424327      -0.08689683       0.37719145
Ni       5.24646347      -0.04737175       0.08549130        1       1.00000000       0.11681287       0.02802817      -0.06436611
Ni       7.83658455      -0.04072970       0.06794782        1       1.00000000      -0.08831324      -0.13316538       0.55304031
Ni       1.28737201       2.26701624       0.05890042        1       1.00000000      -0.02415272      -0.01647759      -0.26107146
Pt       3.90416096       2.19777919       0.04113464        0       0.00000000       0.23519818       0.10378438      -0.92996019
Pt       6.59947126       2.16575588       0.08947008        1       0.00000000      -0.13758493      -0.14558476      -0.14771485
Ni       9.16718571       2.27027658       0.03313025        0       1.00000000       0.02463149      -0.08185523       0.29659983
Pt       2.55085191       4.59773189       0.02264512        0       0.00000000       0.08000521       0.03707028      -1.08990871
Pt       5.26487451       4.54964292       0.08725632        1       0.00000000       0.22132999      -0.20065549      -0.63627899
Pt       7.95601997       4.56149376       0.09911456        1       0.00000000       0.02704238       0.07207570      -0.04867175
Ni      10.45808517       4.56284557       0.02300172        0       1.00000000       0.05177423       0.11753903       0.30651191
Ni       3.89634502       6.86571105       0.08978382        1       1.00000000      -0.07089779       0.12289514       0.00753926
Pt       6.58926664       6.87882931       0.14038573        1       0.00000000      -0.01701958       0.01045455      -0.29766331
Ni       9.18758938       6.84234287       0.03106255        0       1.00000000       0.06362040      -0.02064963       0.45268822
Ni      11.76097683       6.86182709       0.10857184        1       1.00000000       0.12993358       0.05176851       0.02036863
Pt       1.30819223       0.68406071       2.15276435        3       0.00000000       0.12066891      -0.07137258       0.18115597
Pt       4.00310648       0.72882075       2.22066719        3       0.00000000       0.04995545      -0.07387365       0.26077270
Ni       6.58640250       0.73525161       2.23384925        3       1.00000000       0.09739052      -0.07261870       0.17318982
Ni       9.09579644       0.73497152       2.22536282        3       1.00000000      -0.20403688       0.04378875       0.08572260
Pt       2.62872659       3.03597629       2.19079358        3       0.00000000      -0.06242786       0.04665450       0.37856075
Ni       5.27562632       3.01627871       2.23559301        3       1.00000000       0.04494543       0.00002761       0.33355014
Pt       7.79801432       3.01832377       2.33667298        4       0.00000000      -0.04057386      -0.01543977       0.16990603
Pt      10.38580047       3.03436481       2.15678081        3       0.00000000      -0.13292227       0.00017451       0.01194207
Pt       3.97853629       5.39551988       2.18377135        3       0.00000000       0.02733484       0.17970381       0.20728746
Ni       6.60276521       5.31711487       2.23968813        3       1.00000000       0.15507305      -0.00399976       0.34433376
Ni       9.12314779       5.33521291       2.26655082        4       1.00000000      -0.13430468       0.07272684       0.25210187
Pt      11.69788618       5.35633008       2.22781154        3       0.00000000      -0.17475796       0.00309495       0.20441745
Ni       5.22710382       7.58847435       2.17948398        3       1.00000000      -0.01848582       0.01311320       0.27779210
Ni       7.86695215       7.53036207       2.22320768        3       1.00000000       0.09406377      -0.12450462       0.22788379
Pt      10.45290191       7.57266897       2.14735650        2       0.00000000      -0.07246193       0.05158290       0.11980888
Ni      13.09377601       7.64627435       2.18795615        3       1.00000000       0.00380091       0.16159406      -0.00647839
Pt      -0.10058960       1.57269617       4.38271195        6       0.00000000      -0.19269027       0.12398880      -0.24933697
Pt       2.64161873       1.47893698       4.42319016        6       0.00000000      -0.15226550      -0.04706593      -0.16253549
Ni       5.30809746       1.52028072       4.39479467        6       1.00000000       0.06279111       0.02557914      -0.39627723
Ni       7.83822514       1.54025883       4.42116435        6       1.00000000      -0.05028131       0.04267907      -0.19262773
Pt       1.21773801       3.83220865       4.41550551        6       0.00000000      -0.13178791       0.05373116      -0.18818095
Pt       4.03769775       3.73863064       4.35619288        6       0.00000000       0.05743491       0.00977942      -0.34384947
Ni       6.61296781       3.76050234       4.41642638        6       1.00000000       0.07433794       0.01880674      -0.29107250
Ni       9.12710944       3.81974189       4.43076819        6       1.00000000      -0.11999171       0.05600701      -0.27937077
Pt       2.59833214       6.09499284       4.37173775        6       0.00000000      -0.01401141       0.05005142      -0.23577242
Pt       5.35830971       6.02982490       4.34725289        5       0.00000000       0.08111119      -0.07251502      -0.28288926
Ni       7.92092441       6.00418704       4.38977061        6       1.00000000       0.12396047      -0.15344023      -0.37139559
Ni      10.41024893       6.03945641       4.47918295        7       1.00000000      -0.11789344      -0.04491161      -0.07598732
Pt       3.91715314       8.37210877       4.31017961        5       0.00000000      -0.00915836      -0.00784463      -0.29089921
Pt       6.58085055       8.30067887       4.37199005        6       0.00000000      -0.02421668       0.06023048      -0.24221652
Pt       9.18123457       8.24050636       4.46214898        7       0.00000000       0.00748805      -0.08678183      -0.05738500
Pt      11.77607214       8.41993124       4.40399107        6       0.00000000      -0.07719790       0.10967668      -0.14191220
Pt      -0.01045464       0.02645711       6.59660977        9       0.00000000       0.02932406      -0.02192798       0.49949527
Ni       2.65230836      -0.02561771       6.65684531       10       1.00000000      -0.08822161       0.08299304      -0.16270633
Pt       5.22791920      -0.04635435       6.71505614       10       0.00000000       0.02491125       0.14289514       0.00614021
Ni       7.86831268      -0.00172445       6.67383099       10       1.00000000      -0.02740813      -0.05742672      -0.36770892
Pt       1.26586178       2.27730590       6.69898545       10       0.00000000      -0.01941336      -0.00229537       0.20030601
Pt       3.95501027       2.21586337       6.57983246        9       0.00000000       0.17533842      -0.03014785       0.95119332
Pt       6.65322373       2.21242003       6.54052400        8       0.00000000      -0.09438984       0.05429770       0.24727653
Ni       9.17764902       2.27313373       6.67380128       10       1.00000000       0.00961438       0.00629378      -0.29191195
Pt       2.60547569       4.53816124       6.57941374        9       0.00000000       0.08604042      -0.04994578       0.94263118
Pt       5.31167465       4.53204378       6.58660932        9       0.00000000       0.28160964      -0.02777575       0.68366774
Pt       7.99485415       4.53993818       6.54370825        8       0.00000000      -0.17173745       0.01008589       0.10506695
Ni      10.45857045       4.54660742       6.67209175       10       1.00000000       0.04787889       0.02479544      -0.24182361
Pt       3.92551623       6.85756440       6.68895415       10       0.00000000       0.12918198      -0.01746391       0.08555999
Pt       6.67050167       6.84995083       6.61622320        9       0.00000000      -0.02734802      -0.10717501       0.34889000
Ni       9.18700285       6.80395301       6.65467142       10       1.00000000       0.07632733      -0.03801128      -0.25094452
Pt      11.70713812       6.80100878       6.72812729       10       0.00000000      -0.13681508      -0.06229592      -0.12447670
