64
Lattice="10.247750970091086 0.007568156837269923 -0.04468096010912248 5.1304297011264435 8.814871910993027 -0.08118524262406036 -0.036481851161666655 -0.055479374200273664 8.740896046989342" Properties=species:S:1:pos:R:3:tags:I:1:initial_magmoms:R:1:forces:R:3 unique_id=649a635d458340a08f1c9a1d828e4a83 stress="0.0001329048394519139 -3.169633730821906e-06 1.2747189645400288e-05 -3.169633730821906e-06 0.00015441685813544215 1.1046187220423373e-05 1.2747189645400288e-05 1.1046187220423373e-05 0.00014529234362395393" energy=-394.34305549051066 pbc="T T T"
Ni       0.03315504      -0.04562150       0.18431928        4       1.00000000       0.11093598      -0.07804575       0.25842624
Ni       2.52789140      -0.03744475       0.19089537        4       1.00000000      -0.09754691      -0.07349420       0.28273890
Ni       5.11453846      -0.02886535       0.14461821        4       1.00000000      -0.08879793      -0.01387694       0.22836930
Ni       7.67381437      -0.05789394       0.14286160        4       1.00000000      -0.04489105      -0.08710476       0.28734624
Ni       1.27778026       2.20523052       0.09119568        4       1.00000000      -0.00366929      -0.01683628       0.23803130
Pt       3.75726065       2.17256873       0.15399155        4       0.00000000      -0.12915923      -0.04257390       0.21354517
Pt       6.41200211       2.16999630       0.06000758        4       0.00000000       0.00921968      -0.03413935      -0.05316652
Pt       9.03765147       2.25179233       0.06654790        4       0.00000000       0.05084072       0.04125230       0.15887261
Ni       2.53096984       4.43193591       0.02557961        4       1.00000000      -0.03974612       0.03926027       0.00942357
Pt       5.11391627       4.50437643       0.03964711        4       0.00000000      -0.07332636       0.11091614      -0.11816231
Ni       7.69049547       4.45569265       0.00816942        4       1.00000000      -0.06916477       0.10151186       0.09188970
Ni      10.27774172       4.44031612      -0.01479062        4       1.00000000       0.08145288       0.14265573       0.01397955
Ni       3.82101909       6.64346925       0.04420178        4       1.00000000      -0.07564425       0.10483407       0.17519455
Ni       6.42103105       6.65034693       0.04243088        4       1.00000000       0.00773144       0.06621371       0.15813002
Ni       8.94448140       6.61336050       0.06660576        4       1.00000000      -0.13759796       0.02315608       0.18148261
Ni      11.55192368       6.61018527      -0.02750374        4       1.00000000       0.04547805      -0.04904568      -0.01494883
Ni       1.30188743       0.72666069       2.19797597        3       1.00000000       0.01523897       0.02289058       0.13255330
Ni       3.78129756       0.72591687       2.18249628        3       1.00000000      -0.16951431      -0.03250079      -0.00149846
Ni       6.40852020       0.73483351       2.17338141        3       1.00000000       0.09618104       0.00302940       0.03668296
Pt       8.97811497       0.72439513       2.17156330        3       0.00000000       0.10214825       0.17278154      -0.10352508
Ni       2.54069305       2.89580499       2.23115743        3       1.00000000       0.02476904      -0.11357337       0.16266835
Ni       5.10284229       2.95388955       2.18212517        3       1.00000000      -0.10255276       0.14908066      -0.06769135
Ni       7.65975324       2.92696655       2.17888369        3       1.00000000       0.03956124      -0.06513425      -0.06436499
Ni      10.29480209       2.91040896       2.18984429        3       1.00000000       0.11917951      -0.07739444       0.14299692
Ni       3.84685635       5.13216214       2.15770189        3       1.00000000      -0.01060924      -0.01583983       0.02009739
Ni       6.38804940       5.15815003       2.13001468        3       1.00000000       0.01172716       0.05730470      -0.04491482
Pt       8.90765648       5.09780778       2.13897849        3       0.00000000       0.00431450      -0.04488951       0.00845274
Pt      11.59092923       5.08768006       2.13059582        3       0.00000000       0.08150483      -0.11195739       0.04984244
Ni       5.15119174       7.30630941       2.09047416        3       1.00000000       0.02087212      -0.06268550      -0.02091962
Ni       7.61356116       7.35251686       2.08620036        3       1.00000000      -0.12937085      -0.04789234       0.05632881
Pt      10.27897218       7.37365363       2.06885247        3       0.00000000       0.06449865      -0.02329746       0.04953989
Ni      12.82913467       7.31732444       2.06254084        3       1.00000000       0.08603630      -0.11543406      -0.00286675
Ni       0.04120776       1.48104524       4.30752182        2       1.00000000       0.11006701       0.02939009      -0.05332923
Ni       2.47824192       1.48252843       4.27235399        2       1.00000000      -0.04074843       0.04150689      -0.07336391
Pt       5.11461257       1.44727791       4.20989480        2       0.00000000      -0.12046919       0.01013203       0.04341907
Ni       7.67938539       1.45313770       4.27245093        2       1.00000000       0.04512279      -0.04216277      -0.08454099
Ni       1.26848014       3.63551423       4.34029961        2       1.00000000       0.03713164      -0.02398076      -0.02520926
Ni       3.76112163       3.68069542       4.25760108        2       1.00000000      -0.11078649       0.02854772      -0.21068385
Pt       6.46552090       3.65868963       4.27497986        2       0.00000000       0.06318342      -0.05720164      -0.11228474
Ni       9.00581798       3.67795444       4.25108724        2       1.00000000       0.20070112       0.00509289      -0.12045439
Ni       2.51491358       5.81338811       4.33276162        2       1.00000000      -0.02101579      -0.05324427      -0.01204293
Pt       5.10654420       5.84685938       4.26950242        2       0.00000000       0.03207088      -0.02370572      -0.10550109
Ni       7.67252417       5.84099711       4.26940986        2       1.00000000      -0.01557025       0.03217083      -0.06539031
Ni      10.27557938       5.80503358       4.28941508        2       1.00000000       0.09027066      -0.05983338      -0.01367822
Pt       3.80009967       8.03942374       4.22435611        2       0.00000000      -0.07620296       0.00379803       0.12910385
Ni       6.38647958       8.06860600       4.20602713        2       1.00000000      -0.10040821       0.08558014      -0.15890670
Pt       8.89585405       8.01647857       4.18237545        2       0.00000000      -0.11687166      -0.06207341       0.09549678
Ni      11.52219536       8.01000857       4.21822835        2       1.00000000      -0.02989689      -0.11099807      -0.02279183
Pt      -0.01469260      -0.07506707       6.51720991        1       0.00000000       0.10729126      -0.05915475       0.12573466
Pt       2.51478693      -0.03113292       6.50231354        1       0.00000000      -0.10168542       0.04062635       0.16941302
Pt       5.11738439      -0.05332157       6.50539595        1       0.00000000       0.07835074       0.01639569       0.02444478
Pt       7.65397551      -0.07762775       6.48320423        1       0.00000000      -0.09075874      -0.03786016       0.14557779
Ni       1.25265148       2.22917903       6.42613307        1       1.00000000       0.02203183       0.11180770      -0.18435531
Pt       3.78862062       2.29048644       6.37751273        1       0.00000000       0.00823489       0.23568044      -0.27303796
Ni       6.38932179       2.21033076       6.36978477        1       1.00000000      -0.01015583       0.03910773      -0.24277266
Pt       8.96012150       2.26759556       6.30430827        1       0.00000000       0.02106924       0.11456739      -0.38260566
Ni       2.50474655       4.41624116       6.40593943        1       1.00000000      -0.04435600       0.12712048      -0.22898184
Ni       5.10997303       4.40756125       6.35944720        1       1.00000000       0.01201903       0.08736931      -0.24770626
Ni       7.63110023       4.37685191       6.41477403        1       1.00000000      -0.12304063      -0.01183552      -0.11093354
Ni      10.29250929       4.37304236       6.37198536        1       1.00000000       0.26625520      -0.02338238      -0.23451635
Ni       3.80747620       6.50228549       6.42880874        1       1.00000000      -0.02397803      -0.14930144      -0.05349352
Ni       6.37368120       6.52036650       6.41376274        1       1.00000000       0.02909927      -0.04331407      -0.08302705
Pt       8.95356508       6.44270163       6.42215422        1       0.00000000       0.06631948      -0.13289386       0.09537771
Ni      11.53875663       6.50548746       6.36341211        1       1.00000000       0.03662673      -0.04712278      -0.19349390
