64
Lattice="10.170936172929636 0.04117293756059266 -0.010304895171375969 5.121124896340723 8.804983344038963 -0.015176208055401612 0.0 0.0 21.46280335926591" Properties=species:S:1:pos:R:3:tags:I:1:initial_magmoms:R:1:forces:R:3 unique_id=e1869754743e4e68a649cdbb44f2c6ac energy=-369.52344462895013 stress="0.0018782991533620487 1.5301435853406482e-05 0.00012263485941742106 1.5301435853406482e-05 0.0013462761491826632 9.848581630276875e-05 0.00012263485941742106 9.848581630276875e-05 -0.005032207869522708" pbc="T T T"
Ni       0.03488239      -0.04453592       0.13954829        1       1.00000000       0.07189609      -0.03137593      -0.42200023
Ni       2.50034310       0.02542145       0.10383972        1       1.00000000       0.06690657       0.16338916      -0.47594199
Pt       5.11565312      -0.03962999       0.15828783        2       0.00000000      -0.08753754       0.02010208      -0.90268922
Ni       7.64036600      -0.01617821       0.11440142        1       1.00000000      -0.05300375      -0.07748718      -0.42178744
Ni       1.27493260       2.22697641       0.06368445        1       1.00000000      -0.03104657       0.07871709       0.23308307
Pt       3.79113549       2.28394199       0.12976346        1       0.00000000       0.01198701      -0.02728034      -0.69116686
Ni       6.36994179       2.26661430       0.05867575        1       1.00000000      -0.02667237      -0.00484396       0.17853017
Pt       8.91149921       2.30070366       0.07541304        1       0.00000000       0.05237104       0.17483227      -0.93663879
Ni       2.53673832       4.45023203       0.04429294        0       1.00000000       0.04631412       0.00986937       0.42727855
Ni       5.12111487       4.45846899       0.04277184        0       1.00000000      -0.11353427       0.01964243       0.27941946
Ni       7.61498300       4.46426170       0.04722528        0       1.00000000       0.06643085       0.03778651       0.25767870
Ni      10.22359436       4.47105612       0.04364794        0       1.00000000       0.00049183      -0.02359040       0.36451227
Ni       3.83821966       6.57945278       0.04288419        0       1.00000000      -0.01672538      -0.01439765       0.32727767
Ni       6.34114161       6.58281275       0.00000000        0       1.00000000      -0.07556437      -0.00408636       0.12241797
Ni       8.94529780       6.55568591       0.11646536        1       1.00000000       0.15437660      -0.07359459      -0.51056706
Ni      11.49865203       6.58059429       0.04151787        0       1.00000000      -0.00692060       0.05269695       0.34869215
Ni       1.30036601       0.78383066       2.10490693        4       1.00000000       0.00555211       0.16007172       0.10708401
Ni       3.77649257       0.77872748       2.12856736        4       1.00000000      -0.14263513       0.04837900       0.22084808
Ni       6.37008797       0.76196617       2.13742885        4       1.00000000       0.02407623       0.06483519       0.13343710
Pt       8.88012619       0.73952608       2.11298977        4       0.00000000       0.04074341      -0.12519549       0.16420149
Ni       2.51913147       2.98566759       2.18398995        5       1.00000000      -0.00998270       0.11052526       0.09867705
Ni       5.10304369       3.00472922       2.10559178        4       1.00000000       0.00873086       0.07850877       0.05493803
Ni       7.61386368       3.00194483       2.13293400        4       1.00000000      -0.02587080       0.03860351       0.10902479
Ni      10.22906293       3.03952206       2.12175824        4       1.00000000       0.09016617       0.08800742       0.11326620
Ni       3.81510439       5.13146907       2.11478187        4       1.00000000      -0.08136533      -0.05446923       0.03853350
Ni       6.33423813       5.12360973       2.06244734        4       1.00000000      -0.05816297      -0.03649653       0.02833172
Ni       8.95891850       5.11291821       2.09668032        4       1.00000000       0.03082397      -0.07385023       0.06207025
Ni      11.47287146       5.16102824       2.11812776        4       1.00000000       0.04805875      -0.04835530       0.11658951
Ni       5.08768990       7.26301050       2.08240068        4       1.00000000      -0.16020765      -0.12621899       0.06970461
Pt       7.60195605       7.33105098       2.02983151        3       0.00000000      -0.07234950      -0.02584794      -0.03722240
Ni      10.26278490       7.27757472       2.13730455        4       1.00000000       0.08375446      -0.18471757       0.15236396
Ni      12.70777235       7.29184790       2.07743637        4       1.00000000       0.00403617      -0.10946005       0.08222081
Pt       0.08416541       1.52254160       4.21193560        7       0.00000000       0.11705940      -0.07244114      -0.02773825
Ni       2.54690950       1.52934800       4.20064834        7       1.00000000       0.05590029       0.02868640      -0.24153663
Pt       5.09842850       1.49672274       4.14549627        6       0.00000000       0.09006014      -0.01808089      -0.14628190
Ni       7.63051749       1.48380039       4.23216488        7       1.00000000      -0.00210577      -0.10614246      -0.21047245
Ni       1.31514799       3.71679936       4.25127269        8       1.00000000       0.06375994       0.00404926      -0.12870932
Ni       3.76458548       3.75146215       4.19769459        7       1.00000000      -0.03536975       0.07498788      -0.19921959
Pt       6.35277863       3.68667066       4.24667217        7       0.00000000       0.00769203      -0.06534891      -0.01860588
Ni       8.96524821       3.73911224       4.18652939        7       1.00000000       0.12522538       0.05930526      -0.24023560
Ni       2.53403068       5.80606175       4.24348376        7       1.00000000      -0.04678649      -0.02336457      -0.18804596
Ni       5.05949401       5.83392179       4.24654666        7       1.00000000      -0.02985727      -0.07664674      -0.16167596
Pt       7.63560498       5.85685990       4.22717498        7       0.00000000      -0.01059281       0.02005257      -0.01329565
Ni      10.26617542       5.84080166       4.21624801        7       1.00000000       0.04447073      -0.01411074      -0.15120399
Pt       3.82133366       7.94571272       4.20715366        7       0.00000000       0.00297201       0.00529438      -0.00454585
Ni       6.36744836       8.05838650       4.21282944        7       1.00000000       0.00783142      -0.02086521      -0.17959832
Pt       8.94835641       8.06593230       4.15916867        7       0.00000000      -0.03381266      -0.03235590      -0.18764285
Ni      11.48786156       8.01630217       4.17782805        7       1.00000000       0.02375478      -0.14661639      -0.22233868
Pt      -0.00136387      -0.07322700       6.46280336       11       0.00000000      -0.19234208       0.09525690       0.31076922
Pt       2.51211601       0.01374748       6.41129608       10       0.00000000       0.17487332       0.10208034       0.34333400
Pt       5.10747025       0.00863990       6.35397320       10       0.00000000      -0.11391588      -0.07098321       1.03144128
Pt       7.61515950      -0.02517103       6.42283334       10       0.00000000       0.11550164       0.14156684       0.33998204
Ni       1.27355127       2.27101276       6.38084790       10       1.00000000       0.03558332       0.03811673      -0.05245913
Pt       3.79241766       2.35525424       6.30917034        9       0.00000000      -0.13475721      -0.04411009       0.65678049
Ni       6.35213240       2.27023326       6.39176212       10       1.00000000       0.01200106      -0.01640008       0.06989935
Pt       8.88462475       2.34297074       6.28809659        9       0.00000000      -0.13938229      -0.10710510       0.97952518
Ni       2.52449691       4.46080000       6.34776756        9       1.00000000       0.05352091      -0.02778326      -0.32287606
Ni       5.09698167       4.47062790       6.38358500       10       1.00000000      -0.09376882       0.01149605      -0.20641538
Ni       7.57323899       4.42322239       6.40344542       10       1.00000000      -0.01523981      -0.02387189      -0.00152096
Ni      10.26705498       4.42167083       6.34752356        9       1.00000000       0.03870302      -0.00527332      -0.25723545
Ni       3.82615367       6.49705391       6.37936865       10       1.00000000      -0.02225078      -0.02130983      -0.22304364
Ni       6.33785572       6.54085414       6.37339515       10       1.00000000      -0.03487047       0.05133274      -0.09971776
Pt       8.95243131       6.48523431       6.45576564       11       0.00000000       0.13136355       0.08038861       0.31939277
Ni      11.50761836       6.55321087       6.34347676        9       1.00000000      -0.04035818       0.07549675      -0.25887621
