64
Lattice="10.211934967998845 0.009550387109430134 -0.030731149229969647 5.114238361852164 8.814330280295538 -0.09878172608742182 -0.025091878274249933 -0.0786455018221928 8.748944733630491" Properties=species:S:1:pos:R:3:tags:I:1:initial_magmoms:R:1:forces:R:3 unique_id=ae7c525836104b08b1caf0270665027c stress="-0.006037284002720383 -2.783700150445102e-05 7.86678439349933e-06 -2.783700150445102e-05 -0.0060266638043594695 3.712980549013451e-05 7.86678439349933e-06 3.712980549013451e-05 -0.005320253813670586" energy=-393.9962973599242 pbc="T T T"
Ni       0.01970514       0.00950436       0.17897800        4       1.00000000       0.08864386      -0.02895272       0.11112414
Ni       2.55649589      -0.01221255       0.21438285        4       1.00000000       0.05407429      -0.05838445       0.19295354
Ni       5.11029924      -0.04082567       0.07526672        4       1.00000000      -0.00598142      -0.05722536       0.01612745
Ni       7.66099288      -0.03433503       0.02781892        4       1.00000000      -0.00745151      -0.07386070      -0.08015812
Ni       1.23442008       2.20339552       0.09410819        4       1.00000000      -0.06386030      -0.01619358       0.08933621
Pt       3.77316284       2.19410275       0.17733744        4       0.00000000      -0.01540404      -0.05010927      -0.06433414
Pt       6.44058789       2.19621024       0.18421779        4       0.00000000       0.01889365      -0.02656398       0.03161777
Ni       8.98524352       2.23561449       0.02632335        4       1.00000000       0.04057584       0.00235742      -0.03484471
Ni       2.54579839       4.41404516       0.01863916        4       1.00000000      -0.06005268      -0.06019297      -0.02037670
Ni       5.07727054       4.41381583       0.02548324        4       1.00000000      -0.06046474      -0.08734305       0.01009455
Ni       7.72648602       4.39416663       0.02139195        4       1.00000000       0.09404881      -0.05917967       0.05385149
Ni      10.19543604       4.37837105      -0.00516250        4       1.00000000      -0.05887120      -0.08490857      -0.00593553
Ni       3.82226110       6.57747459      -0.01475939        4       1.00000000      -0.01880942      -0.10952513      -0.04608794
Pt       6.38610963       6.62390765      -0.06092071        4       0.00000000      -0.00455093      -0.07510060      -0.29298798
Ni       8.94982710       6.58338184       0.07030290        4       1.00000000      -0.04661819      -0.12095896       0.12888273
Ni      11.48290395       6.59749222      -0.06765933        4       1.00000000      -0.11010816      -0.10125455      -0.13678531
Ni       1.29669856       0.72938506       2.13632003        3       1.00000000       0.01205189       0.03854365       0.04835230
Ni       3.82641330       0.71838290       2.19425795        3       1.00000000       0.04930207      -0.00414623       0.11018948
Ni       6.33569797       0.73291046       2.20217905        3       1.00000000      -0.03092199      -0.04308685       0.11691410
Pt       8.97784724       0.78338023       2.10155178        3       0.00000000      -0.05363229       0.00521116       0.04388294
Ni       2.51444205       2.90344134       2.16417227        3       1.00000000      -0.10366209      -0.00797296       0.03798680
Ni       5.09256260       2.90483070       2.19998355        3       1.00000000       0.01544352      -0.00878878       0.12691848
Ni       7.71771169       2.96618292       2.16232531        3       1.00000000       0.13843417       0.10443363       0.12074931
Ni      10.20153668       2.92819173       2.11526892        3       1.00000000      -0.00653735      -0.00945994       0.04186703
Ni       3.84160391       5.09969771       2.09468594        3       1.00000000      -0.01121937      -0.03501502      -0.09205917
Pt       6.39073523       5.13513608       2.12021105        3       0.00000000      -0.00007027       0.01865659      -0.04554178
Ni       8.92603094       5.09479003       2.12623020        3       1.00000000       0.02194719      -0.01335606       0.05031424
Pt      11.46493862       5.06804939       2.06557346        3       0.00000000      -0.00864701       0.00857387      -0.03471017
Ni       5.11836642       7.32504876       2.08384629        3       1.00000000      -0.00439390      -0.02442299      -0.08614541
Ni       7.65831412       7.35184066       2.09591516        3       1.00000000      -0.02794499      -0.01645940      -0.00243843
Pt      10.14271528       7.36544498       2.11914719        3       0.00000000      -0.00327957      -0.00947959       0.04255287
Pt      12.78211657       7.31749523       2.02616366        3       0.00000000      -0.02152805      -0.01514293      -0.06874490
Ni      -0.01726905       1.44696382       4.34847620        2       1.00000000       0.00378295      -0.05933466      -0.01492228
Pt       2.54781800       1.40133596       4.23336807        2       0.00000000      -0.00985603      -0.01792805       0.05021397
Ni       5.10162978       1.37592161       4.28405168        2       1.00000000      -0.00836232      -0.00682194       0.00004313
Pt       7.66429182       1.42954155       4.28576519        2       0.00000000       0.03548433      -0.01608062       0.00290118
Pt       1.17953174       3.66434079       4.36393514        2       0.00000000      -0.03058024      -0.03046352      -0.01881288
Pt       3.81674589       3.72428453       4.24312984        2       0.00000000      -0.06667639       0.07145446      -0.06783416
Pt       6.41461964       3.70184417       4.30257164        2       0.00000000      -0.00994283       0.10648350       0.00473858
Ni       8.93185606       3.68206243       4.29393787        2       1.00000000      -0.00812721       0.05499411      -0.04467851
Ni       2.49008109       5.85261545       4.33045234        2       1.00000000      -0.14327620       0.01868463      -0.09370437
Ni       5.08725645       5.83951954       4.29854265        2       1.00000000      -0.04302832      -0.00480743      -0.16077401
Ni       7.72769289       5.83469733       4.25763992        2       1.00000000       0.17434780       0.02012372      -0.11578749
Ni      10.19580025       5.86992917       4.25595770        2       1.00000000      -0.00926461       0.02919668      -0.06015629
Pt       3.78563811       7.95493458       4.29500437        2       0.00000000       0.00107731      -0.01914983      -0.01749373
Pt       6.40378571       7.96130841       4.17769978        2       0.00000000       0.00312811       0.00275025      -0.00734373
Ni       8.97644815       8.02146534       4.25138072        2       1.00000000      -0.01346527      -0.00311945       0.07032952
Ni      11.43469571       8.02041143       4.28487678        2       1.00000000      -0.01988317      -0.00991317      -0.03939006
Pt      -0.08717729      -0.02100501       6.56753346        1       0.00000000      -0.06193844       0.05641820       0.14313511
Pt       2.55078031      -0.06901054       6.55396576        1       0.00000000       0.02997922       0.04658589       0.21278022
Ni       5.13693755      -0.08397310       6.43863486        1       1.00000000       0.03093466       0.03341214      -0.08119325
Ni       7.59347391      -0.09971811       6.46839876        1       1.00000000      -0.07456979      -0.07997350      -0.07657002
Ni       1.21885362       2.19872229       6.47512124        1       1.00000000       0.00216491       0.04324561       0.03271697
Pt       3.79652215       2.23694257       6.42056936        1       0.00000000       0.01928238       0.15397186       0.12842156
Pt       6.41337971       2.15308757       6.43885808        1       0.00000000       0.00766651       0.03360845       0.25359227
Ni       8.95534698       2.22392040       6.43320224        1       1.00000000       0.08227090       0.17420088      -0.09694834
Ni       2.51092538       4.43446597       6.45199078        1       1.00000000      -0.04421786       0.16950656      -0.00747746
Ni       5.08986605       4.44482692       6.43945390        1       1.00000000       0.01472368       0.13281056       0.00203131
Ni       7.67033970       4.37209888       6.42709058        1       1.00000000       0.07857984       0.05957340       0.02044390
Ni      10.20252711       4.34266768       6.43126417        1       1.00000000       0.05159252       0.03060863       0.01929266
Ni       3.78481181       6.51086479       6.40693581        1       1.00000000      -0.01380662      -0.00648068      -0.06674191
Ni       6.34656115       6.50102125       6.28783689        1       1.00000000       0.05920308      -0.02092983      -0.30603425
Pt       8.98838001       6.49165697       6.39518882        1       0.00000000       0.10713862       0.03049388       0.12319470
Ni      11.51602646       6.56690319       6.35482264        1       1.00000000       0.04623263       0.02618727      -0.15053751
