64
Lattice="10.339691071190442 -0.014379023701344737 0.014598112389744556 5.157392935788237 8.901209756687825 0.0084258657900328 0.0 0.0 21.575871019198658" Properties=species:S:1:pos:R:3:tags:I:1:initial_magmoms:R:1:forces:R:3 unique_id=69195dd28e494cfe8eafe7016180be31 energy=-376.39246693653706 stress="0.005381621746432603 -1.0122760475542302e-06 0.0002854257965128038 -1.0122760475542302e-06 0.005280610747817171 0.00019562114280811046 0.0002854257965128038 0.00019562114280811046 -0.0021071690870111855" pbc="T T T"
Ni      -0.01570803       0.02628967       0.13696448        1       1.00000000      -0.02361164       0.05202215       0.00875916
Ni       2.58492824       0.00227319       0.14479593        1       1.00000000      -0.01953568       0.01966858      -0.06911173
Ni       5.16826289      -0.02611531       0.10482776        1       1.00000000      -0.01832275       0.18720396      -0.36236237
Ni       7.78034395      -0.05145236       0.05629155        1       1.00000000       0.01612368      -0.03442851       0.40587497
Ni       1.27526915       2.21670168       0.01922101        0       1.00000000      -0.01463871      -0.09976192       0.25428738
Pt       3.80155154       2.22242312       0.04939765        0       0.00000000       0.04164684      -0.05641569      -0.03024023
Pt       6.46125741       2.14203269       0.09367987        1       0.00000000      -0.09250560      -0.12264882      -0.72385280
Ni       9.07517985       2.17596863       0.08606133        1       1.00000000      -0.01834197      -0.13799646      -0.11237313
Ni       2.56308692       4.46129952       0.00000000        0       1.00000000      -0.04468452       0.01637716       0.17794965
Ni       5.15577916       4.44970737       0.10310917        1       1.00000000       0.18147993      -0.08714836      -0.29038925
Pt       7.82347312       4.47336581       0.01299472        0       0.00000000      -0.00816098       0.04059802      -0.11074367
Ni      10.36857173       4.44921088       0.00330628        0       1.00000000       0.03403500       0.02204590       0.18549360
Ni       3.83819071       6.70465753       0.11740393        1       1.00000000      -0.04283925       0.19156309      -0.12059975
Pt       6.43242243       6.73174865       0.14736673        1       0.00000000      -0.05791946       0.07305582      -0.57528612
Ni       9.06617763       6.68756991       0.02612864        0       1.00000000      -0.05937596      -0.00161608       0.18127917
Ni      11.63953236       6.67612534       0.01257948        0       1.00000000       0.10907613       0.06470044       0.24778720
Ni       1.30236699       0.72376505       2.11195082        2       1.00000000       0.07550615      -0.04500128      -0.03053324
Ni       3.86938119       0.75589114       2.15389146        3       1.00000000       0.02699351       0.06381713       0.20306751
Ni       6.47019449       0.71247220       2.18779932        3       1.00000000       0.04135123       0.00622994       0.19878815
Ni       9.04641207       0.68999868       2.13542405        2       1.00000000      -0.04514024      -0.07506360      -0.00213290
Ni       2.59529742       2.94314031       2.15690354        3       1.00000000       0.02019772      -0.01829823       0.12420258
Ni       5.13863346       2.93407045       2.19074555        3       1.00000000      -0.04687560      -0.14059658       0.28954644
Pt       7.76974099       2.92606782       2.21874728        3       0.00000000       0.04340316      -0.06190597       0.04760890
Pt      10.36963865       2.88635583       2.14423331        2       0.00000000       0.15397310      -0.03386432       0.03873671
Pt       3.89137804       5.17454968       2.11225554        2       0.00000000       0.01479259      -0.07379768       0.03083331
Ni       6.48381130       5.19759437       2.17597662        3       1.00000000       0.12261436      -0.05081115       0.21546332
Ni       9.02303562       5.20851148       2.20516002        3       1.00000000      -0.07131188      -0.01230937       0.21269347
Pt      11.62523257       5.19766089       2.13112880        2       0.00000000      -0.03030540      -0.02141261       0.02929744
Ni       5.14389239       7.46200387       2.14200715        2       1.00000000      -0.08724579       0.07479018       0.06150753
Ni       7.74956184       7.41669505       2.16409330        3       1.00000000       0.04919408      -0.03691281       0.11641434
Pt      10.30388435       7.43351300       2.08761103        2       0.00000000      -0.03042475       0.00183199      -0.01718856
Ni      12.93526494       7.44439895       2.13314590        2       1.00000000      -0.03000858       0.08563263      -0.02627470
Ni      -0.01352630       1.52155978       4.31247156        5       1.00000000       0.01494890       0.06742305      -0.17369582
Pt       2.62509107       1.54667724       4.27601158        5       0.00000000      -0.00752151      -0.00527803      -0.12923856
Ni       5.17194378       1.49085375       4.29479959        5       1.00000000       0.03166375      -0.00087564      -0.36887243
Ni       7.78073013       1.47902609       4.31863714        5       1.00000000       0.03117095       0.01976830      -0.21536317
Pt       1.26584537       3.76484825       4.40942399        6       0.00000000      -0.06759633       0.00533392      -0.00038997
Ni       3.87230679       3.70058467       4.32803261        5       1.00000000       0.04264905       0.05202111      -0.21734977
Pt       6.48134878       3.69405759       4.29256685        5       0.00000000      -0.06056907       0.01302701      -0.02247405
Ni       9.05973186       3.73266764       4.35057313        6       1.00000000       0.01209150       0.06289234      -0.21096037
Ni       2.55323543       5.91900680       4.34917922        5       1.00000000       0.00053258       0.02450389      -0.12018410
Pt       5.14136383       5.90852642       4.27071132        5       0.00000000      -0.07790789       0.09755646      -0.10222308
Ni       7.81693021       5.88230543       4.31193187        5       1.00000000       0.09256529      -0.07522657      -0.27589776
Ni      10.31233128       5.89695659       4.38405198        6       1.00000000      -0.05027810       0.03867740      -0.08128381
Pt       3.84805720       8.21957093       4.24750020        4       0.00000000       0.00955887       0.09927609      -0.08713250
Pt       6.45656412       8.18076384       4.21654820        4       0.00000000      -0.01599220       0.09930638      -0.17132514
Pt       9.04584289       8.09809929       4.30507067        5       0.00000000      -0.06215831      -0.02875000      -0.03471768
Pt      11.64410824       8.14242397       4.32432707        5       0.00000000      -0.00814300       0.00309745      -0.03595642
Pt      -0.01308884       0.04051090       6.54745433        8       0.00000000       0.09188335       0.00781883       0.15596925
Pt       2.61278857       0.05249656       6.57587102        9       0.00000000       0.03146051      -0.00399657       0.31246937
Pt       5.20867428      -0.07820306       6.55989804        9       0.00000000      -0.07101961      -0.01062959       0.35868257
Ni       7.75450750      -0.01385558       6.51151002        8       1.00000000       0.02254229       0.05952474      -0.11122946
Ni       1.31208901       2.28173517       6.50483813        8       1.00000000       0.00412952      -0.01510087      -0.13933928
Ni       3.84987149       2.24787488       6.42577186        7       1.00000000       0.04651669      -0.06970857       0.11295307
Pt       6.48012884       2.17862794       6.42858738        7       0.00000000      -0.02910425      -0.08670259       0.79799607
Pt       9.09428401       2.30199861       6.48528522        8       0.00000000       0.05446295       0.13792551      -0.01937789
Ni       2.53241627       4.43162038       6.49816495        8       1.00000000      -0.02649316       0.04833781      -0.12743672
Pt       5.09648446       4.39567820       6.53821010        8       0.00000000      -0.10124051      -0.03074482       0.33193183
Ni       7.81001036       4.46063500       6.40811788        7       1.00000000       0.07398938       0.05109530       0.10095406
Ni      10.34591042       4.48770753       6.50162351        8       1.00000000      -0.06187328       0.12468301      -0.23057796
Pt       3.74584400       6.66695675       6.54869853        8       0.00000000       0.01892330      -0.11991325       0.10704128
Pt       6.53468005       6.62233235       6.46168134        8       0.00000000      -0.02217828      -0.05142069       0.53815525
Ni       9.08781243       6.60140861       6.49602933        8       1.00000000       0.01703621      -0.09641750      -0.24101023
Ni      11.59528840       6.61032579       6.50547776        8       1.00000000      -0.12318832      -0.20705150      -0.25861895
