64
Lattice="10.324284123311498 0.008332876054641924 -0.007046819587102392 5.1693585440056555 8.876556468350637 -0.024917704902429425 -0.005753704099283643 -0.02017073486692532 8.790248277902743" Properties=species:S:1:pos:R:3:tags:I:1:initial_magmoms:R:1:forces:R:3 unique_id=9464ae68b84f4266995e2e1efa31735a stress="0.00020652541017298492 3.6945506765945464e-06 -9.707728589513544e-06 3.6945506765945464e-06 0.00021258221860152166 8.610746078331037e-06 -9.707728589513544e-06 8.610746078331037e-06 0.00020833325052280194" energy=-396.8420216541412 pbc="T T T"
Ni      -0.00116147       0.02356697       0.17931697        4       1.00000000       0.00064488       0.05081800       0.23291648
Ni       2.57714055       0.00688362       0.21106660        4       1.00000000       0.01052898       0.01342144       0.37879309
Ni       5.15865926      -0.00660012       0.16477587        4       1.00000000      -0.03715630       0.13510641       0.28766250
Ni       7.74905178      -0.04167449       0.18235784        4       1.00000000      -0.03609616      -0.14491750       0.36543637
Ni       1.25938736       2.22520773       0.10257880        4       1.00000000      -0.12189514       0.03140104       0.19569020
Pt       3.80971207       2.23362807       0.18828696        4       0.00000000      -0.07160957       0.04723363       0.16447562
Pt       6.47741838       2.17845545       0.18846134        4       0.00000000       0.06023340      -0.02642683       0.23002225
Ni       9.07880056       2.22555352       0.13846651        4       1.00000000       0.10596645       0.03465443       0.16367698
Ni       2.57806046       4.46367775       0.06124529        4       1.00000000       0.05449501       0.05897471       0.00896908
Ni       5.13355256       4.45991914       0.17334920        4       1.00000000      -0.01747376       0.01322574       0.32936362
Pt       7.82356524       4.45315918       0.09287653        4       0.00000000       0.10948732       0.00298959      -0.09213870
Ni      10.36003643       4.43854595       0.05904092        4       1.00000000       0.11740535      -0.04221023       0.12975839
Ni       3.83967757       6.65413888       0.09393379        4       1.00000000      -0.08717065      -0.04818959       0.19211778
Pt       6.42515973       6.70297817       0.16871469        4       0.00000000      -0.08885568       0.00769305       0.05501275
Ni       9.06103950       6.67435805       0.05352852        4       1.00000000      -0.02280771       0.01801813       0.00678012
Ni      11.64290242       6.65923166       0.04154006        4       1.00000000       0.11282382      -0.04320466      -0.01531726
Ni       1.29804105       0.75723454       2.15634981        3       1.00000000      -0.04568523       0.11162505      -0.13237197
Ni       3.86249458       0.75154140       2.20829581        3       1.00000000       0.06045542       0.05481271       0.03921934
Ni       6.44488649       0.75620894       2.23727865        3       1.00000000      -0.01751391       0.12705981       0.14820324
Pt       9.04161382       0.77843702       2.18021735        3       0.00000000      -0.01038481       0.07870669       0.14795728
Ni       2.57256992       2.96291474       2.21380458        3       1.00000000      -0.00675485       0.11025036      -0.06330962
Ni       5.14151477       2.97721446       2.23885574        3       1.00000000      -0.15384133       0.00750233       0.00014323
Ni       7.77052009       2.97942170       2.23502229        3       1.00000000       0.13697422       0.07763229      -0.01987292
Ni      10.32974894       2.95801717       2.19530494        3       1.00000000       0.05879342       0.05479558       0.07588039
Ni       3.90385865       5.17153810       2.20021405        3       1.00000000       0.04763797      -0.01907185       0.05935027
Ni       6.44053911       5.17958973       2.21138128        3       1.00000000      -0.00613759       0.12159107      -0.08196550
Ni       9.01785648       5.15569020       2.21646475        3       1.00000000       0.00162437      -0.08748217       0.11855203
Pt      11.66622238       5.12269876       2.15555568        3       0.00000000       0.08580453      -0.03593388       0.03068700
Ni       5.13495490       7.35935314       2.18063686        3       1.00000000      -0.18219549      -0.15300804      -0.12575295
Ni       7.74472583       7.38822356       2.17418762        3       1.00000000       0.03514913      -0.13238381      -0.09652451
Pt      10.31291840       7.40024214       2.08598651        3       0.00000000       0.02971090      -0.15801701      -0.06209570
Ni      12.93962052       7.37241514       2.13426586        3       1.00000000       0.05011888      -0.15819960      -0.05977313
Ni      -0.01360342       1.53047663       4.33828595        2       1.00000000      -0.03741722       0.09799483      -0.12289023
Pt       2.53243555       1.56720855       4.24683302        2       0.00000000       0.01647939       0.02329577       0.02979311
Ni       5.16179762       1.50378398       4.30419627        2       1.00000000      -0.06097825       0.09303048      -0.14180859
Ni       7.76850603       1.50284501       4.31640830        2       1.00000000       0.04590945       0.03197198      -0.06198554
Ni       1.28920119       3.68559358       4.38216089        2       1.00000000      -0.02043676      -0.00862184      -0.06044684
Ni       3.85393319       3.74614522       4.30232407        2       1.00000000      -0.05469493       0.06617920      -0.21677210
Pt       6.46614622       3.72442635       4.23950619        2       0.00000000      -0.06463853      -0.05887929       0.13175268
Ni       9.04089249       3.67306092       4.31541368        2       1.00000000       0.01845599      -0.11143673      -0.28906257
Ni       2.60913609       5.84556597       4.37427110        2       1.00000000       0.00858713      -0.13247146      -0.09944527
Ni       5.12983160       5.87466125       4.29128383        2       1.00000000      -0.03314773      -0.08216837      -0.22688211
Ni       7.75813967       5.86673358       4.31046074        2       1.00000000       0.04574519      -0.03821929      -0.26995864
Pt      10.32539143       5.80749057       4.40413596        2       0.00000000       0.00771683      -0.01802366      -0.08502387
Pt       3.87695396       8.06732462       4.29403267        2       0.00000000      -0.05569392      -0.08709326       0.11315737
Pt       6.43656529       8.09959401       4.20471495        2       0.00000000      -0.06411805      -0.03880203      -0.04558793
Pt       9.01818724       8.11914554       4.28940217        2       0.00000000      -0.01793442       0.05093107       0.07916777
Pt      11.63999183       8.14015483       4.27256174        2       0.00000000       0.03880342       0.00895279       0.06670247
Pt       0.00448478       0.00123634       6.57329229        1       0.00000000       0.01524327       0.03323426       0.06831297
Pt       2.56915434      -0.01184710       6.60061896        1       0.00000000       0.02695069       0.05336960       0.21723102
Pt       5.15642126      -0.09889815       6.58186880        1       0.00000000       0.02905843      -0.17197575       0.07359542
Pt       7.74923013      -0.08760258       6.59179124        1       0.00000000       0.00189323      -0.07127934       0.16664067
Ni       1.27811040       2.27662523       6.50249592        1       1.00000000       0.01229631       0.19638684      -0.17014486
Pt       3.80184824       2.26948595       6.45350691        1       0.00000000      -0.11850018       0.02879822      -0.28950002
Pt       6.47509460       2.23088764       6.43909047        1       0.00000000       0.00010466       0.06478560      -0.22647111
Pt       9.10086868       2.31782015       6.48832276        1       0.00000000       0.04533805       0.09093017       0.01853914
Ni       2.51501574       4.46459788       6.48249586        1       1.00000000      -0.18127327       0.06991541      -0.24245594
Pt       5.08371883       4.48069375       6.50766232        1       0.00000000      -0.10993736       0.09554624       0.07687631
Ni       7.79420502       4.45625602       6.41720080        1       1.00000000       0.10830117       0.05330258      -0.32222580
Ni      10.35983216       4.44803256       6.50976502        1       1.00000000       0.14542577       0.05409674      -0.02890576
Ni       3.82421879       6.60284406       6.49497762        1       1.00000000      -0.11080346      -0.05173790      -0.15345133
Pt       6.49584090       6.59108727       6.43097424        1       0.00000000       0.06297350      -0.01517651      -0.32132534
Ni       9.06100429       6.57228273       6.50605544        1       1.00000000       0.06575556      -0.19076062      -0.14417032
Ni      11.62912682       6.56998989       6.50966737        1       1.00000000       0.06226018      -0.14454266      -0.13480048
