64
Lattice="10.36498748870618 0.012840319715231774 -0.012722976136250353 5.193613787419191 8.92269438890137 -0.03458544529849189 0.0 0.0 21.604879980518646" Properties=species:S:1:pos:R:3:tags:I:1:initial_magmoms:R:1:forces:R:3 unique_id=22db881d7c04431d8cb501a6884a7f62 energy=-377.7555973627426 stress="0.005837280631123484 0.00027996588823032785 7.254751838920677e-05 0.00027996588823032785 0.006163516840272352 -0.00014879049767052257 7.254751838920677e-05 -0.00014879049767052257 -0.001069553826500905" pbc="T T T"
Ni       0.00653145      -0.00184906       0.14706447        1       1.00000000       0.09534003       0.03915253      -0.04745767
Ni       2.56253360       0.01473072       0.16012501        2       1.00000000      -0.04877828       0.08017309       0.04426803
Pt       5.17397542      -0.04615566       0.10103175        1       0.00000000      -0.02097644       0.13362802      -0.75696385
Ni       7.79421836      -0.04464941       0.13345338        1       1.00000000      -0.04634660      -0.08848467      -0.09825286
Ni       1.29638243       2.23501785       0.06287197        1       1.00000000      -0.02823634       0.00086257       0.49557486
Pt       3.77944824       2.23322509       0.13703002        1       0.00000000       0.04576028       0.02314028      -0.23009464
Pt       6.50778315       2.20457192       0.06628646        1       0.00000000       0.06539495      -0.04034136      -0.04889827
Pt       9.17261339       2.23625128       0.06976564        1       0.00000000       0.07611184       0.07927442      -0.36043121
Ni       2.54384612       4.48532269       0.01006155        0       1.00000000       0.00950586      -0.04330357       0.24229773
Pt       5.15007889       4.49891397       0.08694286        1       0.00000000       0.13185312       0.03165798      -0.72078758
Pt       7.86158202       4.52277529       0.04596423        0       0.00000000      -0.04455759       0.01804424       0.00188381
Ni      10.41489563       4.49278776       0.00466721        0       1.00000000       0.05013783      -0.03616633       0.23407785
Ni       3.84398443       6.72925860       0.03285837        0       1.00000000       0.00046331       0.06810955       0.38991204
Pt       6.48726560       6.78912198       0.13582343        1       0.00000000      -0.05246498      -0.00314546      -0.47846177
Ni       9.09805581       6.69082628       0.01551368        0       1.00000000       0.01517087       0.03945331       0.20752928
Ni      11.69242220       6.67012022       0.00000000        0       1.00000000       0.04713623       0.05119281       0.33552643
Ni       1.32154264       0.77241300       2.17193474        4       1.00000000       0.04945883       0.20882946       0.03377992
Ni       3.84936834       0.77207811       2.22531960        4       1.00000000      -0.08323135       0.10993180       0.33147255
Ni       6.47629597       0.77813367       2.22361833        4       1.00000000      -0.02919233       0.16473314       0.29035834
Pt       9.07738122       0.75413628       2.21136194        4       0.00000000       0.00803099       0.18723821       0.04843904
Ni       2.56274735       2.92275524       2.24440568        4       1.00000000      -0.07319328      -0.16820514       0.31931148
Ni       5.18349459       2.93198506       2.23238180        4       1.00000000      -0.07057033      -0.12647952       0.22647383
Ni       7.78636936       2.99270265       2.21697654        4       1.00000000       0.08722003       0.02278169       0.14410750
Ni      10.38567647       2.96876642       2.22065608        4       1.00000000       0.01000324      -0.14124735       0.26385696
Pt       3.85733202       5.19563012       2.20932338        4       0.00000000      -0.04093002      -0.13716150      -0.07984207
Ni       6.53014972       5.20249026       2.20167227        4       1.00000000       0.10799127      -0.03411958       0.19520713
Ni       9.04363021       5.18032297       2.20122681        4       1.00000000      -0.10949489      -0.20666975       0.25904705
Pt      11.63822938       5.12902916       2.13315810        3       0.00000000      -0.14107982      -0.23994382       0.08370284
Ni       5.18770782       7.44216752       2.15377723        4       1.00000000      -0.10711541      -0.02604573       0.09193025
Ni       7.77688511       7.43982378       2.16507216        4       1.00000000       0.03338613       0.00726303       0.11663657
Pt      10.33632082       7.39297300       2.14741863        3       0.00000000      -0.05937308      -0.18975951      -0.24651462
Ni      12.96658588       7.44123668       2.11479966        3       1.00000000      -0.06130312       0.00959035      -0.00960439
Ni       0.02913083       1.55064499       4.34702033        6       1.00000000       0.13569663       0.17222892      -0.22813565
Ni       2.56595014       1.54354053       4.31286548        6       1.00000000      -0.05804606       0.11180060      -0.32659521
Ni       5.16925199       1.51611804       4.31840153        6       1.00000000      -0.07154395       0.06572921      -0.41289370
Ni       7.77467128       1.50600423       4.33461885        6       1.00000000       0.03433350      -0.09434666      -0.32165736
Ni       1.31169662       3.65535975       4.38462909        7       1.00000000       0.04599844      -0.13678814      -0.07981139
Ni       3.83042994       3.68144119       4.31812052        6       1.00000000      -0.12826359      -0.07209026      -0.29455337
Pt       6.53591824       3.64876758       4.28693133        6       0.00000000       0.01251521       0.00211433      -0.14273311
Ni       9.08418693       3.70043941       4.30845271        6       1.00000000       0.08396527      -0.12128955      -0.42404124
Ni       2.57826401       5.88030853       4.40358592        7       1.00000000       0.00071175      -0.19457365       0.03436062
Pt       5.17801526       5.91061017       4.29661237        6       0.00000000       0.12563908      -0.03953560      -0.07041386
Ni       7.79894782       5.89937479       4.32320526        6       1.00000000       0.01037036      -0.06321579      -0.32989458
Pt      10.36047587       5.83721945       4.41880850        7       0.00000000       0.07249424      -0.04609350       0.03541934
Pt       3.88438470       8.17466855       4.31486352        6       0.00000000       0.00035262       0.03281596       0.02727837
Pt       6.48696236       8.23862796       4.21418517        5       0.00000000      -0.03353549       0.25798446      -0.21097695
Pt       9.04361484       8.20312692       4.27974407        6       0.00000000      -0.10476747       0.09294692      -0.01388148
Pt      11.68708888       8.18844799       4.26195355        6       0.00000000       0.03319753      -0.03164272      -0.08836454
Pt      -0.00443158       0.00421831       6.60342928       10       0.00000000      -0.00796993       0.16236731       0.24618974
Pt       2.58253522       0.00191260       6.60314740       10       0.00000000       0.06879306       0.07480691       0.26080154
Pt       5.18843737      -0.04238744       6.49771067        9       0.00000000      -0.02454479       0.14706610       0.92601477
Pt       7.75939274      -0.03891579       6.60487998       10       0.00000000      -0.01567788       0.19311530       0.30751834
Ni       1.28282241       2.27854818       6.50867692        9       1.00000000      -0.08560296       0.14515842      -0.41001269
Pt       3.82483080       2.26224105       6.42558521        8       0.00000000      -0.00849953      -0.01778556       0.27102332
Ni       6.48928454       2.22741224       6.45394202        9       1.00000000      -0.01180596      -0.06042890       0.00268528
Pt       9.07745460       2.32265620       6.40822236        8       0.00000000       0.01101319      -0.05019208       0.35244007
Ni       2.53232685       4.46993092       6.50611273        9       1.00000000      -0.07350195       0.01149810      -0.45269879
Pt       5.15527849       4.43134915       6.47274655        9       0.00000000      -0.09066666      -0.09816552       0.68404836
Ni       7.81069658       4.45853832       6.44073910        8       1.00000000       0.05808520       0.10507675      -0.10271862
Ni      10.39370793       4.46520008       6.52323290        9       1.00000000       0.05542193      -0.08350674      -0.30006667
Ni       3.83997328       6.63860315       6.52999051        9       1.00000000      -0.05831084      -0.08961630      -0.24481170
Pt       6.53515021       6.63022742       6.48021922        9       0.00000000       0.12895651      -0.08281383       0.48368398
Ni       9.10192031       6.61675849       6.52151530        9       1.00000000       0.02889732      -0.09380899      -0.18413565
Ni      11.67786429       6.61706893       6.52568638        9       1.00000000       0.05017427       0.00720130      -0.27115177
