64
Lattice="10.319819671340136 0.0013446138591944794 -0.006890927294476322 5.161074305430412 8.867817842027552 -0.04033330977747871 -0.0056264185753614705 -0.03477819485607872 8.795400721949827" Properties=species:S:1:pos:R:3:tags:I:1:initial_magmoms:R:1:forces:R:3 unique_id=881b18f52a7c4417aefb222e3a522f46 stress="0.0002398079188198135 2.0729130887441148e-06 -1.1109836566454762e-05 2.0729130887441148e-06 0.0002500751026476289 1.3019099582803284e-05 -1.1109836566454762e-05 1.3019099582803284e-05 0.00023860394689465686" energy=-397.0719536130381 pbc="T T T"
Ni       0.00934926      -0.00876429       0.18647322        4       1.00000000       0.01106830       0.01269368       0.34737979
Ni       2.57830103       0.00380074       0.20748671        4       1.00000000       0.02253943       0.01112233       0.43021439
Ni       5.15463555      -0.01873984       0.16230743        4       1.00000000      -0.06518046       0.10266176       0.27978267
Ni       7.73260491      -0.06149533       0.18356988        4       1.00000000      -0.03784296      -0.13327756       0.40305440
Ni       1.29959509       2.22280957       0.09936543        4       1.00000000       0.02884230       0.03794073       0.24456751
Pt       3.80049101       2.22736400       0.17250845        4       0.00000000      -0.04112308       0.05465600       0.09803560
Pt       6.43237142       2.17396323       0.10248878        4       0.00000000       0.02613624      -0.02672951      -0.03933983
Pt       9.11689463       2.21894817       0.10437535        4       0.00000000       0.12743357      -0.05499867       0.09691973
Ni       2.57552454       4.46231226       0.05336676        4       1.00000000       0.05053119       0.05805957       0.00332074
Ni       5.12165544       4.45534468       0.17534116        4       1.00000000      -0.03433406      -0.00002795       0.36866736
Pt       7.77958731       4.48349597       0.08237982        4       0.00000000       0.04611355       0.05127334      -0.08600051
Ni      10.36658668       4.46269308       0.04833181        4       1.00000000       0.12442324       0.08119362       0.11479414
Ni       3.83244464       6.64494627       0.08331490        4       1.00000000      -0.10144150      -0.04830267       0.20169268
Pt       6.41528903       6.70254474       0.16560988        4       0.00000000      -0.08291913      -0.00159992       0.10652635
Ni       9.05461675       6.66978305       0.04152609        4       1.00000000      -0.02891162       0.04036679       0.00648895
Ni      11.63243364       6.64593430       0.03175941        4       1.00000000       0.10942733      -0.04826259       0.00871227
Ni       1.32018629       0.76896785       2.18126668        3       1.00000000       0.04838687       0.21078457      -0.03066155
Ni       3.84437344       0.76157741       2.22463149        3       1.00000000      -0.02673172       0.14617455       0.11937049
Ni       6.43445604       0.76199907       2.22109517        3       1.00000000      -0.06417612       0.14062509       0.12579126
Pt       9.03517101       0.73469209       2.22968945        3       0.00000000       0.01234265       0.22307098      -0.01189255
Ni       2.57326165       2.92455926       2.25618113        3       1.00000000       0.00829106      -0.07421622       0.15714940
Ni       5.13907750       2.95588271       2.23410115        3       1.00000000      -0.14425591      -0.02317052       0.04013690
Ni       7.74198915       2.96609780       2.22913778        3       1.00000000       0.12742351       0.00842637      -0.10301733
Ni      10.34751563       2.94845429       2.23736809        3       1.00000000       0.07549247      -0.01428984       0.12123488
Ni       3.87763822       5.14676343       2.15543348        3       1.00000000      -0.07220731      -0.12663491      -0.08866513
Ni       6.44950383       5.15056912       2.19645675        3       1.00000000       0.09315035      -0.02178244      -0.06118657
Ni       9.00845866       5.14473249       2.20952710        3       1.00000000      -0.00577987      -0.08920119       0.10774060
Pt      11.65771293       5.10520909       2.15147409        3       0.00000000       0.07830494      -0.09784328       0.05152833
Ni       5.13238893       7.36424120       2.16324684        3       1.00000000      -0.16326222      -0.07652120      -0.06360533
Ni       7.73937949       7.38296434       2.16821314        3       1.00000000       0.01878504      -0.09147269      -0.03405037
Pt      10.29906751       7.38915615       2.07884659        3       0.00000000       0.01655683      -0.14583887      -0.05481817
Ni      12.92142975       7.35234677       2.12484971        3       1.00000000       0.03775248      -0.16485694      -0.00778012
Ni       0.03397492       1.53909270       4.33404972        2       1.00000000       0.11345745       0.16523365      -0.12933177
Ni       2.55371975       1.53152382       4.30417446        2       1.00000000      -0.04377497       0.07993718      -0.21351489
Ni       5.14563558       1.49458048       4.31456522        2       1.00000000      -0.11241153       0.04815060      -0.19163790
Ni       7.74030783       1.48522897       4.33192620        2       1.00000000       0.03817943      -0.05652944      -0.10897511
Ni       1.31201698       3.63156021       4.37260240        2       1.00000000       0.05946599      -0.06883757      -0.07779567
Ni       3.81136047       3.66196155       4.29393498        2       1.00000000      -0.10691885      -0.06690296      -0.23606775
Pt       6.49215921       3.62209413       4.29103809        2       0.00000000      -0.03065652      -0.02134151       0.01091826
Ni       9.04227195       3.66731788       4.29420244        2       1.00000000       0.04937370      -0.11349669      -0.35921096
Ni       2.56694904       5.83295778       4.37328390        2       1.00000000      -0.04394059      -0.15401649      -0.04657736
Pt       5.11018941       5.83198758       4.23907744        2       0.00000000       0.01141671      -0.10460721       0.00375796
Ni       7.76142345       5.85482322       4.31048149        2       1.00000000       0.00505809      -0.03187437      -0.23970593
Pt      10.31497257       5.79112214       4.39804618        2       0.00000000       0.02594701      -0.05122865      -0.06076090
Pt       3.85664443       8.10842926       4.30552300        2       0.00000000      -0.07830846      -0.06635701       0.20661703
Pt       6.45117156       8.17125020       4.20018248        2       0.00000000      -0.01188702       0.06505663       0.00307995
Pt       9.01091731       8.14507557       4.27581903        2       0.00000000      -0.10871394       0.08151010       0.10664518
Pt      11.61653478       8.12787875       4.25826443        2       0.00000000       0.06371098       0.02048808       0.04229476
Pt      -0.00294831      -0.00068121       6.58083900        1       0.00000000       0.03036738       0.07095984       0.16275490
Pt       2.57200266      -0.00577210       6.59163709        1       0.00000000      -0.01957897       0.03057655       0.20832796
Pt       5.16622658      -0.06342636       6.58160395        1       0.00000000       0.02248557      -0.07275749       0.07531456
Pt       7.72517342      -0.05195911       6.59541533        1       0.00000000      -0.05367271      -0.01368801       0.21017304
Ni       1.27605765       2.26296087       6.47852955        1       1.00000000      -0.04720889       0.19542049      -0.22285478
Pt       3.81310753       2.24036250       6.40346646        1       0.00000000      -0.09462003       0.08616567      -0.24704347
Ni       6.45805829       2.20178106       6.42925277        1       1.00000000      -0.02507434      -0.01098626      -0.25382521
Pt       9.03647173       2.29657324       6.38478053        1       0.00000000      -0.01006498       0.12079515      -0.36637662
Ni       2.51921589       4.43894104       6.47812065        1       1.00000000      -0.12804018       0.06728296      -0.24618075
Pt       5.12762387       4.40675983       6.54805871        1       0.00000000      -0.03245310       0.05416065       0.17141748
Ni       7.77505505       4.41975971       6.41320822        1       1.00000000       0.09674946       0.09086336      -0.31106623
Ni      10.34839556       4.42368877       6.50021846        1       1.00000000       0.12959126       0.01907852      -0.06882647
Ni       3.81491442       6.58661604       6.50385703        1       1.00000000      -0.09737808      -0.08667675      -0.10775718
Pt       6.49841332       6.57897217       6.44441946        1       0.00000000       0.05398944       0.01381663      -0.30080947
Ni       9.05996293       6.56257869       6.49745199        1       1.00000000       0.09261404      -0.14141406      -0.14768832
Ni      11.61874781       6.55930060       6.50514802        1       1.00000000       0.05746129      -0.08880399      -0.11738533
