64
Lattice="10.295866435766335 -0.008809548534957112 0.023546641683019648 5.140303925056021 8.849853451603837 0.023321301307860125 0.0192257524265158 0.010887540395688157 8.766935043304247" Properties=species:S:1:pos:R:3:tags:I:1:initial_magmoms:R:1:forces:R:3 unique_id=e45ae49017d1458aabbc17527fdb65a5 stress="0.00017708395651722109 2.4643850943015996e-06 -6.985817044850293e-06 2.4643850943015996e-06 0.00017976465662657148 -5.0229450085308944e-06 -6.985817044850293e-06 -5.0229450085308944e-06 0.00017444670367960935" energy=-396.23460858843526 pbc="T T T"
Ni       0.01482660       0.01810979       0.18546254        4       1.00000000       0.09757440       0.07058564       0.28822970
Ni       2.57033020      -0.00101304       0.22022558        4       1.00000000       0.02437440      -0.00261902       0.36526395
Ni       5.14923849      -0.00910541       0.16804700        4       1.00000000       0.00908535       0.13604462       0.20773105
Ni       7.72906042      -0.00643722       0.16376174        4       1.00000000       0.02853498       0.11417719       0.26012021
Ni       1.25547343       2.22309189       0.19752525        4       1.00000000      -0.11361694       0.06055700       0.28039382
Pt       3.81645937       2.22460470       0.19717503        4       0.00000000      -0.03592469       0.05159646       0.17981204
Pt       6.49064102       2.22646636       0.12529819        4       0.00000000       0.11222889       0.04869279      -0.04602526
Ni       9.04262003       2.24789636       0.16829291        4       1.00000000       0.14470080       0.19259867       0.11737993
Ni       2.54907309       4.44540971       0.06862585        4       1.00000000      -0.11594447       0.02629792      -0.04800821
Ni       5.15437270       4.43506301       0.08512779        4       1.00000000       0.12356310      -0.04728656       0.05830340
Ni       7.75639115       4.42881128       0.13132664        4       1.00000000       0.15906877       0.03206719       0.18723819
Ni      10.27617493       4.41013087       0.10727502        4       1.00000000      -0.09102096      -0.03286859       0.04631551
Ni       3.84795375       6.63972873       0.07330226        4       1.00000000       0.03382519       0.02832189      -0.01521971
Pt       6.43544269       6.63016132       0.12758710        4       0.00000000       0.00314175      -0.01699085      -0.14233486
Ni       9.00437216       6.61484330       0.18342970        4       1.00000000      -0.08619571      -0.11850954       0.13783877
Ni      11.57806248       6.61995336       0.08036800        4       1.00000000      -0.02480747      -0.07040965      -0.12187809
Ni       1.30637865       0.75935224       2.16268745        3       1.00000000      -0.00109117       0.07692270       0.00949551
Ni       3.85965404       0.74696008       2.21480594        3       1.00000000       0.06362845       0.02570500       0.03132434
Ni       6.41724211       0.77783516       2.25622627        3       1.00000000      -0.00628444       0.07536527       0.15657463
Pt       9.04210039       0.82701798       2.20688934        3       0.00000000      -0.08964897       0.06542847       0.08839923
Ni       2.54272925       2.93465905       2.21377708        3       1.00000000      -0.09146680       0.04562378      -0.05823440
Ni       5.17897868       2.92160587       2.25985743        3       1.00000000       0.04401368      -0.11891370       0.06604909
Ni       7.74022705       2.99170005       2.23417701        3       1.00000000       0.10237208       0.10971809       0.00230615
Ni      10.28611223       2.94923564       2.23441011        3       1.00000000      -0.05438153       0.06786034       0.12657183
Pt       3.91190691       5.09883225       2.17376949        3       0.00000000       0.03972960      -0.10031104      -0.12383465
Ni       6.48857913       5.14449709       2.21873897        3       1.00000000       0.09905356      -0.02969490      -0.00364035
Ni       8.96156089       5.12102095       2.23250338        3       1.00000000      -0.07609108      -0.07878383       0.06906108
Pt      11.52509780       5.07201713       2.24050614        3       0.00000000      -0.03760927      -0.03899601      -0.02315707
Ni       5.17585193       7.38190535       2.19929233        3       1.00000000      -0.03492961      -0.05890028      -0.04851544
Ni       7.70266824       7.35910205       2.21297008        3       1.00000000      -0.00130431      -0.13305800       0.01735479
Pt      10.24837435       7.37510944       2.17687351        3       0.00000000      -0.04627246      -0.07392890       0.01965461
Pt      12.86169591       7.37565444       2.19604303        3       0.00000000       0.02561091      -0.05127556      -0.05341874
Ni      -0.01321467       1.54577115       4.33673720        2       1.00000000      -0.01422598       0.17369832       0.00437734
Pt       2.57691297       1.56582962       4.24872147        2       0.00000000       0.00434071       0.08871128       0.13264425
Ni       5.20403783       1.47817951       4.32103030        2       1.00000000       0.03385044      -0.06598573      -0.13822074
Ni       7.71336339       1.48289555       4.35339481        2       1.00000000       0.00873676      -0.06735529      -0.09909841
Ni       1.26416761       3.74144861       4.37001168        2       1.00000000      -0.06789777       0.01166795      -0.01409036
Ni       3.84528712       3.71967937       4.34870316        2       1.00000000      -0.08171033      -0.00882599      -0.16569735
Pt       6.49002257       3.64234642       4.35186645        2       0.00000000       0.05435088      -0.01459658      -0.10059233
Ni       9.04791129       3.71628892       4.34732979        2       1.00000000       0.11976615       0.05888290      -0.21177440
Ni       2.52448056       5.86649150       4.42607185        2       1.00000000      -0.11258744      -0.04503293      -0.10038737
Pt       5.13104930       5.84954196       4.41641257        2       0.00000000       0.00710672       0.00325195      -0.13695640
Ni       7.76296449       5.84875470       4.35706530        2       1.00000000       0.11432244      -0.09230767      -0.21376125
Ni      10.32440435       5.84346810       4.40627144        2       1.00000000      -0.00955893      -0.04482956      -0.08166396
Pt       3.80594909       8.12179105       4.35532100        2       0.00000000      -0.00251832      -0.00394541       0.11614762
Pt       6.44476216       8.10367872       4.28584563        2       0.00000000      -0.03843249       0.05946962       0.00486926
Pt       9.05845111       8.08504911       4.33540395        2       0.00000000      -0.01052846      -0.07034671       0.08877143
Ni      11.58298411       8.09862108       4.37954405        2       1.00000000      -0.02637486      -0.06969305      -0.10618062
Pt      -0.00176653      -0.05519353       6.56944600        1       0.00000000       0.01436031      -0.08523989       0.14207455
Pt       2.58648003      -0.02675937       6.58630376        1       0.00000000      -0.07940232      -0.00307784       0.22582262
Pt       5.18988125      -0.00776965       6.53124059        1       0.00000000       0.04092681      -0.06536980       0.06134006
Pt       7.70750397      -0.04562542       6.56037656        1       0.00000000      -0.06007556      -0.12810274       0.09163901
Pt       1.28649935       2.32952041       6.52868968        1       0.00000000       0.03484324       0.05563739       0.17268713
Pt       3.93783613       2.33173788       6.44680150        1       0.00000000       0.03156854       0.18050214      -0.25737640
Ni       6.45002709       2.24737402       6.44808197        1       1.00000000      -0.02787164      -0.01535073      -0.21074581
Pt       8.95804424       2.30847179       6.50396840        1       0.00000000      -0.04260559       0.09896780      -0.02370827
Ni       2.58282573       4.50775144       6.48438674        1       1.00000000       0.02685784       0.11388072      -0.24570219
Ni       5.17256707       4.46510449       6.53341203        1       1.00000000       0.07275167       0.10357319      -0.07330326
Ni       7.68691113       4.43036367       6.51802434        1       1.00000000      -0.23909132      -0.00459572      -0.11179181
Ni      10.33538990       4.45302825       6.50524169        1       1.00000000       0.14198172       0.01111580      -0.22595785
Ni       3.84035355       6.57034169       6.52599264        1       1.00000000      -0.09617877      -0.13626792      -0.12814055
Ni       6.42701054       6.57389765       6.46618823        1       1.00000000       0.03747881      -0.07877797      -0.23733014
Pt       9.02889019       6.50026481       6.55172083        1       0.00000000      -0.03966934      -0.11291389       0.07796614
Ni      11.61908540       6.56920514       6.50859311        1       1.00000000       0.00157004      -0.10176024      -0.26701101
