64
Lattice="10.129209153005489 -0.0033426602930422054 -0.0005795616808584182 5.061709747772746 8.714538217655463 -0.05520412337116046 -0.00047321013085763685 -0.05177373865050781 8.65925423278294" Properties=species:S:1:pos:R:3:tags:I:1:initial_magmoms:R:1:forces:R:3 unique_id=60b7d990cf2b45c582cf1ef057d3efdf stress="-6.497447665330253e-05 -1.1998560654055987e-06 -1.244168936249158e-06 -1.1998560654055987e-06 -5.428454300359514e-05 1.3109443093417256e-05 -1.244168936249158e-06 1.3109443093417256e-05 -2.4615276240022577e-05" energy=-389.16504476325144 pbc="T T T"
Ni       0.04349163      -0.05638252       0.18265878        4       1.00000000       0.07464481      -0.11289741       0.27865253
Ni       2.50185392      -0.04743590       0.12069090        4       1.00000000      -0.04477722      -0.11439592       0.17304884
Ni       5.05553872      -0.03203319       0.16538845        4       1.00000000      -0.06057170       0.00422573       0.28813001
Ni       7.58963850      -0.07134001       0.18259064        4       1.00000000      -0.03208120      -0.06838296       0.31799044
Ni       1.26941078       2.17779737       0.09607041        4       1.00000000      -0.00240335      -0.00222653       0.22261890
Pt       3.72895674       2.17994508       0.15640741        4       0.00000000      -0.08618653      -0.00531683       0.23532679
Pt       6.32652101       2.19008883       0.08790888        4       0.00000000       0.01315568       0.03900999      -0.01081221
Pt       8.92971755       2.22268218       0.10407287        4       0.00000000       0.07737779       0.01409766       0.22817258
Ni       2.52958224       4.39079158       0.03746325        4       1.00000000       0.04689067       0.06684070       0.01166788
Ni       5.06217354       4.42047737       0.07941322        4       1.00000000      -0.01394597       0.07954444       0.15132257
Ni       7.58871120       4.42203709       0.08387161        4       1.00000000      -0.02987947       0.10351149       0.17226783
Ni      10.14742753       4.39495447       0.04658575        4       1.00000000       0.04139211       0.15066827       0.05032106
Ni       3.80411034       6.51913606       0.06548259        4       1.00000000       0.03825182      -0.03441038       0.12491660
Ni       6.32395055       6.52688596       0.06832040        4       1.00000000      -0.03529658      -0.04436494       0.03749316
Ni       8.82806832       6.51223811       0.12494685        4       1.00000000      -0.11398870      -0.03953821       0.21765325
Ni      11.41812913       6.52155830       0.02283888        4       1.00000000       0.06202785      -0.02669539      -0.03216993
Ni       1.30597806       0.71334575       2.18106936        3       1.00000000       0.04749346      -0.02543736       0.06765502
Ni       3.76450830       0.73344121       2.20154129        3       1.00000000      -0.04546360       0.06109929       0.00206523
Ni       6.31536512       0.73821574       2.21549899        3       1.00000000      -0.03172069       0.09278773       0.11182963
Pt       8.87839422       0.70564433       2.20861908        3       0.00000000       0.03995351       0.12116142      -0.09518638
Ni       2.52265603       2.86881746       2.23360714        3       1.00000000       0.05722035      -0.07391434       0.08080683
Ni       5.04592282       2.91817535       2.20943500        3       1.00000000      -0.12112084       0.01984659      -0.08057525
Ni       7.59323867       2.94025148       2.19984664        3       1.00000000       0.07198448       0.02219770      -0.07310475
Ni      10.15852096       2.89175572       2.22206780        3       1.00000000       0.02770983      -0.05855768       0.08140238
Ni       3.84026770       5.06741170       2.14700486        3       1.00000000       0.06505694      -0.01990369       0.05713200
Ni       6.32675343       5.09129326       2.12330159        3       1.00000000       0.00098572       0.01905315      -0.01325930
Ni       8.81601793       5.04392767       2.15239072        3       1.00000000      -0.01205478      -0.00525140       0.07430070
Pt      11.42958352       5.01624186       2.16503515        3       0.00000000       0.08783174      -0.10956187       0.01537670
Ni       5.10152763       7.19392066       2.10544233        3       1.00000000       0.01830419      -0.11240491       0.03611864
Ni       7.53394348       7.23489419       2.10628544        3       1.00000000      -0.06231574      -0.05510155       0.01142496
Pt      10.12888648       7.25592321       2.10739746        3       0.00000000      -0.00612030      -0.02316117      -0.00286343
Ni      12.68104790       7.21341333       2.10644219        3       1.00000000       0.10067166      -0.11706724       0.03510547
Ni       0.06251291       1.46177289       4.26171326        2       1.00000000       0.06994600      -0.00963402      -0.02284194
Ni       2.48071238       1.46011188       4.24300328        2       1.00000000      -0.00987130       0.06917485      -0.06435644
Ni       5.07015154       1.43656847       4.23218079        2       1.00000000      -0.11634343       0.02032069      -0.10746822
Ni       7.56749543       1.42695199       4.26232893        2       1.00000000      -0.02745986      -0.04282795      -0.02725612
Ni       1.27031044       3.59630809       4.31005407        2       1.00000000       0.01792148      -0.01270532       0.00751084
Ni       3.76087875       3.64799745       4.22864196        2       1.00000000      -0.04628378       0.06134837      -0.14879856
Pt       6.32254294       3.62778811       4.25666409        2       0.00000000      -0.00257342      -0.01310713      -0.02271537
Ni       8.89631998       3.65221066       4.21787475        2       1.00000000       0.03759281       0.06535099      -0.14705640
Ni       2.52380988       5.73544090       4.30004770        2       1.00000000      -0.01136338      -0.07164406      -0.04723633
Ni       5.06651711       5.76669562       4.26734924        2       1.00000000       0.02752447      -0.06950976      -0.14309735
Ni       7.57298861       5.77219425       4.23190632        2       1.00000000      -0.00629303       0.04234367      -0.18401262
Ni      10.14794974       5.73830320       4.28430177        2       1.00000000      -0.02230144       0.01124393      -0.01646682
Pt       3.81071914       7.88161938       4.21622028        2       0.00000000      -0.00758617      -0.07051522       0.14649980
Ni       6.33216862       7.94441980       4.20901825        2       1.00000000      -0.10999243      -0.05027942      -0.16308729
Pt       8.79540224       7.98073909       4.20807874        2       0.00000000      -0.04506153      -0.00484704       0.14136925
Ni      11.39082535       7.93944861       4.22208706        2       1.00000000       0.01485957      -0.03776897       0.00971617
Pt       0.09832396      -0.06712545       6.45360846        1       0.00000000       0.18280876      -0.01383629       0.12637964
Ni       2.52612309      -0.03459724       6.41739389        1       1.00000000       0.01455310       0.05108307      -0.07986808
Pt       5.05013518      -0.02987728       6.44656207        1       0.00000000       0.07707069       0.01956724       0.01561633
Pt       7.60294340      -0.08520731       6.45367421        1       0.00000000      -0.03635758      -0.07441947       0.12715689
Ni       1.27415840       2.18933411       6.36910450        1       1.00000000       0.01501343       0.11460199      -0.15025935
Pt       3.75315139       2.22735155       6.29612790        1       0.00000000      -0.01681020       0.20531786      -0.36226804
Ni       6.32130345       2.18426422       6.31550305        1       1.00000000      -0.04488831       0.00520776      -0.25933570
Pt       8.87726463       2.23337837       6.27635810        1       0.00000000      -0.00050318       0.16516538      -0.52191512
Ni       2.50566271       4.36899915       6.35543382        1       1.00000000      -0.01313554       0.08724569      -0.17555538
Ni       5.06182646       4.37475557       6.38221397        1       1.00000000      -0.05858499       0.07707484      -0.08280681
Ni       7.54498545       4.32811887       6.38694251        1       1.00000000      -0.14832644      -0.03447236      -0.07262259
Ni      10.19223793       4.32931340       6.35517657        1       1.00000000       0.14339428       0.00332552      -0.19887066
Ni       3.79831765       6.41646219       6.37565782        1       1.00000000       0.02219805      -0.11186553      -0.04204461
Ni       6.30873946       6.44762675       6.36024581        1       1.00000000      -0.04147675      -0.06349734      -0.18432448
Pt       8.82584144       6.40694843       6.40611106        1       0.00000000      -0.03005899      -0.09470804       0.08690002
Ni      11.41532194       6.42788710       6.35119649        1       1.00000000      -0.00063682       0.03181169      -0.21171340
