64
Lattice="9.879889829497364 0.0070324987545125756 0.004896595594994885 4.946035237322173 8.568570639710508 0.0227711108289621 0.0 0.0 21.23944399058424" Properties=species:S:1:pos:R:3:tags:I:1:initial_magmoms:R:1:forces:R:3 unique_id=215981f1a6ab487ba46bb90656263dcc energy=-358.9659916020776 stress="0.0020695124821384966 0.00010445858547529202 8.134854246334285e-05 0.00010445858547529202 0.0020824772026088977 0.0002597851078206828 8.134854246334285e-05 0.0002597851078206828 -0.003926608129969491" pbc="T T T"
Ni      -0.06491436      -0.00751377       0.04937141        0       1.00000000       0.02498833      -0.00802375       0.05965631
Pt       2.43775265      -0.05793350       0.00576631        0       0.00000000       0.07890511       0.07611635      -0.27615598
Ni       5.00516823      -0.02752819       0.05789716        1       1.00000000      -0.09384499       0.03165501       0.03526399
Ni       7.40850037      -0.00177602       0.04907097        0       1.00000000       0.01435909      -0.00078047       0.10889539
Ni       1.20166375       2.16807417       0.01704952        0       1.00000000       0.13984800      -0.09971395      -0.31690536
Pt       3.75519453       2.20351900       0.00000000        0       0.00000000      -0.06283081      -0.07398343      -0.30854959
Ni       6.23816625       2.14581356       0.06250369        1       1.00000000      -0.03779931       0.01043037       0.04228859
Ni       8.61466505       2.13597254       0.00404524        0       1.00000000      -0.03400782      -0.02142484      -0.04609019
Ni       2.44836292       4.34879893       0.08149957        1       1.00000000       0.10048290      -0.00463513      -0.09866444
Ni       4.97494734       4.33902713       0.17924311        2       1.00000000      -0.04903377      -0.05906304      -0.46514108
Ni       7.41957779       4.28903165       0.07734977        1       1.00000000       0.02558019       0.00442276       0.12974569
Ni       9.88035437       4.32641030       0.03900587        0       1.00000000      -0.05218448       0.07980740      -0.15332625
Ni       3.70006585       6.43565458       0.07127558        1       1.00000000      -0.01066592       0.00727287       0.11470913
Ni       6.15084465       6.38006953       0.08091372        1       1.00000000       0.03693749       0.05548119       0.07210328
Ni       8.67840761       6.38558975       0.18344512        2       1.00000000      -0.00289767       0.04967733      -0.48782629
Ni      11.13148572       6.44436973       0.06801104        1       1.00000000      -0.02421076       0.01903454       0.09353705
Ni       1.23090994       0.67963150       2.11680525        3       1.00000000       0.01138557      -0.04874763      -0.00127952
Ni       3.73353224       0.70730537       2.12251847        3       1.00000000       0.00683277      -0.02131537       0.01369451
Ni       6.18190895       0.71667524       2.09059126        3       1.00000000      -0.02124718      -0.01086943       0.02073811
Ni       8.60962879       0.67744916       2.09010506        3       1.00000000      -0.02230350      -0.04238904       0.03762890
Ni       2.51170741       2.87027043       2.08913446        3       1.00000000       0.04023311      -0.01745679       0.01728470
Ni       4.97220678       2.87040085       2.13269063        3       1.00000000      -0.03142563      -0.04548198       0.04288633
Ni       7.36043518       2.86191389       2.09445502        3       1.00000000      -0.06295085      -0.01572789       0.10129035
Pt       9.83943294       2.85115308       2.05569874        3       0.00000000       0.04201525      -0.01180290      -0.06263954
Ni       3.71059795       5.02358143       2.10675044        3       1.00000000      -0.00902436       0.03200625       0.06917568
Ni       6.18538969       5.01200167       2.11925045        3       1.00000000       0.01079425       0.03796628       0.16137931
Ni       8.62273193       5.03364722       2.12156321        3       1.00000000      -0.02328857       0.01107235       0.16283253
Ni      11.13217171       5.06849750       2.07524057        3       1.00000000      -0.02914169       0.03051072       0.08100305
Ni       4.93823605       7.13727708       2.09907198        3       1.00000000      -0.00703652      -0.02282626       0.04931793
Ni       7.40807716       7.12199729       2.15211610        4       1.00000000      -0.01704291       0.05175048       0.08846845
Ni       9.90138647       7.16072401       2.11510250        3       1.00000000       0.01263331       0.06953511       0.05757815
Ni      12.35639656       7.15676023       2.10432104        3       1.00000000       0.00174880       0.01432535       0.03557252
Ni      -0.01975990       1.38221657       4.16822774        6       1.00000000       0.01888341      -0.02642860      -0.08360825
Ni       2.48738232       1.40153741       4.10621573        5       1.00000000       0.00472185      -0.01812434      -0.21501989
Ni       4.96300530       1.43077779       4.12820456        5       1.00000000       0.03258297      -0.02925032      -0.10465968
Ni       7.40864044       1.43026045       4.14167382        5       1.00000000      -0.01951012      -0.02087518      -0.04812261
Pt       1.26530314       3.59485705       4.18521552        6       0.00000000       0.00136801       0.00331595       0.02631900
Ni       3.75267481       3.58133115       4.10532746        5       1.00000000       0.07577980       0.04384359      -0.09922102
Ni       6.19414733       3.56736148       4.12442969        5       1.00000000      -0.01902084      -0.00985674      -0.02538573
Ni       8.59668251       3.58673890       4.17792015        6       1.00000000      -0.00779917       0.01494070      -0.00638963
Ni       2.50580770       5.77257853       4.15011589        6       1.00000000       0.02136583       0.04403029      -0.03427832
Ni       4.94512153       5.74961523       4.12076884        5       1.00000000       0.00695089       0.00618872      -0.01702406
Ni       7.39042999       5.71852949       4.13689565        5       1.00000000      -0.01503782       0.02721652       0.03231517
Ni       9.88476441       5.76510401       4.12174437        5       1.00000000      -0.01327388       0.05482982      -0.01783430
Ni       3.70821981       7.86615897       4.15485820        6       1.00000000      -0.01763815      -0.02235723      -0.04963496
Ni       6.16734646       7.85523000       4.14737692        5       1.00000000      -0.01325730      -0.06001072      -0.05144253
Ni       8.66242321       7.88271266       4.12578680        5       1.00000000       0.02476301      -0.00423063      -0.10225947
Ni      11.13197441       7.87931724       4.15912954        6       1.00000000       0.01756277       0.00397506      -0.02571348
Ni      -0.01234491       0.01465058       6.17145820        8       1.00000000      -0.00223774       0.01488715      -0.09261848
Ni       2.44558039       0.04746007       6.05723023        7       1.00000000       0.00052389      -0.08520537       0.48302875
Ni       4.97373891       0.05033343       6.16021931        8       1.00000000      -0.03282792      -0.06666126      -0.06811999
Ni       7.41925211       0.02116684       6.17510745        8       1.00000000       0.02137969       0.00027586      -0.15609432
Ni       1.22655903       2.11593941       6.19613822        8       1.00000000       0.02952648      -0.09111085       0.16716884
Ni       3.68494535       2.11732076       6.05421669        7       1.00000000       0.03910021       0.07278929       0.47327471
Ni       6.20762595       2.11310452       6.17139614        8       1.00000000      -0.05892153       0.04259523      -0.10199057
Ni       8.64904219       2.13890858       6.16843248        8       1.00000000      -0.00994696      -0.06422222       0.01925341
Ni       2.45498817       4.31411132       6.23370963        8       1.00000000       0.12311370       0.01362304       0.16985659
Pt       4.94618497       4.29812203       6.23185083        8       0.00000000      -0.05871829      -0.06000022       0.19332194
Ni       7.43789484       4.24874509       6.19176896        8       1.00000000      -0.00233758       0.02944574       0.03558188
Ni       9.88188568       4.26577115       6.22420789        8       1.00000000      -0.09085176       0.08017024       0.25406144
Ni       3.69420771       6.48863917       6.18993871        8       1.00000000       0.02242978      -0.05631641      -0.07719118
Ni       6.14860927       6.48971607       6.18072542        8       1.00000000       0.03652750      -0.00058384      -0.00492982
Pt       8.65657625       6.44772018       6.23944399        8       0.00000000       0.00478374       0.05797473       0.22300666
Ni      11.16839399       6.45570916       6.19025851        8       1.00000000      -0.07579190       0.02830952      -0.07412179
