64
Lattice="10.491758739307441 0.019163083118286958 -0.012655747405431612 5.262475086448991 9.062067134930155 -0.009642275105393828 0.0 0.0 21.791471348482865" Properties=species:S:1:pos:R:3:tags:I:1:initial_magmoms:R:1:forces:R:3 unique_id=7f1d97869b134363a2bc2775552f9fd8 energy=-383.18563147451476 stress="0.0049839823294530634 8.052279161354885e-05 -6.697362441602907e-05 8.052279161354885e-05 0.004988190550905087 -0.00022967348602917262 -6.697362441602907e-05 -0.00022967348602917262 -0.0016450620055241897" pbc="T T T"
Ni       0.02546909       0.05878766       0.09106528        1       1.00000000       0.11151579       0.02824755       0.31986237
Ni       2.59418655       0.06922750       0.19882525        2       1.00000000       0.00403877       0.11881148      -0.10966603
Pt       5.21786683       0.12028592       0.03758932        0       0.00000000      -0.17166890       0.08867456      -0.03753657
Ni       7.88101149       0.05460577       0.14681189        1       1.00000000      -0.05155816       0.01314311      -0.11755474
Ni       1.33449955       2.22768751       0.12429104        1       1.00000000       0.03329265      -0.05766074       0.56464849
Ni       3.88400528       2.27529062       0.19674203        2       1.00000000      -0.13938675      -0.00674877       0.05815979
Ni       6.59671597       2.27694731       0.07475194        1       1.00000000       0.06696484       0.04810183       0.35512155
Ni       9.18797871       2.25703953       0.06869146        1       1.00000000      -0.01490029       0.00190341       0.32621376
Ni       2.63973546       4.46864658       0.09882307        1       1.00000000       0.09873087      -0.16323637       0.23681681
Pt       5.25158179       4.47187512       0.15004236        2       0.00000000       0.00882931       0.05236812      -0.43358445
Ni       7.86916425       4.50398751       0.15007932        2       1.00000000      -0.05712107      -0.05247631      -0.12830327
Pt      10.50531849       4.40227734       0.02321125        0       0.00000000      -0.02808732      -0.13903783      -0.05335450
Pt       3.94323843       6.81004414       0.13133228        1       0.00000000       0.08831366      -0.13640657      -0.95827067
Pt       6.57438189       6.83038973       0.02913558        0       0.00000000      -0.04453908      -0.09062595      -0.26323228
Pt       9.18121344       6.80304685       0.00000000        0       0.00000000       0.01777594       0.01900479      -0.36865908
Pt      11.82334127       6.80321201       0.00083959        0       0.00000000      -0.09819847       0.01108720      -0.28358379
Ni       1.33616056       0.82577674       2.23096370        3       1.00000000       0.06576934       0.15564176       0.00213487
Ni       3.88248936       0.81035634       2.25012291        4       1.00000000      -0.03767077       0.05575017       0.09180734
Pt       6.55270628       0.80493523       2.29240225        4       0.00000000      -0.03468975       0.08014097       0.20752438
Pt       9.26301640       0.83482793       2.18677305        3       0.00000000       0.09181735       0.07854799       0.00138673
Ni       2.61463350       2.97681833       2.24365621        3       1.00000000      -0.08532607      -0.11124727      -0.05903155
Pt       5.16229627       3.04422358       2.34061412        4       0.00000000      -0.03414461       0.04624412       0.11574329
Pt       7.85923700       3.05112950       2.28998727        4       0.00000000      -0.02030025       0.08809548       0.06695391
Ni      10.53616860       3.00008079       2.26246592        4       1.00000000       0.12500860      -0.01549110       0.08128199
Ni       3.93966730       5.24948831       2.28478753        4       1.00000000      -0.05588001      -0.04394117       0.14571369
Ni       6.55488744       5.27754076       2.27753628        4       1.00000000       0.00412569       0.05430733       0.15826053
Pt       9.18460314       5.25225565       2.28242907        4       0.00000000       0.05741243      -0.03825467       0.08403911
Pt      11.87374769       5.18097641       2.23604269        3       0.00000000       0.08031966      -0.12573441      -0.00224576
Pt       5.28205409       7.55158702       2.29076301        4       0.00000000       0.07106084       0.04594198       0.03079952
Pt       7.87632287       7.63041988       2.27552217        4       0.00000000       0.03934973       0.02735771       0.09998996
Pt      10.49625762       7.58001494       2.31270589        4       0.00000000       0.00142744      -0.01333904       0.14700630
Pt      13.11958281       7.56402386       2.29697367        4       0.00000000       0.02451574      -0.05073011       0.10773485
Pt      -0.06653003       1.57035515       4.55926742        7       0.00000000      -0.03709040       0.03613534       0.00083225
Pt       2.64340685       1.55092731       4.40979897        5       0.00000000       0.01928623       0.04275310      -0.25006888
Pt       5.32878324       1.56268411       4.55283081        7       0.00000000       0.08255294       0.10950537       0.11893278
Ni       7.85562053       1.57543766       4.52280997        6       1.00000000       0.01743541       0.16693792      -0.04364700
Pt       1.30374360       3.75501886       4.55500006        7       0.00000000       0.01630861      -0.01990204      -0.04370061
Ni       3.93463085       3.77186696       4.48248254        6       1.00000000      -0.00899198      -0.04227253      -0.11861545
Ni       6.59840696       3.74430863       4.48717794        6       1.00000000       0.12334304      -0.02027817      -0.12585878
Ni       9.15519350       3.75732610       4.50686429        6       1.00000000      -0.11087151      -0.02104080      -0.13145711
Pt       2.63055264       5.99825534       4.51741548        6       0.00000000       0.03444226      -0.05755692      -0.10615400
Pt       5.25589248       5.94978595       4.41968044        5       0.00000000       0.02367001      -0.16806055      -0.19431467
Pt       7.86712420       5.97720326       4.50127513        6       0.00000000      -0.08147230      -0.02623494      -0.19068520
Pt      10.49834247       6.03523795       4.58464470        7       0.00000000      -0.01505109      -0.04718272      -0.14804442
Pt       3.88207511       8.37526858       4.50305640        6       0.00000000      -0.09745528       0.10927515      -0.07174409
Pt       6.54261878       8.32804380       4.52985755        6       0.00000000      -0.09908685      -0.01617494      -0.01052895
Pt       9.23701543       8.34243117       4.54163271        6       0.00000000      -0.00479360       0.02966170      -0.09927636
Ni      11.81807981       8.33724915       4.53275139        6       1.00000000       0.01278202       0.05125508      -0.12762371
Ni      -0.01362624       0.03014412       6.73085729        9       1.00000000      -0.08305357       0.02551325      -0.19165150
Pt       2.57895383      -0.01857867       6.79147135       10       0.00000000       0.02514316       0.01223813       0.14546206
Ni       5.26026110      -0.00873980       6.62421097        8       1.00000000      -0.03493503      -0.05711236       0.23674639
Pt       7.81033634       0.09684773       6.71941061        9       0.00000000      -0.02258507      -0.08636574      -0.04628486
Ni       1.27236134       2.27833540       6.73103565        9       1.00000000      -0.01589099      -0.02309742      -0.35325898
Pt       3.90140301       2.26686511       6.75934442       10       0.00000000      -0.08013284      -0.02427897       0.00867447
Ni       6.57967571       2.27326222       6.69342299        9       1.00000000       0.02490620       0.10190351      -0.16896291
Ni       9.18608963       2.27804207       6.69362439        9       1.00000000       0.04880937       0.01499689      -0.32994340
Ni       2.58921898       4.51980021       6.70623673        9       1.00000000       0.05755255       0.01678777      -0.23903572
Pt       5.26856611       4.49608597       6.63287575        8       0.00000000       0.02640563      -0.05609121       0.44871919
Pt       7.94132220       4.47539467       6.71769558        9       0.00000000       0.08837485      -0.00437727      -0.07390031
Ni      10.50517654       4.52264885       6.62123428        8       1.00000000      -0.05570593      -0.11013650       0.12601379
Pt       3.93978415       6.81182209       6.67063939        9       0.00000000      -0.00300150       0.07071628       0.87048557
Ni       6.57077190       6.79217090       6.62061895        8       1.00000000      -0.00405239      -0.09792700       0.19066918
Ni       9.19841702       6.79676209       6.61851984        8       1.00000000      -0.03062365      -0.01205848       0.33739023
Ni      11.78630369       6.81272815       6.60142064        8       1.00000000       0.06698454       0.13402983       0.19465443
