64
Lattice="10.427309709487991 0.005823134944464369 0.01785645854641178 5.218697837535565 8.921245330177783 -0.044851232697145776 0.0 0.0 21.69210255248563" Properties=species:S:1:pos:R:3:tags:I:1:initial_magmoms:R:1:forces:R:3 unique_id=c245130b41cb49bdbe1f09640c18d49f energy=-380.3012812811542 stress="0.005762689709317959 3.274519648978545e-05 0.0003994926156202253 3.274519648978545e-05 0.00511015613261981 -0.0002274200223932585 0.0003994926156202253 -0.0002274200223932585 -0.0035966996101962235" pbc="T T T"
Ni      -0.01382044      -0.02246458       0.20542406        2       1.00000000       0.04081712       0.03915587      -0.20457096
Ni       2.64023969      -0.01650316       0.13206139        1       1.00000000       0.02130922       0.03007262       0.32943056
Ni       5.21543701      -0.03226897       0.18058601        2       1.00000000       0.02511714       0.06845081      -0.40905540
Ni       7.81267998      -0.07720867       0.22444226        2       1.00000000      -0.09169441      -0.01631599      -0.19857022
Pt       1.31343453       2.22911486       0.17740298        2       0.00000000       0.01771126      -0.01610472      -0.26855908
Pt       3.89601049       2.16757325       0.09771777        1       0.00000000       0.01238571       0.06240229       0.09916486
Pt       6.52580865       2.13360779       0.09448359        1       0.00000000       0.05717614       0.01856527      -0.02281572
Pt       9.15423990       2.21874066       0.12614289        1       0.00000000       0.01508814       0.09663785      -0.52918187
Ni       2.59630697       4.49725244       0.10949860        1       1.00000000      -0.01148213      -0.03522530      -0.14439171
Pt       5.18517151       4.48837595       0.13131615        1       0.00000000       0.24425558      -0.07295759      -0.86522263
Pt       7.87450470       4.51778031       0.00000000        0       0.00000000      -0.20091084      -0.04613519      -0.17608443
Ni      10.46296787       4.51518271       0.06384889        1       1.00000000       0.02795362      -0.04793102       0.11704674
Ni       3.86566684       6.73452475       0.07874799        1       1.00000000       0.02341133       0.00325807       0.35323104
Pt       6.52779638       6.79750860       0.17409144        2       0.00000000       0.00711704      -0.11331557      -0.51277813
Ni       9.16124255       6.73097117       0.04341053        0       1.00000000      -0.05259297       0.02853758       0.18707533
Ni      11.76036514       6.69554432       0.04876368        0       1.00000000       0.07767941       0.03358776       0.33012641
Ni       1.34248328       0.74180729       2.23368767        4       1.00000000       0.03670772      -0.02206144       0.16619085
Ni       3.86327351       0.75238504       2.23623822        4       1.00000000      -0.09013782       0.03569852       0.12633216
Ni       6.52897084       0.75391170       2.24748924        4       1.00000000      -0.00016808       0.07328981       0.16673209
Pt       9.13274147       0.74436836       2.27006770        5       0.00000000       0.03165744      -0.06172891       0.20124167
Ni       2.62129609       2.91215011       2.29063532        5       1.00000000       0.06911959      -0.06052391       0.24439634
Ni       5.21158328       2.93882166       2.24319658        4       1.00000000      -0.02106378      -0.03386496       0.14630298
Ni       7.81186771       2.94066406       2.24530389        4       1.00000000      -0.06881176       0.00715680       0.10680646
Ni      10.45257692       2.93955736       2.31209069        5       1.00000000       0.03891827      -0.03636926       0.24204697
Pt       3.89602033       5.19336335       2.24044595        4       0.00000000      -0.01145372       0.02559702       0.15448306
Ni       6.53420317       5.20283792       2.22258544        4       1.00000000       0.01292018      -0.04213530       0.19484310
Pt       9.07609586       5.16190157       2.25439564        5       0.00000000       0.02618562      -0.06186871       0.03159185
Pt      11.73465364       5.14017737       2.20194494        4       0.00000000      -0.07678766      -0.07937017       0.07711127
Ni       5.21438392       7.43590929       2.18876426        4       1.00000000      -0.08694300       0.00804917       0.22985889
Ni       7.82620700       7.46917222       2.20058052        4       1.00000000       0.01042525       0.09549859       0.13385936
Pt      10.43017454       7.47315485       2.11086755        3       0.00000000       0.00597245      -0.04258949       0.07647725
Ni      13.04473631       7.42834807       2.16710053        4       1.00000000       0.01379765      -0.01080007       0.13969835
Ni       0.02490930       1.53317861       4.34290164        6       1.00000000       0.01806136      -0.00083284      -0.25182801
Ni       2.60590748       1.52084879       4.33811341        6       1.00000000       0.00739529       0.02596797      -0.22057734
Pt       5.17881723       1.52416645       4.35186595        7       0.00000000      -0.03052710       0.06473869      -0.15282882
Ni       7.83872573       1.48327781       4.37616148        7       1.00000000      -0.01801497      -0.05780336      -0.24782409
Ni       1.32856126       3.64474715       4.33493699        6       1.00000000       0.01357887      -0.03814309      -0.23967224
Ni       3.84433832       3.67672553       4.36223134        7       1.00000000      -0.10484451      -0.01939678      -0.23625915
Pt       6.63025104       3.68476130       4.31697587        6       0.00000000       0.14291237      -0.02843101      -0.29191837
Ni       9.16428048       3.66222263       4.35421788        7       1.00000000       0.07233881      -0.08398458      -0.28485544
Ni       2.60821832       5.88867909       4.39035333        7       1.00000000       0.02779142      -0.06316140      -0.09588497
Pt       5.22869633       5.90453578       4.35304566        7       0.00000000      -0.10492948       0.06628430      -0.17907539
Ni       7.84986149       5.90475218       4.37526967        7       1.00000000       0.00904223      -0.00799857      -0.20988571
Pt      10.44367205       5.82721606       4.49555624        8       0.00000000       0.01290120      -0.04481837       0.02000522
Pt       3.91073896       8.16403106       4.35079266        7       0.00000000       0.09048852       0.09147627      -0.03504660
Pt       6.53632799       8.24332432       4.27534459        6       0.00000000      -0.09964794       0.25525414      -0.10614335
Pt       9.08903309       8.15083059       4.36196064        7       0.00000000       0.00571549       0.02092581      -0.04898250
Pt      11.75844179       8.14750224       4.33387367        6       0.00000000      -0.07776569      -0.02295641      -0.07380328
Pt       0.02597046      -0.05326925       6.65875493       12       0.00000000      -0.00644449       0.23517788       0.19751806
Ni       2.62716612      -0.03202618       6.59073350       11       1.00000000      -0.05063723       0.02747378      -0.12497844
Pt       5.14524298      -0.04207727       6.67971064       12       0.00000000       0.08510255       0.07347680       0.16333175
Pt       7.78760162      -0.06744073       6.69210255       12       0.00000000      -0.10156346       0.26045422       0.18078817
Pt       1.36000765       2.20054248       6.45072933       10       0.00000000      -0.09998704       0.01724964       0.28000237
Ni       3.90096225       2.18900959       6.48178223       10       1.00000000      -0.08464441       0.01970400       0.05248846
Ni       6.52833972       2.18643280       6.48942879       10       1.00000000       0.04538854      -0.13117626       0.06698894
Pt       9.09875587       2.28349173       6.44328593        9       0.00000000       0.03977350      -0.20425639       0.48913721
Pt       2.57322596       4.49722308       6.53586979       10       0.00000000       0.06287133      -0.17000865      -0.09709602
Pt       5.22905462       4.34941254       6.49016681       10       0.00000000      -0.07877974      -0.02808408       0.75400101
Ni       7.87523144       4.44537285       6.43761546        9       1.00000000       0.04366211       0.08515845       0.15832332
Ni      10.41622956       4.45348281       6.57471296       11       1.00000000       0.02216269      -0.12081030      -0.12637658
Ni       3.90688135       6.64593341       6.54965187       10       1.00000000       0.05754375      -0.02251387      -0.13729948
Pt       6.63388521       6.63796922       6.50791843       10       0.00000000       0.07403698      -0.15576285       0.50964810
Ni       9.16025012       6.61214983       6.56740142       11       1.00000000      -0.01768152      -0.01294079      -0.11549811
Ni      11.71998075       6.64446602       6.57539676       11       1.00000000      -0.05897911       0.14307718      -0.11921615
