64
Lattice="10.36250659543329 -0.04273789494453545 0.10016678516131176 5.144241194990405 8.86776616418043 0.06525168498260757 0.08178583760673315 0.01430080322192018 8.829862942455927" Properties=species:S:1:pos:R:3:tags:I:1:initial_magmoms:R:1:forces:R:3 unique_id=fb2b3d28a7a54c6681fd24cf4ae6c8d5 stress="0.00036038749595080494 1.1686070926098297e-05 -5.530201192261992e-05 1.1686070926098297e-05 0.0003647125691326261 1.1730749278442132e-06 -5.530201192261992e-05 1.1730749278442132e-06 0.00033060360076952316" energy=-399.4855454038306 pbc="T T T"
Ni      -0.00531173      -0.01332681       0.17100705        4       1.00000000      -0.00648646       0.04350811       0.32421389
Ni       2.61992580      -0.01628228       0.21908802        4       1.00000000       0.13681051       0.02767612       0.43598591
Ni       5.18897211      -0.04735351       0.20087740        4       1.00000000       0.04235967       0.03182912       0.19339026
Ni       7.77345056      -0.09145572       0.25903182        4       1.00000000      -0.00980198      -0.12210930       0.39714283
Pt       1.30170329       2.23100285       0.12514836        4       0.00000000       0.05784604       0.03742086      -0.01702799
Pt       3.86581864       2.16300370       0.22364242        4       0.00000000       0.05168970       0.00943200       0.13836104
Pt       6.47314143       2.11489785       0.17492832        4       0.00000000       0.07189604      -0.08217599      -0.03259438
Pt       9.09017902       2.18288913       0.21248665        4       0.00000000       0.08266575      -0.00160389       0.08643370
Ni       2.55345892       4.48700753       0.09017304        4       1.00000000       0.02228037       0.12017541       0.01062061
Pt       5.12217028       4.46748090       0.09907424        4       0.00000000      -0.02365654       0.08385176      -0.16767207
Pt       7.79948929       4.46495361       0.21346418        4       0.00000000       0.14884180       0.14852482       0.22488544
Ni      10.39093860       4.45607854       0.17326965        4       1.00000000       0.09802011       0.15446818       0.06511423
Ni       3.81606797       6.69358074       0.13487068        4       1.00000000      -0.04672917       0.12984440       0.17772755
Pt       6.46061438       6.74819159       0.27060801        4       0.00000000       0.04930478       0.12196437       0.24310067
Ni       9.08783895       6.67053557       0.17451252        4       1.00000000       0.08916473       0.07747284       0.05523720
Ni      11.65487629       6.62671047       0.18651888        4       1.00000000       0.15429266       0.00984026       0.01379363
Ni       1.34599123       0.73372188       2.27304435        3       1.00000000       0.07258537       0.04546169       0.15501484
Ni       3.87483115       0.74680967       2.29501176        3       1.00000000      -0.07718407       0.12663540       0.17177603
Ni       6.48740195       0.74263130       2.31284707        3       1.00000000      -0.02350409       0.09119704       0.19321671
Pt       9.09442674       0.70383974       2.34269075        3       0.00000000       0.02886374       0.21559717      -0.04041984
Ni       2.58973160       2.91389880       2.32449866        3       1.00000000      -0.03700168      -0.12049916       0.22639735
Ni       5.18910639       2.91006963       2.32585907        3       1.00000000      -0.12610561      -0.10058088       0.00584674
Ni       7.76026696       2.90828654       2.34532051        3       1.00000000       0.07345640      -0.07297734      -0.07906463
Ni      10.39016692       2.90576101       2.39020843        3       1.00000000       0.06201490      -0.08555803       0.16651630
Pt       3.88307945       5.17464435       2.29618330        3       0.00000000      -0.03154831      -0.08224999      -0.18456962
Ni       6.47419152       5.16594484       2.31925519        3       1.00000000       0.01874490       0.03188235      -0.07649068
Pt       9.04108839       5.13478236       2.41633030        3       0.00000000      -0.13869250      -0.08070917      -0.07179336
Pt      11.66407016       5.09645422       2.35549182        3       0.00000000      -0.01923920      -0.08047064       0.10442068
Ni       5.19124661       7.41793145       2.29993178        3       1.00000000       0.06829099       0.05238633       0.10931754
Ni       7.73462186       7.41848607       2.33814633        3       1.00000000      -0.07779807       0.04823983       0.13578269
Pt      10.35214418       7.41625975       2.25989856        3       0.00000000       0.02940619      -0.02354654      -0.04609190
Ni      12.95509906       7.35833631       2.32424328        3       1.00000000       0.02775663      -0.07761963       0.02145088
Ni       0.09686586       1.53358650       4.35180202        2       1.00000000       0.21651634       0.05893634      -0.16455087
Ni       2.58891306       1.51876508       4.36981557        2       1.00000000      -0.05754857       0.07063772      -0.13813083
Ni       5.20098217       1.47711526       4.39590388        2       1.00000000      -0.14606772      -0.09939703      -0.16419412
Ni       7.80543780       1.47679550       4.44785628        2       1.00000000       0.02004758      -0.07283561      -0.05845153
Ni       1.32236067       3.69396309       4.43016304        2       1.00000000       0.01280426      -0.01213729      -0.08132458
Ni       3.85549226       3.68461253       4.39993271        2       1.00000000      -0.19192099      -0.10564194      -0.19359087
Pt       6.49987593       3.61528365       4.38534460        2       0.00000000       0.03234810      -0.05870056      -0.02556639
Ni       9.14773946       3.67247153       4.44099000        2       1.00000000       0.14637831      -0.14782841      -0.09747857
Ni       2.57143277       5.86869064       4.47435489        2       1.00000000      -0.12168497      -0.12982453       0.05041937
Pt       5.19068273       5.88346306       4.42411682        2       0.00000000       0.12361520       0.00901754       0.07472289
Ni       7.80425078       5.90294981       4.44467939        2       1.00000000      -0.14148395       0.00607208       0.01316947
Ni      10.38284736       5.83737048       4.55838194        2       1.00000000       0.02566009      -0.07828434       0.09491844
Pt       3.92280433       8.13779954       4.41362392        2       0.00000000      -0.04431862      -0.03457655       0.17722536
Ni       6.49122132       8.16899099       4.40209138        2       1.00000000      -0.05106152       0.10275048      -0.12606784
Pt       9.00898751       8.11783533       4.43673860        2       0.00000000      -0.05690666       0.06115314       0.11046341
Pt      11.66552206       8.08270900       4.46152172        2       0.00000000      -0.00255453      -0.05176139       0.06026713
Pt       0.05989264       0.01419465       6.56579195        1       0.00000000      -0.04509030       0.00206944       0.13122325
Pt       2.63597378       0.02204887       6.59681920        1       0.00000000      -0.07472296       0.11885843       0.15987079
Pt       5.23129697      -0.05192689       6.64221094        1       0.00000000      -0.03923952      -0.05910424       0.04398617
Pt       7.80713214      -0.07711418       6.68488413        1       0.00000000      -0.10988906      -0.13192056       0.23513105
Ni       1.34515821       2.28709537       6.46001303        1       1.00000000       0.02132110       0.19536968      -0.30609933
Pt       3.91816393       2.30880251       6.47975850        1       0.00000000      -0.05830765       0.13098837      -0.16945761
Ni       6.51178167       2.20727957       6.53608602        1       1.00000000      -0.02682200      -0.03642907      -0.27487032
Pt       9.15883393       2.23337153       6.50784317        1       0.00000000       0.05882545       0.00786186      -0.35275874
Ni       2.59323058       4.47157887       6.54526837        1       1.00000000      -0.15442226       0.03411140      -0.26635200
Ni       5.18409587       4.42704250       6.52060234        1       1.00000000      -0.06148423       0.01996743      -0.38748659
Pt       7.84639064       4.43104282       6.53442977        1       0.00000000       0.04230748      -0.02929410      -0.38508244
Ni      10.45517735       4.44062272       6.61770961        1       1.00000000       0.14166431       0.01837952      -0.26219740
Ni       3.86416333       6.59123411       6.60034030        1       1.00000000      -0.17542914      -0.21633769      -0.11146776
Pt       6.49188986       6.61302154       6.56819176        1       0.00000000      -0.06991121      -0.01112141      -0.12737316
Ni       9.14078305       6.59477329       6.63566127        1       1.00000000       0.09089689      -0.06889904      -0.22037744
Ni      11.68159386       6.54372103       6.66717111        1       1.00000000      -0.07206287      -0.16938717      -0.17854118
