64
Lattice="10.556392931959504 -0.02679985690873395 -0.016891443347607654 5.254987109079003 9.157856926382689 -0.007064784641350211 -0.013791805740256041 0.0013019599200527422 9.11142829072567" Properties=species:S:1:pos:R:3:tags:I:1:initial_magmoms:R:1:forces:R:3 unique_id=6caea6463ceb4166bc3174abbc6fa822 stress="0.0045647049016996205 -4.485988128691299e-05 -9.205945844039983e-06 -4.485988128691299e-05 0.004611005849580775 -1.2903680478054349e-05 -9.205945844039983e-06 -1.2903680478054349e-05 0.0037662427604522805" energy=-413.102908651544 pbc="T T T"
Pt      -0.00340286      -0.02702616       0.11231895        4       0.00000000       0.06760487       0.00860160       0.03401962
Pt       2.75138963      -0.00039591       0.10863643        4       0.00000000       0.17711346       0.07623316      -0.07501233
Ni       5.31124596       0.02144228       0.13890212        4       1.00000000       0.14248196       0.19366125       0.11279869
Ni       7.86308103      -0.02141262       0.12872556        4       1.00000000      -0.09235314       0.00639492       0.18115543
Pt       1.40683527       2.37571347       0.11633074        4       0.00000000       0.10672265       0.04416400      -0.08235358
Ni       3.99215465       2.29391182       0.06912289        4       1.00000000       0.08122840       0.01221619       0.02223877
Ni       6.54372595       2.25038894       0.05282454        4       1.00000000      -0.08057939      -0.06011898       0.03433190
Pt       9.17682780       2.27716357       0.09355745        4       0.00000000      -0.01899863       0.01556055      -0.04560427
Ni       2.61766159       4.57716406       0.14685648        4       1.00000000      -0.07213474       0.00819548       0.20402745
Ni       5.24877148       4.54035790       0.03748575        4       1.00000000      -0.07908442      -0.10019132       0.02002167
Pt       7.84749685       4.60093086      -0.01854194        4       0.00000000      -0.13734478       0.02554959      -0.19289518
Ni      10.57147760       4.60193524       0.12929130        4       1.00000000       0.07070264       0.08907892       0.12793339
Pt       3.90714660       6.79975163      -0.00032141        4       0.00000000      -0.00908726      -0.07156950      -0.19720473
Ni       6.57685574       6.84872172       0.11340545        4       1.00000000      -0.05362154       0.03444731       0.20874244
Ni       9.24092556       6.84951642       0.11564821        4       1.00000000       0.02695789      -0.00684558       0.06484658
Ni      11.83546173       6.83236615       0.13322786        4       1.00000000      -0.04485677      -0.09389468       0.14019396
Pt       1.41604483       0.81893004       2.33713800        3       0.00000000       0.07291144       0.01352071       0.04126447
Ni       3.98302480       0.77962141       2.28312906        3       1.00000000       0.02136974      -0.01459556       0.04254380
Ni       6.54821951       0.75351047       2.23526048        3       1.00000000      -0.04650038       0.01269647      -0.02264217
Pt       9.17984204       0.72120834       2.29494017        3       0.00000000      -0.01993655      -0.01256237       0.08577319
Ni       2.65560603       3.04589753       2.28879761        3       1.00000000       0.04241936      -0.06805162       0.07905285
Pt       5.20592394       2.93559360       2.23085847        3       0.00000000      -0.02762546      -0.05488896      -0.05223825
Pt       7.83176533       3.01067417       2.27879026        3       0.00000000      -0.06469343       0.00691730      -0.03517873
Pt      10.59912993       3.08229753       2.25775973        3       0.00000000      -0.00372296      -0.01795123       0.01003650
Pt       3.87411931       5.25721079       2.25604266        3       0.00000000      -0.03435325      -0.08572448       0.00438267
Pt       6.52999021       5.29911811       2.28018170        3       0.00000000      -0.09868339      -0.09287727       0.04327394
Pt       9.26508294       5.33868545       2.20507916        3       0.00000000      -0.07960782      -0.01182391      -0.04322474
Ni      11.87313964       5.31765158       2.21499323        3       1.00000000      -0.01166379       0.02107715      -0.02191900
Pt       5.22947053       7.59858335       2.32656287        3       0.00000000      -0.07708630      -0.07200388       0.04536417
Pt       7.91521814       7.62052096       2.24653879        3       0.00000000      -0.09423056      -0.05017011       0.01472149
Pt      10.54708086       7.68948284       2.16081891        3       0.00000000      -0.04800786       0.05566005       0.00570850
Pt      13.13382191       7.59321900       2.22720203        3       0.00000000       0.00607113      -0.08014509      -0.03617757
Pt      -0.01515480       1.50891272       4.51719643        2       0.00000000      -0.02736512       0.03628052      -0.03212527
Ni       2.68050760       1.54262275       4.51415357        2       1.00000000       0.10584789       0.06940066      -0.08056110
Ni       5.25137336       1.54408216       4.53074255        2       1.00000000      -0.02289873      -0.00439219      -0.06274411
Pt       7.79520777       1.53731727       4.51957472        2       0.00000000      -0.13107982       0.07284196      -0.00380260
Pt       1.37970088       3.81337501       4.46726822        2       0.00000000       0.10658364       0.06439733      -0.06758457
Pt       4.04533136       3.74775041       4.56310866        2       0.00000000       0.06541631      -0.00118808       0.00336785
Ni       6.54845398       3.79600618       4.58830851        2       1.00000000      -0.00456763      -0.00550060       0.01651649
Pt       9.17101488       3.80885840       4.52119227        2       0.00000000       0.07904006       0.05299336      -0.09313603
Pt       2.71015264       6.13400682       4.53987369        2       0.00000000       0.02466019      -0.00688124       0.00845243
Ni       5.24674934       6.07507705       4.55265111        2       1.00000000       0.02310490      -0.10092713      -0.04072644
Pt       7.82115609       6.05591039       4.54104592        2       0.00000000       0.00786885       0.03828703      -0.03072941
Pt      10.55461867       6.10084697       4.46791317        2       0.00000000       0.04277263       0.03598484      -0.05978525
Ni       3.92641926       8.38098887       4.54550600        2       1.00000000      -0.05066302       0.04447040      -0.04337362
Pt       6.53910271       8.35949118       4.51237011        2       0.00000000      -0.03105408      -0.04197918      -0.02097977
Pt       9.21896740       8.48765660       4.46877284        2       0.00000000       0.03215504       0.04204992      -0.05641943
Pt      11.86184300       8.41782219       4.47295763        2       0.00000000       0.02022059      -0.00263376      -0.00682198
Pt      -0.04111226      -0.05525785       6.70860752        1       0.00000000      -0.01893163      -0.02437040       0.05629449
Pt       2.64798121       0.02487973       6.70040765        1       0.00000000      -0.02197747      -0.02220218      -0.05373772
Pt       5.28306544       0.10599896       6.80895214        1       0.00000000      -0.00593881       0.09817486       0.08252360
Pt       7.90473905      -0.01638985       6.79515727        1       0.00000000      -0.02737481       0.02409627       0.11207167
Pt       1.36527203       2.30255117       6.70610715        1       0.00000000       0.05990270       0.04153600      -0.06576050
Ni       3.99990633       2.30917440       6.75635481        1       1.00000000       0.12252899       0.04486636      -0.08221703
Ni       6.53811286       2.33755871       6.75187367        1       1.00000000      -0.11529784       0.17699739      -0.10503700
Pt       9.13784787       2.30540226       6.71587816        1       0.00000000      -0.07392343       0.04126110       0.02075605
Pt       2.74725131       4.57945121       6.83079075        1       0.00000000       0.17720906       0.00845189       0.17817131
Ni       5.29410575       4.52820316       6.74709021        1       1.00000000       0.14049119      -0.20064490      -0.12542181
Ni       7.84164390       4.54354920       6.67616657        1       1.00000000      -0.08297669      -0.07950765      -0.25955034
Pt      10.52474031       4.56035728       6.82215532        1       0.00000000       0.05953658       0.01452234       0.07567614
Ni       3.95138906       6.85744995       6.67774549        1       1.00000000       0.01778476       0.01414003      -0.26673680
Pt       6.48835648       6.73909529       6.79647581        1       0.00000000      -0.06844557      -0.17255617       0.15697027
Pt       9.18314671       6.84302087       6.82001234        1       0.00000000      -0.01523192       0.01199196       0.02323312
Pt      11.88504135       6.84954045       6.83309660        1       0.00000000      -0.00880795      -0.00052081       0.10523643
