64
Lattice="10.12849261791461 -0.00827752248260473 -0.0018551879972730737 5.057077764207023 8.746196129360037 -0.016463439830940396 -0.0015147546567516913 -0.014647335919321224 8.678053164880417" Properties=species:S:1:pos:R:3:tags:I:1:initial_magmoms:R:1:forces:R:3 unique_id=2664b4edcda144549df7af9b3a92792f stress="-0.0010231237303341412 1.112154784981399e-06 -1.9442909926192888e-06 1.112154784981399e-06 -0.0010286664499991813 -9.816156362976934e-06 -1.9442909926192888e-06 -9.816156362976934e-06 -0.0008772702222169526" energy=-390.05577323452013 pbc="T T T"
Ni       0.04265107      -0.04076020       0.17224957        4       1.00000000       0.15739706      -0.04171557       0.26044254
Ni       2.51537511      -0.03460324       0.18944245        4       1.00000000       0.00395168      -0.06288822       0.20873754
Ni       5.07591621      -0.02051808       0.08617654        4       1.00000000      -0.02205363      -0.04223765       0.06244290
Ni       7.56361213      -0.02176870       0.16669138        4       1.00000000      -0.02198258       0.04409812       0.27744983
Ni       1.26631559       2.19740729       0.10957288        4       1.00000000       0.00368955       0.03058057       0.22172399
Pt       3.78963627       2.18804335       0.18229712        4       0.00000000      -0.02172228      -0.02193108       0.31493144
Ni       6.32259898       2.19006274       0.10083377        4       1.00000000      -0.01232666       0.07671420       0.20467326
Pt       8.86424253       2.24001065       0.01751795        4       0.00000000       0.03493248       0.02527253      -0.18444852
Ni       2.50546951       4.40057646       0.09285715        4       1.00000000      -0.03313497       0.03883176       0.15713733
Ni       5.05955626       4.39264684       0.06394300        4       1.00000000      -0.03092506       0.01633690       0.07022453
Ni       7.58520472       4.39608509       0.06658625        4       1.00000000      -0.00147077       0.10633890       0.06325444
Ni      10.15066459       4.40097814       0.09133406        4       1.00000000       0.04652517       0.13371019       0.14196712
Ni       3.81571555       6.52977154       0.05444880        4       1.00000000       0.10924119      -0.09359525       0.02442779
Ni       6.31992359       6.57190128       0.06447899        4       1.00000000       0.01117105       0.07299131      -0.04874642
Ni       8.82913678       6.53519474       0.13795516        4       1.00000000      -0.16368515      -0.05648900       0.21442101
Ni      11.38005603       6.52597759       0.03592086        4       1.00000000      -0.06711553      -0.05151779      -0.07490251
Ni       1.31875687       0.72921007       2.18883534        3       1.00000000       0.07064929       0.08335458       0.10267527
Ni       3.74793073       0.71233124       2.19299979        3       1.00000000      -0.13459142      -0.02448948      -0.00545751
Ni       6.30150791       0.75358167       2.13241883        3       1.00000000      -0.00686070       0.01166939      -0.05865732
Pt       8.93092437       0.74805652       2.16512225        3       0.00000000       0.10195018       0.13141431      -0.14778670
Ni       2.50723057       2.92120082       2.20384777        3       1.00000000       0.03667000      -0.02569306       0.04144119
Ni       5.06093859       2.91806063       2.18946337        3       1.00000000      -0.04004409       0.05364330       0.00070122
Ni       7.59039493       2.93333632       2.16375203        3       1.00000000       0.06161208       0.03606958      -0.01960426
Ni      10.15779650       2.94605420       2.17452168        3       1.00000000      -0.01783860       0.01893538      -0.02805168
Ni       3.78317184       5.04404993       2.16643361        3       1.00000000      -0.00675697      -0.15540200       0.01972646
Pt       6.32968282       5.12962838       2.12900676        3       0.00000000       0.01890819       0.05130123      -0.00102933
Ni       8.87235715       5.05648168       2.17242622        3       1.00000000       0.01701701      -0.10000720       0.06925446
Ni      11.37966994       5.04040253       2.14494043        3       1.00000000      -0.04877206      -0.05336022      -0.03129145
Ni       5.10806156       7.28027701       2.14454395        3       1.00000000       0.03819328      -0.00529869       0.02682858
Ni       7.55859724       7.31468356       2.17549302        3       1.00000000      -0.05700574       0.03133071       0.09045752
Pt      10.05838904       7.26948909       2.17665545        3       0.00000000      -0.04837086      -0.04683911      -0.01261838
Pt      12.65713723       7.18897563       2.12583957        3       0.00000000       0.04425481      -0.14574504       0.00455734
Ni       0.05324154       1.46167657       4.31420922        2       1.00000000       0.10394094      -0.07151926      -0.05245366
Ni       2.48486774       1.42848844       4.25576050        2       1.00000000      -0.00414353      -0.04973449      -0.07053340
Pt       5.00863494       1.38989127       4.23395246        2       0.00000000      -0.16309944      -0.00817708       0.07215147
Pt       7.62745215       1.47808055       4.30780246        2       0.00000000       0.00005997      -0.07165183       0.02544689
Pt       1.26141372       3.64940438       4.30014907        2       0.00000000       0.00550340      -0.01655535      -0.00304774
Ni       3.77420796       3.69786666       4.26955872        2       1.00000000      -0.00522729       0.06938249      -0.15065416
Pt       6.31653311       3.71247938       4.35214459        2       0.00000000       0.00785188       0.00785334       0.02993475
Ni       8.88287047       3.69047012       4.30583344        2       1.00000000      -0.01448113       0.17669884      -0.16397803
Ni       2.52137759       5.79485084       4.33530742        2       1.00000000      -0.00393889      -0.04025403      -0.07228450
Ni       5.05627300       5.81710132       4.33056517        2       1.00000000       0.01651577       0.00574615      -0.09672101
Ni       7.60825847       5.85732974       4.29286738        2       1.00000000       0.06331337       0.06424270      -0.12806689
Ni      10.12182217       5.81512499       4.29268343        2       1.00000000      -0.01200471      -0.04530671      -0.10929468
Pt       3.83539418       7.91988662       4.28985316        2       0.00000000       0.04855398       0.02375559       0.16050030
Ni       6.36936510       7.98720192       4.24741107        2       1.00000000       0.04753366      -0.02844316      -0.08841198
Ni       8.82720520       7.96808550       4.27489338        2       1.00000000      -0.09975594      -0.08940386      -0.02517767
Ni      11.35239621       7.93811682       4.31531060        2       1.00000000      -0.00670984      -0.11971451      -0.01010429
Pt      -0.00131227      -0.00063351       6.47902936        1       0.00000000      -0.01448966      -0.00344087       0.13197783
Pt       2.55552860      -0.01765125       6.42362196        1       0.00000000      -0.01698587       0.01509421       0.08174523
Ni       5.06745688      -0.02837017       6.42593837        1       1.00000000      -0.07247364      -0.01074814      -0.18445667
Pt       7.51556423      -0.04841729       6.50306760        1       0.00000000      -0.11724721      -0.05822266       0.14516542
Ni       1.23650385       2.22614070       6.42502950        1       1.00000000      -0.00397517       0.03960152      -0.04867812
Pt       3.79489996       2.27695418       6.37958985        1       0.00000000       0.00504047       0.20109919      -0.34039128
Ni       6.34110403       2.21273454       6.45579020        1       1.00000000       0.00696797       0.07477463       0.00274414
Ni       8.88016681       2.24176296       6.32958765        1       1.00000000       0.08336646       0.13269235      -0.43005433
Ni       2.51473618       4.42129166       6.42532692        1       1.00000000      -0.04477463       0.12979354      -0.04343777
Ni       5.06286068       4.42318776       6.43340553        1       1.00000000      -0.02358835       0.17741420      -0.03958089
Ni       7.59156499       4.34280555       6.43459320        1       1.00000000       0.03268610      -0.04887998      -0.04860749
Ni      10.14147581       4.33187279       6.42417994        1       1.00000000       0.06282134      -0.08024883      -0.03593972
Ni       3.79300170       6.47517048       6.42115968        1       1.00000000      -0.00293718      -0.08546233      -0.10669119
Ni       6.30227547       6.48710039       6.39949869        1       1.00000000       0.02973768      -0.03253701      -0.22133434
Pt       8.89492983       6.46606055       6.41511339        1       0.00000000       0.04930605      -0.12288518       0.09675152
Ni      11.40495361       6.49040579       6.39593519        1       1.00000000       0.02112755      -0.17034706      -0.24139943
