64
Lattice="10.15022269072486 -0.01334644501353909 -0.001868307947738494 5.06355298493055 8.787467097249852 0.012241459335869917 -0.0015254670514486712 0.012422087356811178 8.672972138304164" Properties=species:S:1:pos:R:3:tags:I:1:initial_magmoms:R:1:forces:R:3 unique_id=e62a1c2d65174158bff7016fcd1ca623 stress="-0.005049649215369642 -5.140393184785625e-06 -1.875888363018597e-05 -5.140393184785625e-06 -0.005080750276914091 -1.2108796642929096e-06 -1.875888363018597e-05 -1.2108796642929096e-06 -0.004516737027781222" energy=-390.1979363792182 pbc="T T T"
Ni       0.03067356       0.02704591       0.15294368        4       1.00000000       0.10115603       0.09194461       0.01773676
Ni       2.53301699      -0.03679314       0.21428679        4       1.00000000       0.02966090      -0.07181045       0.12028072
Ni       5.09046019      -0.03891090       0.11870765        4       1.00000000      -0.01850897      -0.06914150       0.03784088
Ni       7.57587221       0.00339630       0.05458932        4       1.00000000      -0.04748903       0.02992299      -0.03866644
Ni       1.22537710       2.22409981       0.11939960        4       1.00000000      -0.03350345       0.09591648       0.01690564
Pt       3.79691266       2.19030561       0.21321544        4       0.00000000      -0.01579428      -0.04535928      -0.13116495
Ni       6.37956152       2.19178519       0.11935087        4       1.00000000       0.02074729       0.04843061       0.09877054
Ni       8.87839178       2.24631105       0.06655056        4       1.00000000       0.02868544       0.12097570      -0.03023924
Ni       2.49311194       4.42360167       0.12247045        4       1.00000000      -0.06376720       0.02603140       0.07256444
Ni       5.05995119       4.39769832       0.19708831        4       1.00000000      -0.05807418      -0.05169084       0.19738036
Ni       7.65011364       4.37282164       0.08071916        4       1.00000000       0.11434529       0.01246043      -0.02106067
Ni      10.14184580       4.38824549       0.11714150        4       1.00000000      -0.02000579       0.04746711       0.03427340
Ni       3.78554739       6.56658913       0.07098754        4       1.00000000      -0.01891513      -0.06209334      -0.01929117
Ni       6.36767795       6.59134774       0.05155648        4       1.00000000       0.09343233      -0.01586109      -0.14879084
Ni       8.87786673       6.58031656       0.20396141        4       1.00000000      -0.02209022       0.00457289       0.12609710
Ni      11.36782550       6.55928462       0.06202945        4       1.00000000      -0.14531174      -0.04365584      -0.11327493
Ni       1.30320982       0.76632784       2.12722914        3       1.00000000      -0.00116025       0.08127927      -0.01118207
Ni       3.81211049       0.65728099       2.16468792        3       1.00000000       0.02883216      -0.11363506       0.02682489
Ni       6.29675547       0.73296338       2.11630834        3       1.00000000      -0.00912048      -0.00865371      -0.04057015
Pt       8.88703136       0.81412187       2.10865084        3       0.00000000      -0.03082440       0.00460783      -0.00445268
Ni       2.50600406       2.97294687       2.17660856        3       1.00000000      -0.02918118       0.05330025       0.01446424
Ni       5.07151523       2.91993098       2.19528132        3       1.00000000       0.01554754      -0.00470238       0.09043895
Ni       7.61497555       2.93666845       2.12393778        3       1.00000000       0.02751699       0.04051563       0.01747717
Ni      10.17334501       2.96812189       2.13320511        3       1.00000000       0.00150172       0.04281080       0.00166084
Ni       3.76266260       5.07335738       2.18811874        3       1.00000000      -0.02938599       0.00284692       0.06455907
Pt       6.40738692       5.11079061       2.13171435        3       0.00000000       0.11461834       0.00299715       0.03828581
Ni       8.93092246       5.14290466       2.15729309        3       1.00000000       0.07540827       0.02268919       0.01207131
Ni      11.37140663       5.09554763       2.14067215        3       1.00000000      -0.05126838       0.02608156      -0.05056590
Pt       5.12215681       7.32017006       2.15030049        3       0.00000000      -0.02352599      -0.01185440      -0.04665100
Ni       7.66727582       7.33660746       2.20158355        3       1.00000000       0.00515132      -0.01792609       0.10275053
Ni      10.08731217       7.30811803       2.19113909        3       1.00000000      -0.00232636      -0.00765012       0.03578389
Pt      12.57729019       7.26017616       2.14313888        3       0.00000000      -0.00843910       0.00296805      -0.06340144
Ni       0.00585110       1.47133828       4.31122338        2       1.00000000      -0.01651623       0.01187469      -0.06231196
Pt       2.47604652       1.41499216       4.20696079        2       0.00000000      -0.04551098      -0.08054577      -0.02265075
Pt       5.05738945       1.37300166       4.24812490        2       0.00000000       0.00938455      -0.09585074      -0.03605388
Pt       7.62664225       1.43311298       4.36457482        2       0.00000000      -0.02458300       0.02982771      -0.00309097
Pt       1.30428331       3.73918681       4.30322555        2       0.00000000       0.02904752      -0.02258204      -0.03492880
Ni       3.79270573       3.72819359       4.26600296        2       1.00000000       0.00677137       0.02568493      -0.06458947
Pt       6.30306648       3.70792025       4.32729721        2       0.00000000      -0.02293633      -0.02031494       0.08439678
Pt       8.90367640       3.73783648       4.30621281        2       0.00000000      -0.02437987       0.05697567      -0.04631112
Ni       2.52372296       5.85733037       4.34511127        2       1.00000000       0.03424182      -0.00659372      -0.09100689
Ni       5.06109348       5.86641051       4.31936156        2       1.00000000      -0.01090052      -0.02654696      -0.07265536
Ni       7.60899199       5.92561621       4.30530543        2       1.00000000       0.04233444       0.01787345      -0.02876408
Ni      10.16925252       5.91714423       4.27266078        2       1.00000000       0.03701177       0.01723666      -0.13062319
Pt       3.78780671       7.98113501       4.35571757        2       0.00000000       0.01715840       0.00102283      -0.06965871
Ni       6.35533168       7.99982462       4.30785376        2       1.00000000      -0.00663142      -0.03188437      -0.02222799
Ni       8.87681728       7.98191010       4.27226942        2       1.00000000      -0.02005630      -0.09193731       0.00764432
Ni      11.36726594       7.97445385       4.34531084        2       1.00000000      -0.00849408      -0.04527629      -0.07194408
Pt      -0.06056504       0.03115524       6.48885721        1       0.00000000      -0.05004211       0.03696982       0.09943906
Pt       2.55057713      -0.03544486       6.47637562        1       0.00000000       0.03551778      -0.03621548       0.15372720
Ni       5.14185865      -0.03062245       6.42832504        1       1.00000000       0.01647535      -0.06892514      -0.01235755
Ni       7.55064510      -0.03367812       6.45000471        1       1.00000000      -0.10053633      -0.07731082      -0.03115970
Ni       1.21952573       2.25051558       6.44252247        1       1.00000000      -0.02735732      -0.00402170      -0.03480245
Pt       3.79258987       2.24495520       6.38700314        1       0.00000000      -0.02685738       0.09644101       0.05081446
Ni       6.38455048       2.17843681       6.47281418        1       1.00000000      -0.01646955      -0.01800182       0.08451690
Ni       8.87665457       2.23382821       6.45562064        1       1.00000000       0.00888781       0.08563329      -0.05411240
Ni       2.49058174       4.46408779       6.44490449        1       1.00000000      -0.00901672       0.07054889       0.02374886
Pt       5.06401719       4.49859172       6.50865599        1       0.00000000      -0.02611872       0.10390453       0.24081537
Ni       7.62421216       4.37160975       6.45948014        1       1.00000000       0.00974837      -0.03334960      -0.02389653
Ni      10.18517678       4.36918067       6.47217794        1       1.00000000       0.09857234      -0.06175577       0.04278080
Ni       3.73617450       6.59129753       6.44244030        1       1.00000000      -0.10018827       0.03265280      -0.03058587
Ni       6.33675871       6.58972467       6.39480802        1       1.00000000       0.04206088       0.04857304      -0.22438394
Pt       8.93740830       6.50850871       6.44780325        1       0.00000000       0.08766549      -0.09878582       0.11979711
Ni      11.45254050       6.58216133       6.40537905        1       1.00000000       0.03380576      -0.04910583      -0.14642021
