64
Lattice="10.218181256811194 0.015214083649823696 -0.00408537428777238 5.122266411341651 8.774029551557176 -0.07246444151071182 0.0 0.0 21.50553466310419" Properties=species:S:1:pos:R:3:tags:I:1:initial_magmoms:R:1:forces:R:3 unique_id=9dbc5f09b30b4806bd4282ce885822af energy=-370.27025817195954 stress="0.005188819991171394 4.458528803124117e-05 9.53155530334481e-05 4.458528803124117e-05 0.004135769232915351 -0.00024590955753477187 9.53155530334481e-05 -0.00024590955753477187 -0.0018444440239012202" pbc="T T T"
Ni       0.04131149      -0.04664599       0.19135453        2       1.00000000       0.14651828      -0.01715659      -0.28419904
Ni       2.52855828      -0.03602168       0.19717663        2       1.00000000      -0.02209956      -0.05813057      -0.03407516
Ni       5.09976786      -0.02928952       0.17649644        2       1.00000000      -0.07945491       0.05849599      -0.30467195
Ni       7.65982110      -0.02623504       0.16018079        2       1.00000000       0.00017172       0.10536324      -0.50810974
Ni       1.28413747       2.19514977       0.10083459        1       1.00000000      -0.00149873      -0.01465284       0.33227257
Pt       3.76578150       2.19765111       0.17444781        2       0.00000000       0.00564578      -0.03696905      -0.58489644
Pt       6.38612611       2.21120167       0.08810298        1       0.00000000       0.01726706       0.00614174      -0.22945842
Pt       9.01170816       2.25575070       0.09954149        1       0.00000000      -0.00891265       0.06683781      -0.70706215
Ni       2.55219083       4.41164685       0.03517742        0       1.00000000       0.04601469       0.03787172       0.21284964
Ni       5.09743985       4.43545282       0.04324819        0       1.00000000      -0.14051768      -0.02063672       0.13123509
Ni       7.68117148       4.44562875       0.04750332        0       1.00000000       0.14407168       0.03365626       0.06732126
Ni      10.24017394       4.42994420       0.03723267        0       1.00000000      -0.03103676       0.10717895       0.14462411
Ni       3.86513457       6.55404479       0.01898352        0       1.00000000       0.11848270      -0.04552784       0.16147603
Ni       6.39183097       6.59373021       0.03720133        0       1.00000000       0.02358459       0.13631826       0.22353871
Ni       8.92438822       6.56588518       0.10446310        1       1.00000000      -0.14304619      -0.04072170      -0.12824119
Ni      11.50053876       6.57067354       0.00000000        0       1.00000000      -0.07345773      -0.03614222       0.09568180
Ni       1.32092145       0.72072626       2.20602522        4       1.00000000       0.05223168       0.09128714       0.17474140
Ni       3.77170890       0.71935276       2.20578966        4       1.00000000      -0.18592825      -0.06935824       0.14758767
Ni       6.38079366       0.74914860       2.18741859        4       1.00000000       0.03006597       0.03846144       0.12663127
Pt       8.99253090       0.76849923       2.23384576        4       0.00000000       0.02228026       0.05935399       0.01199968
Ni       2.54273199       2.87808565       2.24346944        4       1.00000000      -0.01038645      -0.13435621       0.26651758
Ni       5.08903119       2.93061875       2.20360806        4       1.00000000      -0.04930399       0.07653880       0.11547319
Ni       7.68054330       2.94358546       2.21500282        4       1.00000000       0.06483418       0.03251787       0.16975304
Ni      10.25057315       2.91925624       2.22658824        4       1.00000000       0.06067130      -0.11368135       0.23454709
Ni       3.85455200       5.05964383       2.15606028        4       1.00000000      -0.01189508      -0.15243910       0.07355712
Pt       6.39641765       5.14394376       2.11998870        3       0.00000000       0.01068139       0.01181098      -0.05026874
Ni       8.93331755       5.08080872       2.15803199        4       1.00000000      -0.01015089      -0.12150332       0.11494786
Pt      11.49458613       5.02374578       2.17168074        4       0.00000000      -0.01554665      -0.13008563       0.12203322
Ni       5.16783911       7.29793111       2.11498490        3       1.00000000       0.03215448       0.04780250       0.07110312
Ni       7.64029264       7.33336065       2.14464673        3       1.00000000      -0.06805632       0.07373972       0.19480538
Pt      10.14847490       7.32014297       2.16000518        4       0.00000000      -0.06828342      -0.03940921       0.17414167
Pt      12.80070521       7.26257883       2.09169887        3       0.00000000       0.09103150      -0.06746335       0.02696239
Ni       0.06734044       1.46738736       4.30088146        6       1.00000000       0.20132335       0.02876447      -0.09108050
Ni       2.50045644       1.44395226       4.26800600        6       1.00000000      -0.04952556      -0.03605774      -0.15647750
Pt       5.08843745       1.40418686       4.21738733        5       0.00000000      -0.11784737      -0.12319645       0.01817292
Ni       7.66502467       1.44649354       4.29482365        6       1.00000000      -0.00827983      -0.06468443      -0.22194860
Ni       1.28346882       3.61209209       4.33450599        6       1.00000000       0.03740883      -0.05525939      -0.01196346
Ni       3.78854385       3.68710906       4.26296580        6       1.00000000      -0.05238237       0.06360925      -0.19558674
Pt       6.41726950       3.67694063       4.32734187        6       0.00000000       0.01983026       0.00910410       0.04103949
Ni       8.98975236       3.68310543       4.24944659        5       1.00000000       0.09790198       0.11402084      -0.23987148
Ni       2.55043656       5.76606111       4.33355175        6       1.00000000      -0.05523832      -0.06157370      -0.06082663
Ni       5.11190693       5.81044947       4.31554753        6       1.00000000       0.06097203      -0.04889136      -0.08623346
Ni       7.68104403       5.85103744       4.27034992        6       1.00000000       0.06759330       0.13046583      -0.19050356
Ni      10.23592402       5.79446036       4.29407777        6       1.00000000       0.00574506      -0.05283711      -0.04407843
Pt       3.87943723       7.94734530       4.25644961        6       0.00000000       0.07640844      -0.01836271       0.13916075
Ni       6.43285942       7.99317540       4.20718932        5       1.00000000       0.07923120      -0.01638026      -0.21504820
Ni       8.90926132       7.98612582       4.23927209        5       1.00000000      -0.15929342       0.00980204      -0.13779472
Ni      11.49657070       7.96506996       4.25106468        6       1.00000000      -0.01065685      -0.12331159      -0.07532224
Pt       0.01688083      -0.08296965       6.50553466        9       0.00000000      -0.01732104       0.11834908       0.32277106
Pt       2.53899560      -0.04377976       6.44104827        8       0.00000000       0.05957416       0.05395955       0.07959880
Pt       5.11593454      -0.06488648       6.47749879        9       0.00000000      -0.05604901       0.00063880       0.30997651
Pt       7.65047106      -0.07716766       6.48635273        9       0.00000000      -0.02865164       0.12560357       0.44163844
Ni       1.27309868       2.21042247       6.40784906        8       1.00000000       0.02553537       0.09194207      -0.20771888
Pt       3.80210468       2.28446819       6.37313889        8       0.00000000      -0.08386256       0.14527017       0.52588313
Ni       6.38807315       2.19759939       6.36748827        8       1.00000000      -0.00825476       0.00173706       0.30635662
Pt       8.95391956       2.26187606       6.31257066        7       0.00000000      -0.00066985      -0.06285196       0.63682536
Ni       2.52844433       4.39810619       6.39063819        8       1.00000000       0.02978008      -0.02557762      -0.30351074
Ni       5.11638493       4.40858070       6.41777900        8       1.00000000      -0.09221597       0.00624606      -0.15857055
Ni       7.62846124       4.36233197       6.42476005        8       1.00000000      -0.06030467      -0.04347630      -0.02292993
Ni      10.28743335       4.35677680       6.38931357        8       1.00000000       0.10863992      -0.03160743      -0.27794829
Ni       3.83840696       6.44902946       6.39720743        8       1.00000000      -0.00495790      -0.07869451      -0.20784097
Ni       6.36774280       6.47391312       6.38650050        8       1.00000000      -0.02387964       0.01966869      -0.27104233
Pt       8.94814534       6.42082999       6.39352961        8       0.00000000       0.02990374      -0.01357512      -0.02113398
Ni      11.53242192       6.47438420       6.37663327        8       1.00000000      -0.01658897       0.05201366      -0.18680998
