64
Lattice="10.466469090465912 -0.004003634756153051 0.04782904975204032 5.229767295826649 9.069477745905472 -0.01598268663576988 0.0 0.0 21.709920732719105" Properties=species:S:1:pos:R:3:tags:I:1:initial_magmoms:R:1:forces:R:3 unique_id=f5125e1a3bd146e6b21ed10af2427031 stress="0.006165417861168003 -2.7121655259054915e-05 0.0003492566789186032 -2.7121655259054915e-05 0.006046445062561499 -0.00021348324184642032 0.0003492566789186032 -0.00021348324184642032 -0.0022186032299288845" energy=-384.11819797719426 pbc="T T T"
Ni      -0.05733652      -0.03077507       0.09040834        1       1.00000000      -0.17057507      -0.03933843      -0.07457103
Ni       2.64447297      -0.04357165       0.00000000        0       1.00000000       0.10031252      -0.05192243       0.33249545
Ni       5.26259661      -0.05043986       0.08904042        1       1.00000000       0.13285271       0.07994539      -0.17990470
Ni       7.87695163      -0.05053735       0.07114436        1       1.00000000      -0.00261246      -0.04345171       0.60049504
Pt       1.25231209       2.22469507       0.02220470        0       0.00000000       0.06915291       0.01585350      -1.08367345
Pt       3.95989424       2.23523755       0.03699139        0       0.00000000       0.10587737       0.10792021      -0.86691464
Pt       6.59057989       2.18020420       0.08163089        1       0.00000000      -0.05711081      -0.14150531      -0.15583596
Ni       9.14566118       2.22632169       0.10760391        1       1.00000000      -0.00989295      -0.17505097       0.00278435
Pt       2.62059907       4.62049208       0.00588723        0       0.00000000       0.03038781      -0.05204971      -1.05292025
Ni       5.26200474       4.53674980       0.07003490        1       1.00000000       0.17645051      -0.07914065       0.01230086
Pt       7.91397666       4.55408509       0.08783580        1       0.00000000      -0.03231678       0.03134776      -0.04526527
Ni      10.45704656       4.57346763       0.00783030        0       1.00000000       0.04588155       0.08520897       0.28354196
Ni       3.91589192       6.86341408       0.08707565        1       1.00000000      -0.05019405       0.13657006       0.01388379
Pt       6.53075256       6.84874540       0.12511471        1       0.00000000      -0.04239927      -0.02890275      -0.21902342
Ni       9.18455255       6.81149407       0.00635925        0       1.00000000      -0.04929409      -0.03126208       0.44343148
Ni      11.76933558       6.84187293       0.00255690        0       1.00000000       0.13445551       0.05083823       0.38094111
Pt       1.27968428       0.63638393       2.12718471        2       0.00000000       0.03380834      -0.14812497       0.15767826
Pt       4.00715626       0.72582459       2.19792076        3       0.00000000       0.04749574      -0.07937170       0.19233606
Ni       6.59463964       0.72449133       2.22403786        3       1.00000000       0.08169261      -0.05013911       0.18476983
Ni       9.10774176       0.70369855       2.16816404        3       1.00000000      -0.11354241      -0.01115227       0.03232246
Pt       2.67041817       3.04177611       2.22526102        3       0.00000000      -0.02055237       0.05506592       0.44600537
Ni       5.27074918       3.02355702       2.25018858        4       1.00000000       0.02363217       0.07594296       0.38167819
Pt       7.78627607       3.00173570       2.31959625        4       0.00000000      -0.07114446      -0.01590274       0.23123694
Pt      10.37863370       3.03921822       2.18618678        3       0.00000000      -0.17679644       0.13490054       0.12013503
Pt       4.03006336       5.33285772       2.14032079        2       0.00000000       0.18157630       0.08413613       0.15216119
Ni       6.59475330       5.28790414       2.20700270        3       1.00000000       0.09563804      -0.03887026       0.29702086
Ni       9.12226685       5.31312948       2.24576714        3       1.00000000      -0.09656140       0.05862664       0.21379156
Pt      11.73048547       5.33896994       2.18811231        3       0.00000000      -0.06793646       0.01750927       0.13659978
Ni       5.20756719       7.55495928       2.14552074        2       1.00000000      -0.08870192       0.03291327       0.21362525
Ni       7.86982058       7.48729464       2.18934074        3       1.00000000       0.10204368      -0.11668838       0.18440261
Pt      10.46351634       7.53558447       2.10711383        2       0.00000000      -0.04153036       0.05757040       0.06111535
Ni      13.10778215       7.60359690       2.15142055        3       1.00000000      -0.03208925       0.06024394      -0.01983824
Pt      -0.08190244       1.52570826       4.32973825        5       0.00000000      -0.13310750       0.01472042      -0.25007558
Pt       2.68462335       1.48907630       4.38160307        6       0.00000000      -0.06923905      -0.09082097      -0.23009561
Ni       5.29694761       1.53217072       4.36003046        6       1.00000000       0.05301888       0.10019886      -0.36920980
Ni       7.83145960       1.51789201       4.38904796        6       1.00000000      -0.04482104       0.03986660      -0.21872305
Pt       1.23069474       3.81947717       4.39051331        6       0.00000000      -0.19913846       0.01261178      -0.23019059
Ni       3.99914621       3.73969498       4.37830763        6       1.00000000       0.10205439      -0.02796288      -0.35354314
Ni       6.56778147       3.73128852       4.38706959        6       1.00000000      -0.05260563      -0.04103781      -0.22141484
Ni       9.13049096       3.80706435       4.39886615        6       1.00000000      -0.10551999       0.02701891      -0.27838306
Pt       2.60046388       6.05292842       4.35671309        6       0.00000000      -0.01759189       0.08885695      -0.16976750
Pt       5.32815843       5.94533381       4.33352513        5       0.00000000       0.00109365      -0.11210043      -0.18417927
Ni       7.91641610       5.97015956       4.34978302        5       1.00000000       0.07373340      -0.11915067      -0.29806987
Ni      10.42595543       6.00746715       4.46163685        7       1.00000000      -0.04664282       0.00284433      -0.05334627
Pt       3.91543429       8.31989491       4.28557466        5       0.00000000      -0.00766721      -0.00188280      -0.15536048
Pt       6.57740209       8.25024043       4.33752483        5       0.00000000      -0.05517380       0.09746078      -0.19668347
Pt       9.18244374       8.19792605       4.42608678        6       0.00000000       0.00113756      -0.05207100      -0.08741421
Pt      11.77977741       8.35963858       4.38479981        6       0.00000000      -0.05341909       0.06079258      -0.08825828
Pt       0.01847564      -0.02610958       6.69380007       10       0.00000000       0.03760360       0.01328577       0.04263295
Ni       2.66487876      -0.04442026       6.63029743        9       1.00000000      -0.00728234       0.01846468      -0.17540231
Pt       5.25634411      -0.13326705       6.70992073       10       0.00000000      -0.00894495       0.18936887      -0.10249595
Ni       7.85575459      -0.03819205       6.65108916       10       1.00000000      -0.00318340      -0.00763793      -0.31236827
Pt       1.32092651       2.23956977       6.55630292        9       0.00000000      -0.02483323      -0.02543517       0.94261513
Pt       3.96501464       2.20184256       6.53100608        8       0.00000000       0.18005991       0.10784381       0.80020922
Pt       6.58449192       2.18721194       6.50802006        8       0.00000000      -0.05215614      -0.01164518       0.32828459
Pt       9.17214089       2.25170407       6.67605148       10       0.00000000      -0.05936358       0.14272329      -0.03132487
Pt       2.57649374       4.54813378       6.53748754        8       0.00000000       0.26834927      -0.15214094       0.87328812
Pt       5.27059989       4.51295177       6.61305189        9       0.00000000       0.00319922      -0.02034192       0.15342242
Pt       7.96057297       4.55738309       6.50810961        8       0.00000000      -0.10075574      -0.03274685       0.17320521
Ni      10.47775707       4.57179430       6.61895951        9       1.00000000      -0.02820347       0.05116493      -0.27571224
Pt       3.87039036       6.83113810       6.67761359       10       0.00000000       0.12756340      -0.03642261      -0.03854940
Pt       6.65771268       6.81126347       6.58503236        9       0.00000000       0.00096514      -0.09416133       0.30513848
Ni       9.22942640       6.75376293       6.61212985        9       1.00000000       0.04285669      -0.06523597      -0.31133032
Ni      11.74887749       6.76335311       6.63680602        9       1.00000000      -0.05999301      -0.05814786      -0.36370361
