64
Lattice="10.017611109054092 0.0161236265127347 -0.022447572811932128 5.02276902468826 8.697849383710723 0.02032819419911956 0.0 0.0 21.381415359303464" Properties=species:S:1:pos:R:3:tags:I:1:initial_magmoms:R:1:forces:R:3 unique_id=af6f24492a014bc8a88e61d3f8e8b387 stress="0.0035422087482236617 0.00020576064272245155 -0.00012184586527340198 0.00020576064272245155 0.0033818931476887523 0.00021526607394756921 -0.00012184586527340198 0.00021526607394756921 -0.0025052345537126533" energy=-364.5939384820198 pbc="T T T"
Ni      -0.01081036       0.00459693       0.04759816        0       1.00000000       0.04580894       0.02460613       0.27305780
Ni       2.50194649       0.04238056       0.00000000        0       1.00000000      -0.02445526       0.04963367       0.10639131
Ni       5.01355766       0.01956981       0.04337262        0       1.00000000      -0.00357903       0.03341384       0.22282899
Ni       7.51319840       0.01531163       0.03929130        0       1.00000000      -0.00574422       0.05783534       0.18072848
Ni       1.25173633       2.12288314       0.14047626        1       1.00000000      -0.01316706       0.05617636      -0.20097946
Ni       3.78331186       2.13617647       0.05553314        1       1.00000000      -0.01369193       0.02826493       0.09756117
Ni       6.26334517       2.17302943       0.14159771        1       1.00000000      -0.00565824      -0.04115788      -0.42518749
Ni       8.74245500       2.14113392       0.04291821        0       1.00000000       0.00263610      -0.01353564       0.12266970
Pt       2.56280756       4.35591299       0.14471703        1       0.00000000      -0.06400073      -0.00290783      -0.84432158
Ni       5.03749029       4.34166837       0.00674705        0       1.00000000      -0.09823938      -0.07132676      -0.08262567
Ni       7.48363527       4.34118042       0.01876600        0       1.00000000       0.08120807      -0.08435487      -0.04983991
Pt       9.96520603       4.35666946       0.02124887        0       0.00000000       0.06251822      -0.01874798      -0.10956078
Ni       3.78569729       6.57979460       0.06012486        1       1.00000000      -0.00664768      -0.01576884       0.24218944
Ni       6.24546757       6.55013945       0.00460081        0       1.00000000      -0.02872578       0.12218234      -0.02254971
Ni       8.77474597       6.57017733       0.12944371        1       1.00000000       0.10259693      -0.01388567      -0.58779499
Ni      11.28281103       6.60294934       0.05526428        1       1.00000000       0.00950235      -0.06894899       0.12515843
Ni       1.21559628       0.76794969       2.11894222        2       1.00000000      -0.09134056       0.02860939       0.11271561
Ni       3.77828411       0.77813815       2.09845755        2       1.00000000       0.01923695      -0.00843561       0.13198848
Ni       6.25270492       0.73174805       2.05336317        2       1.00000000       0.03870609      -0.07300666      -0.00460962
Ni       8.77796632       0.73275887       2.05535914        2       1.00000000       0.01770294      -0.01899237       0.02128745
Ni       2.48266766       2.85347419       2.13830312        2       1.00000000      -0.12631335      -0.06576711       0.02194587
Ni       4.99545406       2.85575514       2.07170487        2       1.00000000      -0.02743621      -0.00373222       0.03945426
Ni       7.54558766       2.88985824       2.06233564        2       1.00000000       0.10816230       0.01545376      -0.00329094
Ni      10.01598956       2.89307560       2.13160427        2       1.00000000      -0.01891455       0.03880116       0.09369786
Ni       3.74433606       5.14055868       2.15426843        3       1.00000000      -0.10949087       0.17313684      -0.00579636
Pt       6.22212998       5.03928991       2.07738728        2       0.00000000      -0.04390650      -0.02531522      -0.04964848
Ni       8.80146364       5.06808142       2.14100441        2       1.00000000       0.08925426      -0.06042738       0.10377402
Ni      11.26359002       5.11640497       2.16775921        3       1.00000000      -0.02127675      -0.02216593       0.14678107
Ni       4.96594628       7.29754742       2.12176862        2       1.00000000      -0.05499914       0.08533001       0.11365422
Pt       7.52344656       7.34777185       2.10231815        2       0.00000000      -0.06883431       0.14276085      -0.03942337
Ni      10.06358974       7.26942890       2.08379183        2       1.00000000       0.01012972      -0.00619362       0.02447076
Ni      12.54332327       7.27319985       2.07689833        2       1.00000000       0.00993125       0.02530621      -0.00499066
Ni       0.02678895       1.44343225       4.17496511        5       1.00000000       0.10313428      -0.00162826      -0.15409818
Ni       2.48807591       1.42717392       4.18180065        5       1.00000000      -0.05471148      -0.01417172      -0.14411921
Ni       4.96981837       1.44500267       4.18372904        5       1.00000000       0.02199855      -0.02870190      -0.14824855
Pt       7.56463889       1.49249440       4.14728197        4       0.00000000       0.08643122       0.02105800       0.00636821
Ni       1.20548099       3.62941998       4.16464001        5       1.00000000       0.02271169      -0.09383055      -0.20281342
Pt       3.77526594       3.61583673       4.14501672        4       0.00000000      -0.00588982      -0.07969593       0.13325026
Ni       6.26135379       3.63766660       4.22046561        5       1.00000000       0.05939148      -0.10593960      -0.09232207
Ni       8.80763229       3.64406295       4.19972882        5       1.00000000       0.04987058      -0.07557423      -0.10130885
Ni       2.51832447       5.83464383       4.17563746        5       1.00000000       0.02235863      -0.04377513      -0.14076300
Ni       4.97312894       5.86300872       4.25206363        6       1.00000000      -0.05700900       0.02306385      -0.06059895
Pt       7.50318096       5.80440840       4.24269754        5       0.00000000       0.04890339       0.00637008       0.24846652
Ni      10.04703073       5.78008647       4.18673852        5       1.00000000       0.07058796      -0.03391261      -0.13752617
Ni       3.81112714       7.96103045       4.23623903        5       1.00000000       0.02266861       0.01483711      -0.14198838
Ni       6.23182254       8.02782126       4.25759078        6       1.00000000      -0.02369722       0.05619685       0.00649863
Ni       8.74878574       8.04885518       4.22914553        5       1.00000000      -0.00971512       0.03126603      -0.03466188
Pt      11.25727787       7.96068253       4.20274227        5       0.00000000      -0.04334018      -0.06104682       0.05792188
Ni      -0.03450060      -0.02764017       6.29315669        8       1.00000000       0.01964902       0.05720835      -0.24171873
Ni       2.48833663       0.01154337       6.27768256        8       1.00000000      -0.05936851      -0.07237043      -0.10924803
Ni       4.98629070       0.04184936       6.30493655        8       1.00000000       0.00037430       0.02603083      -0.05196442
Ni       7.53884930      -0.00322773       6.31483725        8       1.00000000       0.02770616       0.03422593      -0.10220721
Pt       1.21665125       2.13355822       6.31419187        8       0.00000000      -0.00486322       0.08276125       0.07951420
Ni       3.74611968       2.15225738       6.30816600        8       1.00000000      -0.05390735       0.01210595      -0.08274234
Pt       6.23581880       2.20594057       6.36831930        9       0.00000000      -0.02001626       0.01323797       0.21859285
Ni       8.75796088       2.20070322       6.30276476        8       1.00000000      -0.01306385      -0.03359990      -0.06678732
Pt       2.50222419       4.43080934       6.26698343        8       0.00000000      -0.09084432       0.03486655       0.84126052
Ni       5.03757547       4.42545607       6.30510765        8       1.00000000      -0.02389177       0.02634947      -0.02781046
Ni       7.50777646       4.36401372       6.31500630        8       1.00000000       0.05547451      -0.05022449       0.08352474
Ni       9.98142773       4.36487557       6.19251649        7       1.00000000      -0.00387962      -0.01524245       0.28008447
Ni       3.78234606       6.58714967       6.30804486        8       1.00000000      -0.04994319      -0.05238180      -0.19738300
Ni       6.20609221       6.56396758       6.31722807        8       1.00000000       0.04326648       0.09772259       0.02501523
Pt       8.79404272       6.57348351       6.38141536        9       0.00000000       0.04902589      -0.02805369       0.44291227
Ni      11.29489582       6.59170878       6.31973220        8       1.00000000       0.03961560      -0.01399153       0.06516450
