64
Lattice="10.141362830445114 0.0032925483971521694 0.004220633187437301 5.073532845777739 8.743421343413722 -0.004876085922331097 0.0 0.0 21.397517487914737" Properties=species:S:1:pos:R:3:tags:I:1:initial_magmoms:R:1:forces:R:3 unique_id=9455c526e7f44b3490621b7f7a9a91d6 stress="0.0024286130225318614 -0.00011137636137519909 0.0001332251888462563 -0.00011137636137519909 0.0016840277024813034 0.0001848107194737049 0.0001332251888462563 0.0001848107194737049 -0.005115618544280493" energy=-368.21633942637345 pbc="T T T"
Ni       0.03287916      -0.01854210       0.09998394        1       1.00000000       0.04289080       0.05343030      -0.49601801
Ni       2.49625154      -0.02958236       0.12229421        1       1.00000000       0.04515235      -0.00683610      -0.22444029
Pt       5.08867295      -0.06757448       0.13631213        1       0.00000000      -0.10873402      -0.00340710      -0.84279552
Ni       7.61757989      -0.04536606       0.09321311        1       1.00000000      -0.05643759      -0.08848014      -0.36130642
Ni       1.26438850       2.20797471       0.05399527        1       1.00000000      -0.03293369       0.03935107       0.18878158
Pt       3.76794340       2.24615717       0.12745993        1       0.00000000       0.00757073      -0.07980457      -0.73559625
Ni       6.34273562       2.23180983       0.05383398        1       1.00000000      -0.04451915      -0.02285605       0.11615263
Pt       8.87745609       2.25730766       0.07715501        1       0.00000000       0.04380767       0.20020119      -1.07876183
Ni       2.50751557       4.41392759       0.03347557        0       1.00000000       0.03737813      -0.00659330       0.35578195
Ni       5.09633281       4.41734797       0.03304583        0       1.00000000      -0.09922389       0.04029832       0.22297928
Ni       7.58239217       4.41715959       0.04184560        0       1.00000000       0.11439682       0.00665887       0.13512175
Ni      10.17577013       4.42041544       0.04291543        0       1.00000000      -0.04844576      -0.00567684       0.30610430
Ni       3.78810025       6.52496896       0.00000000        0       1.00000000      -0.04781316      -0.01134704       0.23499013
Ni       6.36049340       6.53536071       0.00534014        0       1.00000000       0.06175619       0.03459050       0.13937533
Ni       8.86171268       6.50773276       0.15019149        2       1.00000000       0.02740096       0.01525126      -0.31481741
Ni      11.43499056       6.50636068       0.04655243        0       1.00000000      -0.01370358       0.05996216       0.30861411
Ni       1.32159354       0.75095553       2.08178711        4       1.00000000      -0.02412462       0.08190399       0.11706870
Ni       3.74612807       0.69771173       2.12565293        4       1.00000000      -0.11935173      -0.06788466       0.17216240
Ni       6.33822188       0.72533162       2.10935946        4       1.00000000      -0.00615039       0.04238823       0.09355015
Pt       8.82087101       0.71134154       2.13398046        4       0.00000000       0.01954389      -0.16677081       0.20487911
Ni       2.49982358       2.95232764       2.16422173        5       1.00000000      -0.03179268       0.04122284       0.10510208
Ni       5.07919179       2.96581795       2.08869377        4       1.00000000       0.01796400       0.05618407       0.04658804
Ni       7.58407098       2.96256400       2.11977960        4       1.00000000      -0.01441795      -0.00090033       0.13727967
Ni      10.19184857       2.99068145       2.11324605        4       1.00000000       0.08028563       0.07038479       0.10119943
Ni       3.76496638       5.06033534       2.09516055        4       1.00000000      -0.07741122      -0.03504131       0.04616899
Ni       6.35926413       5.07017070       2.03847980        3       1.00000000       0.07215924      -0.02254418       0.01276535
Ni       8.90866237       5.08564485       2.07692085        4       1.00000000       0.07834664      -0.08064857       0.04362935
Ni      11.41385342       5.10363376       2.11085990        4       1.00000000       0.01364017      -0.00368989       0.13418561
Pt       5.09788825       7.20147880       2.10228674        4       0.00000000      -0.03117444      -0.05227644       0.03066838
Ni       7.64734463       7.29288371       2.07343348        4       1.00000000      -0.00117232       0.00137639       0.06557062
Ni      10.15318212       7.22503139       2.16475451        5       1.00000000       0.03351128      -0.08121924       0.16912192
Ni      12.62869730       7.21797350       2.10759869        4       1.00000000      -0.01193981      -0.10727734       0.08682552
Pt       0.07763560       1.49343138       4.17276139        7       0.00000000       0.11961611      -0.01624274       0.00377295
Ni       2.54173430       1.47637543       4.15377101        7       1.00000000       0.05178690      -0.02306946      -0.20925251
Pt       5.05433126       1.42337881       4.09822332        6       0.00000000       0.06626900      -0.00786801      -0.14097564
Ni       7.59474745       1.43407160       4.20778131        7       1.00000000      -0.05426705      -0.07244563      -0.17781747
Ni       1.30331774       3.70200403       4.20924118        7       1.00000000       0.06929810       0.05075738      -0.11127579
Ni       3.74556046       3.71998677       4.15781666        7       1.00000000      -0.04856705       0.07567334      -0.15236334
Pt       6.32579774       3.65762340       4.21369854        7       0.00000000      -0.00764570      -0.00447991      -0.00231499
Ni       8.92875770       3.70070455       4.15315612        7       1.00000000       0.09298103       0.09109283      -0.19320250
Ni       2.53338889       5.81592112       4.20213968        7       1.00000000      -0.01644592       0.03238030      -0.15633603
Ni       5.00962907       5.83245484       4.24575811        7       1.00000000      -0.01772341       0.02381224      -0.04527993
Pt       7.62775353       5.86841953       4.14173990        6       0.00000000       0.00565032       0.01370751       0.02246974
Ni      10.21193285       5.81182269       4.18362447        7       1.00000000       0.02464316       0.03789693      -0.09806874
Ni       3.78193165       7.93910408       4.20176682        7       1.00000000      -0.00962528      -0.02098721      -0.06444121
Ni       6.34867477       8.00629578       4.17189015        7       1.00000000       0.03854225       0.05149328      -0.13639212
Ni       8.88339531       7.99716725       4.13877075        6       1.00000000       0.00077466       0.01283525      -0.22747049
Ni      11.43753421       7.93066884       4.13983906        6       1.00000000       0.01969441      -0.08635899      -0.16312962
Pt      -0.00015279      -0.08877782       6.36376566       10       0.00000000      -0.26608042       0.05058529       0.26539198
Pt       2.51693141      -0.00709552       6.32176812        9       0.00000000       0.26657404       0.01722881       0.15979406
Pt       5.09418961      -0.02636448       6.25978068        9       0.00000000      -0.22180353      -0.18891585       0.91710289
Pt       7.60673205      -0.07079988       6.32055229        9       0.00000000       0.17874721       0.08738931       0.22428961
Ni       1.26910068       2.25124073       6.32296909        9       1.00000000       0.03685760       0.04339095      -0.01378139
Pt       3.78196057       2.32837807       6.25352410        9       0.00000000      -0.13536652      -0.02736389       0.70948410
Ni       6.33135364       2.22736214       6.33826944        9       1.00000000       0.00728648      -0.01275036       0.09466623
Pt       8.85570124       2.29937397       6.24256493        8       0.00000000      -0.14791115      -0.09382021       1.09715754
Ni       2.51083633       4.43417298       6.29225296        9       1.00000000       0.06351034      -0.05681319      -0.30219691
Ni       5.07143190       4.43759533       6.33081984        9       1.00000000      -0.09841356      -0.00351546      -0.15020784
Ni       7.54290720       4.38024111       6.35008258       10       1.00000000      -0.02706215      -0.04473080      -0.02557322
Ni      10.22922051       4.36848843       6.30186114        9       1.00000000       0.03155979      -0.03309429      -0.21952877
Ni       3.79595092       6.46169398       6.29128006        9       1.00000000      -0.02860578       0.00035890      -0.20073498
Ni       6.30571287       6.48635266       6.31747185        9       1.00000000       0.03289316       0.02111762      -0.11882623
Pt       8.90669767       6.42805150       6.39751749       10       0.00000000       0.11432675       0.14431755       0.14873125
Ni      11.45881571       6.47804967       6.29596581        9       1.00000000      -0.06795234       0.03846845      -0.25462129
