64
Lattice="10.22285673420216 -0.023374216952657904 0.015947295114871814 5.0911857014265065 8.84475774490938 -0.018221501352081268 0.013020911936338309 -0.02469702323748145 8.788378314379484" Properties=species:S:1:pos:R:3:tags:I:1:initial_magmoms:R:1:forces:R:3 unique_id=0d0c803c634b4c22a7d363b8ecb121f8 stress="-0.0002615265447105178 -2.1220352765197333e-06 1.3081996783508422e-05 -2.1220352765197333e-06 -0.0002548775357221894 2.4428943446904344e-05 1.3081996783508422e-05 2.4428943446904344e-05 -0.0002065286545789649" energy=-394.57867111952856 pbc="T T T"
Ni       0.05506786       0.04222335       0.15703127        4       1.00000000       0.22006202       0.13186630       0.22194264
Ni       2.57544184       0.02829235       0.21033728        4       1.00000000       0.05340253       0.04844976       0.27748121
Ni       5.06052519      -0.02598693       0.08092956        4       1.00000000      -0.09739588       0.00957281       0.06608204
Pt       7.67883886      -0.06160009      -0.00531011        4       0.00000000      -0.00002569      -0.01767910      -0.16969833
Ni       1.27887202       2.22038259       0.10559509        4       1.00000000       0.03778030       0.06414709       0.14214463
Ni       3.78337787       2.20844540       0.19547031        4       1.00000000      -0.07221500      -0.01772452       0.22460380
Pt       6.35369521       2.28795872       0.16822876        4       0.00000000      -0.06372307       0.11567067       0.51226693
Ni       8.99415479       2.24846601       0.07751923        4       1.00000000       0.09998209       0.08922514       0.03885801
Ni       2.55752917       4.39249569       0.05945505        4       1.00000000       0.01695136      -0.17861021       0.00386314
Ni       5.04339641       4.41848879       0.07138113        4       1.00000000      -0.19752044       0.01512672       0.07184905
Ni       7.72627654       4.40395539       0.07114951        4       1.00000000       0.25712119      -0.01798856       0.03087356
Ni      10.20364467       4.37606495       0.06648036        4       1.00000000      -0.00046044      -0.10200469      -0.00557993
Ni       3.80750926       6.56792372       0.03226541        4       1.00000000      -0.04331553      -0.18848272       0.03097742
Pt       6.42078718       6.61848522      -0.02798263        4       0.00000000       0.05926872      -0.00263553      -0.28864738
Ni       8.94533604       6.59933225       0.13525017        4       1.00000000       0.03941557      -0.09973717       0.18037821
Ni      11.46438601       6.56763899       0.03748785        4       1.00000000      -0.08289221      -0.14239716      -0.07975567
Ni       1.33899303       0.77984445       2.16579311        3       1.00000000       0.00807418       0.10437444       0.02919661
Ni       3.78670802       0.74671816       2.18319451        3       1.00000000       0.02803529      -0.02026975       0.03265594
Pt       6.30040894       0.75895451       2.28014109        3       0.00000000      -0.05070444       0.10363133      -0.04254928
Pt       9.02038041       0.81718486       2.19236704        3       0.00000000      -0.00175529      -0.04688796      -0.08237187
Ni       2.57015582       2.92020450       2.16476683        3       1.00000000      -0.06858436       0.04282783       0.01123602
Ni       5.01582311       2.95738484       2.23609690        3       1.00000000      -0.15320484      -0.01791146       0.17887875
Ni       7.72332610       2.97429473       2.21246990        3       1.00000000       0.11808285       0.03051996       0.05487798
Ni      10.22852213       2.93566414       2.19429377        3       1.00000000       0.03511658      -0.05247527       0.05447545
Ni       3.82777125       5.07785058       2.19709221        3       1.00000000      -0.04823686      -0.06718225       0.05047138
Pt       6.41659612       5.09542865       2.18614917        3       0.00000000       0.01040532      -0.02450662      -0.14212147
Ni       8.93000145       5.09337415       2.20739023        3       1.00000000       0.03891832      -0.09830584       0.06122636
Pt      11.47344025       5.03806511       2.15722587        3       0.00000000       0.02555844      -0.04461710      -0.06184498
Pt       5.12914012       7.34771940       2.16299759        3       0.00000000       0.02928133      -0.10155313      -0.19753797
Ni       7.66349954       7.37718894       2.19132975        3       1.00000000      -0.03703132      -0.02558402      -0.01393790
Pt      10.10458091       7.32958994       2.22332114        3       0.00000000      -0.12328194      -0.07139708       0.02410985
Pt      12.74631605       7.28366387       2.21085525        3       0.00000000      -0.02951132      -0.02242631      -0.10353537
Ni       0.01826164       1.49554342       4.38216162        2       1.00000000       0.11428052      -0.03516772      -0.01595167
Pt       2.59973269       1.47892783       4.27442278        2       0.00000000       0.10172431       0.01845958       0.11773981
Ni       5.09579313       1.42984212       4.38341732        2       1.00000000       0.00262667       0.04562741       0.14759098
Pt       7.72174610       1.47585004       4.38864623        2       0.00000000       0.03882463       0.09925965       0.16063280
Pt       1.24463218       3.71301913       4.42094457        2       0.00000000      -0.01880595      -0.03478445      -0.01373721
Ni       3.82954522       3.72594563       4.34772787        2       1.00000000      -0.08774299       0.08326745      -0.06912427
Pt       6.35911301       3.72023144       4.37712979        2       0.00000000      -0.05095567      -0.01959346       0.03660228
Ni       8.95094740       3.70299658       4.38544620        2       1.00000000       0.01805897       0.13741568      -0.06055477
Ni       2.53949919       5.85513556       4.40827299        2       1.00000000      -0.08092588      -0.06613279      -0.06175465
Ni       5.06128065       5.84343492       4.40055956        2       1.00000000      -0.10296274      -0.06933335      -0.14184914
Ni       7.71707003       5.85566765       4.35961617        2       1.00000000       0.19531436      -0.02709676      -0.16928990
Ni      10.21134411       5.87772693       4.37494513        2       1.00000000       0.01169684      -0.03033344      -0.07723022
Pt       3.78180651       8.00905539       4.40444754        2       0.00000000       0.05034865       0.00430701       0.04735833
Pt       6.43411408       8.02837455       4.33294351        2       0.00000000       0.06887440       0.02555475       0.05862129
Ni       8.98102496       8.06763826       4.36362498        2       1.00000000      -0.00139927       0.00384571       0.07133721
Ni      11.42807384       8.04173608       4.42147414        2       1.00000000      -0.06533384      -0.07962275      -0.02717398
Pt      -0.04799726       0.01880505       6.58700286        1       0.00000000      -0.14643848       0.01366353       0.10086395
Pt       2.59378644      -0.03249558       6.59598695        1       0.00000000       0.03696578       0.03345498       0.21796468
Ni       5.16063644      -0.06100067       6.49741073        1       1.00000000       0.02311120      -0.03312110      -0.13862906
Ni       7.62584236      -0.07961856       6.43293872        1       1.00000000      -0.14556026      -0.11528202      -0.30426646
Ni       1.24240799       2.24174533       6.52823638        1       1.00000000      -0.03166321       0.05263371       0.01437551
Pt       3.81134248       2.29116326       6.55559722        1       0.00000000      -0.12239022       0.22682567       0.17224450
Pt       6.42211117       2.18665328       6.51287429        1       0.00000000       0.07124273      -0.00918605      -0.18168585
Ni       8.98336103       2.23576725       6.52594830        1       1.00000000       0.07311263       0.21818327      -0.11444323
Ni       2.54258917       4.46923324       6.50939247        1       1.00000000      -0.06221925       0.20718268      -0.03786258
Ni       5.09281130       4.47840259       6.50801802        1       1.00000000      -0.05112958       0.16588559      -0.05594175
Ni       7.68244254       4.40317141       6.51187427        1       1.00000000       0.02934948       0.01581329      -0.10021029
Ni      10.22935705       4.36933431       6.52748520        1       1.00000000       0.02915354       0.00509218      -0.02499437
Ni       3.80026885       6.55773368       6.49867912        1       1.00000000      -0.05111599      -0.05812920      -0.07538446
Ni       6.35413609       6.54819251       6.39280716        1       1.00000000      -0.00175369      -0.10117049      -0.46906166
Pt       8.99401111       6.53364069       6.49785027        1       0.00000000       0.08474010      -0.03463326       0.07799858
Ni      11.52866950       6.59195653       6.48495761        1       1.00000000       0.06337474      -0.03792088      -0.19505324
