64
Lattice="10.20910265459939 0.02602113274466009 -0.035842158648706095 5.12708628929182 8.865658037677756 -0.02476426613673835 0.0 0.0 21.517485407311483" Properties=species:S:1:pos:R:3:tags:I:1:initial_magmoms:R:1:forces:R:3 unique_id=3eaaf6fa88aa47a4be0996a68d6fc9e0 energy=-372.6486584545166 stress="0.002577072089446226 0.00010896835135205036 -0.00038304680526109745 0.00010896835135205036 0.0027455499718459526 -2.6512667370787284e-05 -0.00038304680526109745 -2.6512667370787284e-05 -0.004079434002753289" pbc="T T T"
Pt      -0.00916262      -0.02578662       0.00949498        0       0.00000000       0.00736735       0.19212489      -0.26021919
Ni       2.55678389       0.00535478       0.09873663        1       1.00000000      -0.00672925      -0.00668912       0.13431252
Pt       5.11582627       0.08489592       0.02934952        0       0.00000000       0.08451033      -0.04329091      -0.25376933
Ni       7.64328759       0.03330082       0.12487505        1       1.00000000      -0.05109579       0.05379761      -0.25551512
Pt       1.33697925       2.25903786       0.01415174        0       0.00000000      -0.06296664      -0.08135759       0.02227631
Ni       3.83197413       2.23414232       0.07155258        1       1.00000000       0.02832535       0.11367055       0.01708250
Ni       6.43527438       2.23955549       0.06468919        1       1.00000000       0.06159515       0.02468150       0.14326870
Ni       8.89142776       2.27726892       0.03693514        0       1.00000000       0.06563132      -0.07002275       0.13491980
Ni       2.54738124       4.47004815       0.09538726        1       1.00000000      -0.00336314       0.04760407       0.22021392
Pt       5.11657703       4.48045556       0.12195237        1       0.00000000       0.00575287       0.14308018      -0.90245849
Ni       7.68419835       4.40393456       0.07697404        1       1.00000000      -0.04948886      -0.01589789       0.18283381
Ni      10.21489709       4.46065138       0.04518354        0       1.00000000       0.01969496       0.06044559       0.11899001
Ni       3.80600111       6.63525320       0.04720107        0       1.00000000      -0.04443258      -0.00827313       0.05778214
Ni       6.40710320       6.64315686       0.05295862        1       1.00000000      -0.02843295      -0.05838849      -0.05280254
Pt       8.89092863       6.59860160       0.00000000        0       0.00000000       0.07893120      -0.02321909      -0.28164991
Ni      11.51861150       6.62338755       0.12335586        1       1.00000000      -0.09337189      -0.04320228      -0.49774160
Ni       1.32641704       0.75021477       2.21682411        3       1.00000000       0.01447449       0.01713034       0.06548668
Ni       3.76238906       0.76717405       2.18207668        3       1.00000000      -0.11035502       0.01360391       0.07304072
Ni       6.37674582       0.76766848       2.19766161        3       1.00000000      -0.01620787      -0.02819731       0.17387279
Pt       8.90083638       0.80542475       2.22720473        3       0.00000000       0.07468670      -0.00691520       0.09880867
Ni       2.56127490       2.95617582       2.19755889        3       1.00000000       0.01590032      -0.01969256       0.02162909
Pt       5.12362255       2.93497721       2.18176387        3       0.00000000      -0.02779496      -0.16774182       0.02268550
Ni       7.64305223       3.00349207       2.15814389        3       1.00000000       0.05890337       0.02659299       0.06273901
Pt      10.24524825       3.02713583       2.17453164        3       0.00000000       0.02054194       0.03139721      -0.01226579
Ni       3.79654892       5.14453366       2.20055995        3       1.00000000      -0.08571832      -0.07689224       0.14541936
Ni       6.43475565       5.15286619       2.18721090        3       1.00000000       0.11190613      -0.06271303       0.06758862
Ni       8.89805082       5.16561477       2.15541601        3       1.00000000      -0.03178620       0.01286636       0.05391405
Ni      11.52887743       5.15502963       2.13728758        2       1.00000000       0.04569063      -0.06077848       0.05510278
Pt       5.16886696       7.30788836       2.18743534        3       0.00000000       0.02266229      -0.07848509      -0.02419359
Ni       7.66151692       7.40313304       2.15320858        3       1.00000000      -0.02406147       0.04252677       0.04205499
Pt      10.18416463       7.40886461       2.17184534        3       0.00000000      -0.08605661       0.01928869       0.12596187
Pt      12.77069605       7.35557467       2.18167298        3       0.00000000       0.03324296       0.00740024       0.14039759
Ni      -0.00289788       1.47890346       4.40389161        5       1.00000000      -0.06327199       0.01887010      -0.09977938
Ni       2.50004334       1.51302355       4.35882384        5       1.00000000      -0.02099435       0.03193454      -0.18318838
Pt       5.15220216       1.49861410       4.39445991        5       0.00000000       0.01117543       0.10096642      -0.02979894
Ni       7.65934824       1.47375505       4.33893834        4       1.00000000       0.02189882      -0.12050058      -0.09116701
Ni       1.27616775       3.64757747       4.39028361        5       1.00000000      -0.04413269      -0.06586792      -0.05825090
Pt       3.73445576       3.72769346       4.32701788        4       0.00000000      -0.13935539      -0.06937595      -0.09613191
Ni       6.38091216       3.68616808       4.33133584        4       1.00000000      -0.01531516      -0.06725391      -0.20038888
Pt       8.90744620       3.61629181       4.38400590        5       0.00000000       0.01276348      -0.04731363      -0.03475821
Ni       2.58884297       5.92589215       4.36640815        5       1.00000000       0.02973500       0.09770177       0.01482349
Ni       5.05530441       5.92800000       4.33804353        4       1.00000000      -0.13168099       0.08606043      -0.17727949
Pt       7.57818069       5.87659068       4.33244700        4       0.00000000      -0.09051956       0.00158951      -0.10419027
Pt      10.28199016       5.86179569       4.30820736        4       0.00000000       0.05945365      -0.05723876      -0.15988337
Ni       3.80801219       8.11147819       4.37490604        5       1.00000000      -0.06207605      -0.03088351      -0.05445814
Pt       6.32494948       8.19078954       4.38053022        5       0.00000000      -0.02576021      -0.02228375      -0.12126092
Pt       8.91888711       8.17747386       4.36999114        5       0.00000000      -0.02455568       0.00663688      -0.14270665
Ni      11.54180217       8.14477694       4.32140120        4       1.00000000       0.06200279      -0.07506324      -0.16814804
Ni      -0.01347833       0.02496469       6.40794097        6       1.00000000      -0.07187979       0.18363770       0.52246671
Ni       2.52176373       0.03199427       6.51748541        7       1.00000000      -0.04208741       0.10784716      -0.16321496
Ni       5.07257829       0.02509797       6.42322840        6       1.00000000       0.11237548      -0.05634059       0.62524957
Pt       7.67338462       0.07008203       6.46989347        7       0.00000000      -0.03984228      -0.07105902       0.13052359
Ni       1.25915655       2.21060742       6.37161954        6       1.00000000       0.00567698      -0.05571956       0.16802262
Ni       3.77988460       2.19279087       6.49257573        7       1.00000000      -0.05657033       0.01003829      -0.18698807
Ni       6.39598399       2.24693146       6.48666027        7       1.00000000       0.09629770       0.12323667      -0.07857171
Ni       8.94304660       2.24114592       6.48193822        7       1.00000000       0.12319861      -0.07972999      -0.05586954
Ni       2.51874194       4.38802863       6.48844589        7       1.00000000      -0.03304883      -0.07627701      -0.19307679
Pt       5.12683811       4.45633142       6.40516968        6       0.00000000       0.15114814       0.09918062       0.90988562
Ni       7.67490259       4.42091320       6.50123698        7       1.00000000      -0.06179231      -0.00198171      -0.10445170
Ni      10.20205578       4.40444747       6.48393870        7       1.00000000       0.08706405      -0.03061654      -0.11052360
Ni       3.86054592       6.65998556       6.45261166        7       1.00000000       0.07344186       0.04746563      -0.16984741
Ni       6.37888762       6.68279210       6.49534476        7       1.00000000      -0.01631918      -0.00784667      -0.08675804
Ni       8.89854301       6.64143479       6.39489718        6       1.00000000       0.01570888      -0.05141469       0.51549753
Pt      11.50488550       6.62269049       6.51334796        7       0.00000000       0.04930549       0.11714738       0.34445734
