64
Lattice="10.29842755454343 -0.027230728591146686 0.006566036074482629 5.125631274548219 8.88093569943619 -0.013715051623982235 0.005361146005063167 -0.016025933766043304 8.775759545295363" Properties=species:S:1:pos:R:3:tags:I:1:initial_magmoms:R:1:forces:R:3 unique_id=eba41e5d1b034f41bf96f517cb76e3fa stress="0.00019360394386921248 4.328393834110116e-06 -1.390865943096821e-05 4.328393834110116e-06 0.00019873865916943817 9.16647779014868e-06 -1.390865943096821e-05 9.16647779014868e-06 0.0001937847824013822" energy=-397.2304325796567 pbc="T T T"
Ni      -0.02152377       0.02421408       0.20671500        4       1.00000000      -0.09245192       0.05288512       0.32647625
Ni       2.57057612      -0.00496403       0.21436067        4       1.00000000      -0.00361303      -0.00980561       0.40341946
Ni       5.14826130      -0.02422468       0.16778829        4       1.00000000      -0.02137157       0.13879456       0.28188429
Ni       7.74811172      -0.06039839       0.12347366        4       1.00000000       0.07341577      -0.12652078       0.20859524
Ni       1.26059961       2.21218347       0.08529213        4       1.00000000      -0.08413504      -0.06503534       0.13534308
Pt       3.78976846       2.21955674       0.10917287        4       0.00000000      -0.06578734       0.03460813      -0.14090007
Pt       6.45442884       2.14632523       0.19443938        4       0.00000000       0.03095228      -0.05868303       0.19069844
Ni       9.02273843       2.15724915       0.14857368        4       1.00000000      -0.03402274      -0.19083630       0.15125420
Ni       2.56576942       4.45509301       0.06536745        4       1.00000000       0.11277151       0.04772372       0.04588253
Ni       5.10420844       4.44647946       0.18312499        4       1.00000000      -0.01608724       0.00474370       0.32712396
Pt       7.78001934       4.43523132       0.10137409        4       0.00000000       0.10833131      -0.02399410      -0.08105863
Ni      10.31780146       4.42586137       0.05878923        4       1.00000000       0.12335719       0.00731773       0.10821770
Ni       3.81031897       6.66355013       0.18561949        4       1.00000000      -0.05138627      -0.04386758       0.29149702
Pt       6.38719138       6.69681752       0.18588017        4       0.00000000      -0.08348372       0.02798856       0.11128280
Ni       9.01409615       6.65744163       0.06949093        4       1.00000000      -0.00786763       0.02686420       0.06344676
Ni      11.59145344       6.64841265       0.05426046        4       1.00000000       0.14115139       0.06312938      -0.02943188
Ni       1.28585042       0.72090852       2.16027539        3       1.00000000      -0.03420225       0.02622473      -0.04348194
Ni       3.85557002       0.75328851       2.19435605        3       1.00000000       0.08158662       0.07913410       0.01146688
Ni       6.46634281       0.73093596       2.24147105        3       1.00000000       0.08976007       0.08408521       0.12329911
Ni       8.98585443       0.69177480       2.18275398        3       1.00000000      -0.11075996      -0.00008020      -0.01920660
Ni       2.59504207       2.95337159       2.20121275        3       1.00000000       0.03504433       0.08215393      -0.00655219
Ni       5.11537312       2.95933621       2.23006894        3       1.00000000      -0.14197515      -0.03022215      -0.03054882
Ni       7.71969413       2.92645678       2.23933918        3       1.00000000       0.04498911      -0.05986420      -0.05432182
Pt      10.26032011       2.87624278       2.18353961        3       0.00000000       0.01484809       0.00980345       0.01896817
Ni       3.89304531       5.17655721       2.20389674        3       1.00000000       0.10960195      -0.00301621       0.11129296
Ni       6.40412828       5.16936009       2.22489510        3       1.00000000      -0.03043765       0.11553917      -0.07329635
Ni       8.96593352       5.16168542       2.22651834        3       1.00000000      -0.04509890      -0.04668917       0.10407707
Pt      11.65134964       5.15720169       2.13915537        3       0.00000000       0.12011959      -0.01227526      -0.01020399
Ni       5.09034680       7.38766857       2.18369487        3       1.00000000      -0.12622956      -0.09633804      -0.07987301
Ni       7.70198594       7.38573771       2.18775703        3       1.00000000       0.02993694      -0.10927500      -0.07446831
Pt      10.26521425       7.40345079       2.10159483        3       0.00000000       0.05122030      -0.08861822      -0.03644201
Ni      12.89233577       7.39171179       2.15120613        3       1.00000000      -0.01336100       0.00768751      -0.06407761
Ni      -0.02488576       1.49445386       4.33628650        2       1.00000000      -0.00363601      -0.02036079      -0.09386254
Pt       2.60973351       1.52156519       4.29838268        2       0.00000000      -0.00290031       0.00127177      -0.09548473
Ni       5.15151621       1.49390067       4.31413634        2       1.00000000       0.06858066       0.07181702      -0.19298599
Ni       7.75036703       1.47917313       4.30871080        2       1.00000000       0.09982251       0.08886368      -0.20053726
Pt       1.29247069       3.69809809       4.42059023        2       0.00000000       0.01056442      -0.03914909      -0.04183678
Ni       3.86893303       3.71905935       4.32080978        2       1.00000000       0.02611231       0.09966171      -0.24506438
Pt       6.44148189       3.70167571       4.24392957        2       0.00000000      -0.08446083      -0.05122091       0.09186468
Ni       8.98201715       3.65981353       4.34394040        2       1.00000000      -0.03039733      -0.04529715      -0.22909187
Ni       2.59252087       5.88437968       4.33998190        2       1.00000000       0.08600150       0.00220407      -0.15571772
Ni       5.10622190       5.87437788       4.29443868        2       1.00000000      -0.08284941      -0.01492320      -0.14824576
Ni       7.71254624       5.85763409       4.31157461        2       1.00000000      -0.05766768      -0.01146725      -0.24612336
Pt      10.24812772       5.84965889       4.41209138        2       0.00000000      -0.01656945       0.00453740      -0.10196258
Pt       3.83761147       8.14637084       4.25149305        2       0.00000000      -0.02355872      -0.00981478       0.04411773
Pt       6.39301300       8.10054597       4.21898029        2       0.00000000      -0.00474036      -0.05637145       0.01914825
Pt       8.97798870       8.11465212       4.30400950        2       0.00000000      -0.03292696       0.05455710       0.10893554
Pt      11.60364372       8.15052568       4.32638861        2       0.00000000       0.02487709       0.04147951       0.00392723
Pt      -0.01781286       0.03066162       6.56615918        1       0.00000000      -0.04735942       0.03423397       0.17303343
Pt       2.59405810       0.03699260       6.60074186        1       0.00000000       0.00745977       0.08674220       0.25680457
Pt       5.18950337      -0.08784933       6.58218669        1       0.00000000       0.04303888      -0.18714834       0.11211832
Ni       7.72599049      -0.03562744       6.52904457        1       1.00000000       0.05311874       0.07264637      -0.10984307
Ni       1.30429677       2.26357240       6.52292046        1       1.00000000       0.05605206       0.08198789      -0.04437883
Ni       3.83138220       2.23139566       6.43716916        1       1.00000000      -0.02356540       0.00763154      -0.29070662
Pt       6.44733196       2.17709110       6.43533280        1       0.00000000       0.01393159       0.00325041      -0.24809132
Pt       9.05038256       2.27463151       6.49443000        1       0.00000000       0.14218592       0.11910733       0.02059915
Ni       2.51859789       4.40908248       6.50919717        1       1.00000000      -0.12779707      -0.02390948      -0.08329119
Pt       5.06998035       4.38422253       6.50830704        1       0.00000000      -0.11839106      -0.02637606       0.09893202
Ni       7.76581146       4.43323884       6.41610305        1       1.00000000       0.05070953       0.05821520      -0.31934081
Ni      10.30308427       4.43659433       6.53183152        1       1.00000000       0.04002567       0.12937790      -0.00366579
Pt       3.73632690       6.63215319       6.52727060        1       0.00000000      -0.14237421       0.01290535       0.16192054
Pt       6.48050544       6.58586475       6.43727523        1       0.00000000      -0.01407205      -0.02192801      -0.27683617
Ni       9.02222774       6.58173599       6.51925576        1       1.00000000      -0.02972448      -0.11632259      -0.08935315
Ni      11.55142455       6.58387770       6.52336524        1       1.00000000      -0.08430539      -0.18976330      -0.14534423
