64
Lattice="10.381534813090427 0.0007667246442602496 0.08098654302575091 5.191431409564843 9.046073264950271 0.061944089804542864 0.0 0.0 21.77027486717831" Properties=species:S:1:pos:R:3:tags:I:1:initial_magmoms:R:1:forces:R:3 unique_id=7ce5181230da4d439b3b59dd704d87f0 energy=-381.46148113282413 stress="0.005357688388262956 -0.00019658893501523013 0.00038332608424973514 -0.00019658893501523013 0.005697317137438304 0.00023847980689978794 0.00038332608424973514 0.00023847980689978794 -0.0015434164465020356" pbc="T T T"
Pt      -0.08885354       0.01435439       0.01923990        0       0.00000000      -0.21498213       0.04608262      -0.29012507
Ni       2.64712391      -0.00294087       0.07006464        1       1.00000000       0.03734134      -0.03952901       0.22773334
Ni       5.21922774      -0.00501063       0.09874582        1       1.00000000       0.22638850      -0.02697596       0.35843411
Ni       7.74937018       0.00764353       0.23156002        2       1.00000000      -0.15877631      -0.00956715       0.26755019
Pt       1.29578695       2.27363826       0.00000000        0       0.00000000       0.01103112       0.09536121      -0.46985995
Ni       3.93108939       2.23773089       0.17741451        2       1.00000000       0.09160066       0.05093697      -0.28371777
Ni       6.51022446       2.21793099       0.21865363        2       1.00000000      -0.00699578      -0.22765483       0.13915664
Ni       9.04917048       2.28054524       0.14819202        1       1.00000000      -0.08504300      -0.05758868       0.33955027
Pt       2.54439877       4.60659862       0.14712957        1       0.00000000      -0.10910836       0.14132312      -0.84596722
Pt       5.25762771       4.44115457       0.20190313        2       0.00000000       0.15763108      -0.13010553      -0.50001082
Ni       7.83954692       4.51078955       0.21928911        2       1.00000000       0.08323783       0.08676647       0.19924492
Ni      10.34162138       4.56258378       0.16448601        2       1.00000000      -0.02458571       0.17425666       0.33010296
Ni       3.86490887       6.80879542       0.19299509        2       1.00000000      -0.10529192       0.05541068      -0.15832578
Pt       6.55683293       6.76274901       0.19029978        2       0.00000000       0.03565812      -0.19335617      -0.81177808
Ni       9.13970332       6.77713844       0.15002151        2       1.00000000       0.12073808      -0.07594883       0.40896551
Ni      11.67507535       6.81395968       0.24927304        2       1.00000000       0.08582118       0.07218469      -0.03448031
Pt       1.29033097       0.75834035       2.24860192        3       0.00000000       0.00098332       0.04462503       0.01758646
Pt       4.01405851       0.75650745       2.19958268        3       0.00000000       0.14976367      -0.09868050       0.01003429
Ni       6.56293616       0.74328095       2.28365900        4       1.00000000       0.11618885      -0.07353025       0.10188408
Ni       9.02064161       0.75753837       2.32914221        4       1.00000000      -0.14481667       0.07016689       0.16678052
Pt       2.64925672       3.03880135       2.30191723        4       0.00000000       0.02728835       0.01216420       0.14233125
Ni       5.24281033       3.01656144       2.31987943        4       1.00000000       0.02043830       0.02880301       0.30683829
Pt       7.73892203       3.01095326       2.32659158        4       0.00000000      -0.04180896      -0.07574638       0.11587544
Pt      10.32910369       3.09371950       2.30426252        4       0.00000000      -0.03959103      -0.00494195      -0.02902916
Pt       3.90450041       5.29180020       2.31844879        4       0.00000000       0.01882915       0.05627696       0.09152143
Ni       6.54663837       5.24038457       2.33867679        4       1.00000000       0.11678367      -0.06466379       0.30834583
Ni       9.10102717       5.27780277       2.33402741        4       1.00000000      -0.00950119      -0.00853159       0.10003350
Ni      11.66037280       5.30982963       2.35180227        5       1.00000000      -0.05940712      -0.02930665       0.13814633
Pt       5.11186177       7.57437041       2.32369663        4       0.00000000      -0.10615614       0.08857281       0.17200313
Pt       7.86280221       7.45574209       2.34994901        4       0.00000000       0.06629014      -0.03384609       0.14994568
Pt      10.49597404       7.49965736       2.32550217        4       0.00000000       0.06447590       0.02517960       0.19591412
Ni      12.97500082       7.59618382       2.34523342        4       1.00000000       0.01055459       0.11466493       0.09594447
Pt      -0.10465020       1.53204153       4.51322173        7       0.00000000      -0.20758472       0.06816149      -0.18679659
Pt       2.63461824       1.53226181       4.51076726        7       0.00000000       0.06297266       0.08963900      -0.07256195
Pt       5.32342885       1.53506013       4.43973466        6       0.00000000       0.12374302      -0.00456944      -0.08679564
Ni       7.81963292       1.51541031       4.48495087        7       1.00000000      -0.09695447      -0.00260656      -0.21711518
Pt       1.22700087       3.83313595       4.46948126        7       0.00000000      -0.15089013       0.12374247      -0.07986491
Ni       3.94986622       3.76450557       4.47995116        7       1.00000000       0.04125968      -0.02847896      -0.24368763
Ni       6.57082662       3.77485981       4.47712581        7       1.00000000       0.12128791      -0.01448336      -0.24541975
Ni       9.07194991       3.80884512       4.52554554        7       1.00000000      -0.20919719       0.02997655      -0.22306391
Pt       2.56559077       6.13078671       4.42417092        6       0.00000000      -0.09606869       0.18826167      -0.11150927
Pt       5.27528958       5.98517074       4.45183769        7       0.00000000       0.01609481      -0.07040096      -0.08745851
Ni       7.86847634       5.97854905       4.50678538        7       1.00000000       0.11717903      -0.18193068      -0.25844350
Ni      10.36816340       6.01885151       4.54657695        7       1.00000000      -0.14854039      -0.05253793      -0.11831850
Ni       3.87682697       8.33277606       4.48129113        7       1.00000000      -0.18698614       0.04523793      -0.25224178
Pt       6.49922050       8.31341933       4.54049985        7       0.00000000      -0.08828486      -0.06672474      -0.02297306
Pt       9.18726037       8.22278700       4.63284658        8       0.00000000       0.09722496      -0.03049411       0.05471654
Ni      11.74325256       8.32882024       4.54618112        7       1.00000000       0.10091867       0.14011184      -0.21702075
Ni       0.06109338       0.05565448       6.57483236        9       1.00000000       0.00164024      -0.05130837       0.22071494
Ni       2.64497480       0.00970428       6.68209452       10       1.00000000      -0.07696111      -0.05796769      -0.14604513
Ni       5.20745025      -0.00313910       6.69889542       10       1.00000000       0.01728459       0.01658989      -0.15923804
Pt       7.85434393       0.04768696       6.68266747       10       0.00000000       0.05144857      -0.07090373      -0.25274917
Ni       1.28264259       2.24851649       6.57702773        9       1.00000000      -0.02474384      -0.00116395       0.27722884
Pt       3.90065614       2.17930734       6.74375752       10       0.00000000      -0.08116357       0.21036247       0.26047729
Pt       6.57882545       2.25694368       6.72637363       10       0.00000000       0.06260066       0.04667413      -0.04737810
Ni       9.16333220       2.28307089       6.73385648       10       1.00000000      -0.02148357       0.02191232      -0.24056622
Pt       2.57661189       4.50392668       6.61721605        9       0.00000000       0.08159914      -0.14817504       0.70630877
Pt       5.25184920       4.50498488       6.62620576        9       0.00000000       0.00756843      -0.13151355       0.67834775
Pt       7.95403523       4.53767293       6.68946789       10       0.00000000      -0.06860348       0.03545484      -0.17319226
Ni      10.40641328       4.52161627       6.73544918       10       1.00000000       0.08728877      -0.01198072      -0.29012182
Pt       3.94893234       6.84757478       6.71953429       10       0.00000000       0.02971360       0.04516066       0.10551700
Pt       6.62629652       6.84200730       6.67207282       10       0.00000000       0.07891318      -0.09729276       0.77196009
Ni       9.13416574       6.80498802       6.74117872       10       1.00000000      -0.05484945      -0.03516269      -0.12245975
Pt      11.59645134       6.81689825       6.77027487       11       0.00000000       0.07859419      -0.01639254      -0.18087840
