64
Lattice="9.984153237007265 0.00025203010281191814 0.012646184465507445 4.992294882975183 8.658932347677174 0.0028314918556296854 0.0 0.0 21.29987061329467" Properties=species:S:1:pos:R:3:tags:I:1:initial_magmoms:R:1:forces:R:3 unique_id=8fd651c4becf46fa9f8037d4e0cfefd1 stress="0.004368302699724611 7.131662534221885e-05 0.0001202156605012223 7.131662534221885e-05 0.004672905502528624 -8.241493036797788e-07 0.0001202156605012223 -8.241493036797788e-07 -0.0013338245312407284" energy=-362.7437526081902 pbc="T T T"
Pt       0.06454463      -0.07165155       0.00000000        0       0.00000000       0.05673881      -0.05241874      -0.34767481
Ni       2.55884801       0.00519790       0.07453444        1       1.00000000       0.08412934      -0.02223985       0.19597711
Ni       4.98701093       0.00507272       0.16441306        2       1.00000000      -0.03082216       0.01700508      -0.22122574
Ni       7.42906388      -0.03917317       0.14483859        1       1.00000000      -0.03748675       0.01414268      -0.28662685
Ni       1.32242303       2.16538537       0.06426893        1       1.00000000      -0.03044690       0.01996829       0.14792939
Ni       3.74984886       2.16797526       0.07040539        1       1.00000000       0.05691218      -0.02110877       0.28944483
Ni       6.16950390       2.17401477       0.07507886        1       1.00000000      -0.10907087      -0.07198709       0.17184008
Pt       8.66910703       2.18419232       0.01639593        0       0.00000000       0.03396683       0.06000890      -0.55861992
Ni       2.55583909       4.33030063       0.06448929        1       1.00000000       0.01678524      -0.03268185       0.24418722
Ni       4.98980606       4.32655292       0.06887046        1       1.00000000      -0.04090749      -0.06071645       0.24388340
Ni       7.42696443       4.36898881       0.07518526        1       1.00000000       0.10631461      -0.02400286       0.06356570
Pt      10.03067632       4.40196257       0.16665717        2       0.00000000       0.00593537       0.04538280      -0.95294776
Ni       3.72781461       6.44122522       0.07093598        1       1.00000000       0.03385669       0.00611090       0.16400169
Ni       6.26657331       6.44049161       0.07363883        1       1.00000000       0.00953035       0.05100246       0.13735189
Ni       8.71635239       6.54032920       0.16447775        2       1.00000000       0.06090983       0.06883787      -0.26054072
Ni      11.26424314       6.53670339       0.08839548        1       1.00000000      -0.06621608       0.02688963       0.17185908
Ni       1.31426218       0.72661128       2.14345013        3       1.00000000       0.06482045      -0.00909854       0.11826094
Ni       3.74344791       0.72786118       2.12557104        3       1.00000000      -0.02242410       0.03518247       0.16243809
Ni       6.18628933       0.72445042       2.13383235        3       1.00000000      -0.06727531       0.03333147       0.17076646
Pt       8.72086042       0.69807214       2.21642558        4       0.00000000       0.02536987       0.04726489      -0.01661154
Ni       2.51936432       2.88598172       2.11654572        3       1.00000000       0.07579076      -0.00613422       0.08627666
Ni       4.97673596       2.88435985       2.11550237        3       1.00000000      -0.12337574      -0.00542119       0.12030223
Ni       7.41563908       2.91797934       2.11372536        3       1.00000000      -0.15222834      -0.04638471      -0.02123831
Ni      10.05003470       2.87722176       2.15603408        4       1.00000000       0.21188917      -0.11495454       0.01298024
Ni       3.73744331       5.03031910       2.09220473        3       1.00000000      -0.00727373      -0.08466123       0.06492454
Ni       6.24316769       5.04484599       2.09301923        3       1.00000000      -0.02799894      -0.01521830       0.08127888
Ni       8.70304989       5.10060112       2.14321290        3       1.00000000      -0.05504322       0.14439185       0.00530149
Ni      11.28162249       5.07390050       2.18914649        4       1.00000000       0.01643981      -0.02884134       0.17308089
Ni       5.01822912       7.16537328       2.11989137        3       1.00000000       0.03591592       0.01612332       0.02978980
Ni       7.49187345       7.22697674       2.12646608        3       1.00000000      -0.05660638       0.12035972       0.12677610
Ni       9.98798969       7.22005530       2.13188176        3       1.00000000       0.03265916       0.00738186       0.18875447
Ni      12.45499903       7.16841500       2.13545368        3       1.00000000       0.00253821      -0.04865924       0.20237611
Ni       0.06173615       1.42476934       4.22812123        6       1.00000000       0.16169682       0.07505094      -0.09096878
Ni       2.51146692       1.44146730       4.20321471        6       1.00000000       0.09585088      -0.03674942      -0.15289672
Ni       4.98120381       1.46958174       4.16785392        6       1.00000000      -0.10746840      -0.05076944      -0.14669049
Ni       7.43273411       1.43394862       4.21506826        6       1.00000000      -0.24561791      -0.06111563      -0.07240154
Ni       1.32463560       3.58403036       4.15544104        6       1.00000000       0.04159784      -0.04402275      -0.15321137
Ni       3.73395979       3.57161267       4.20516553        6       1.00000000      -0.01585610      -0.04759941      -0.17845780
Ni       6.20429839       3.57093565       4.20810372        6       1.00000000      -0.10042660      -0.06654369      -0.18532891
Pt       8.70356516       3.59854320       4.13271002        5       0.00000000       0.00321635       0.03747132       0.01948901
Ni       2.47048927       5.76336466       4.20652962        6       1.00000000      -0.07728808      -0.02185379      -0.03845502
Pt       4.98962660       5.75761224       4.20011278        6       0.00000000      -0.03320262      -0.09340901       0.02847960
Ni       7.48704125       5.79788911       4.16883961        6       1.00000000       0.03206993       0.11083553      -0.20917155
Ni      10.01923071       5.81638180       4.15645065        6       1.00000000      -0.01728962       0.08283579      -0.13524628
Ni       3.75244728       7.91887419       4.20542476        6       1.00000000      -0.05916410      -0.08863735      -0.06906984
Ni       6.27753554       7.96434161       4.19760144        6       1.00000000       0.10664917      -0.01352151      -0.20636040
Ni       8.72277751       7.95881295       4.14756865        5       1.00000000       0.03284414       0.05471559      -0.20091967
Ni      11.22983057       7.92162259       4.16313196        6       1.00000000      -0.07200828       0.00929613      -0.15258213
Ni       0.05785589      -0.00755896       6.15783093        7       1.00000000      -0.02295471      -0.02601982       0.41342946
Ni       2.44264263       0.03621706       6.26374599        8       1.00000000       0.05710190      -0.03922741      -0.20446496
Pt       4.96035716       0.07502250       6.28925098        8       0.00000000       0.00455121       0.04819944       0.12086515
Pt       7.55573509      -0.01083271       6.29296796        8       0.00000000       0.01051945       0.05783559       0.34502835
Ni       1.29413103       2.12042071       6.25362091        8       1.00000000      -0.02648321       0.04998482      -0.16411309
Ni       3.71998779       2.21601284       6.26748407        8       1.00000000      -0.00196191       0.07671321      -0.24274570
Ni       6.24085714       2.22610458       6.27132542        8       1.00000000      -0.03803117      -0.06296967      -0.14213665
Ni       8.74697292       2.15096411       6.18487787        7       1.00000000       0.10319547      -0.06344794       0.51994200
Ni       2.56594819       4.31926835       6.26402007        8       1.00000000       0.05787843      -0.00010659      -0.19920093
Ni       4.99232770       4.30595115       6.29987061        8       1.00000000      -0.02916596      -0.03741239      -0.14940397
Ni       7.42585501       4.30218380       6.28834993        8       1.00000000       0.02579609       0.06070000      -0.10210963
Pt      10.06658528       4.28468167       6.23833489        7       0.00000000       0.09709902       0.05530838       0.94366068
Ni       3.75835763       6.45286552       6.29644842        8       1.00000000       0.00245136      -0.01930753      -0.01115900
Ni       6.19785636       6.49720381       6.29691030        8       1.00000000      -0.07302827       0.03265298      -0.04559930
Pt       8.66670976       6.48965815       6.29159735        8       0.00000000       0.02477156      -0.05803169       0.23674353
Ni      11.28336157       6.47460521       6.27451834        8       1.00000000      -0.04066926       0.01029004      -0.08280566
