64
Lattice="10.319900266478346 -0.0694411054232295 0.08636321582265376 5.099812371875784 8.881408399333115 0.06105373289619132 0.0 0.0 21.664508664240326" Properties=species:S:1:pos:R:3:tags:I:1:initial_magmoms:R:1:forces:R:3 unique_id=ac17995dd6c845a7a5f994183260fe2d stress="0.005548538147203052 -0.00041219644806973776 0.0003425815944427606 -0.00041219644806973776 0.005326877719865806 0.00023508753440332604 0.0003425815944427606 0.00023508753440332604 -0.0010605966540791247" energy=-376.1394879290095 pbc="T T T"
Pt       0.12124301       0.03899396       0.00000000        0       0.00000000       0.02965331       0.02701163      -0.03956366
Ni       2.61338836      -0.07175829       0.09158219        1       1.00000000       0.04086532      -0.21300477       0.40024104
Ni       5.12378465      -0.08461595       0.10435989        1       1.00000000      -0.06614964      -0.07418735       0.30966752
Pt       7.67594442      -0.08652741       0.19053665        2       0.00000000      -0.01110118      -0.07301164      -0.60383760
Ni       1.28679767       2.21374552       0.14037606        1       1.00000000       0.01346194      -0.06140282      -0.23241894
Pt       3.80095358       2.09157489       0.12249258        1       0.00000000       0.01034923      -0.03987974       0.06639869
Pt       6.43244304       2.16615179       0.18016097        2       0.00000000      -0.17260601      -0.13958176      -0.85967744
Ni       9.03922165       2.18100132       0.20280010        2       1.00000000       0.02040459      -0.06785912      -0.47126274
Pt       2.49995366       4.42549639       0.10769894        1       0.00000000      -0.05452385      -0.03695629      -0.02185842
Pt       5.17084831       4.43813466       0.17807238        2       0.00000000      -0.18311882      -0.17393726      -0.72417585
Ni       7.73574206       4.45334761       0.11141006        1       1.00000000      -0.07668040       0.10553844       0.03542021
Pt      10.21541768       4.45352535       0.11119372        1       0.00000000      -0.04822753       0.14707197      -0.05045206
Pt       3.82908633       6.67043840       0.08447424        1       0.00000000       0.03651424       0.07177360      -0.02557353
Ni       6.48827806       6.65778534       0.10818512        1       1.00000000       0.11206025       0.08977411       0.21257580
Ni       8.96541021       6.65752025       0.14313867        1       1.00000000      -0.07692481       0.08782986       0.42911118
Ni      11.52341272       6.61371993       0.16424731        2       1.00000000      -0.09409130      -0.01977875       0.23907395
Ni       1.39011178       0.73551203       2.25675773        3       1.00000000       0.26508734      -0.03854442       0.22121941
Ni       3.86475172       0.71128977       2.28749990        3       1.00000000      -0.03969663      -0.03691921       0.32910365
Ni       6.39233912       0.68153545       2.31007240        3       1.00000000      -0.15594246      -0.00427524       0.29065100
Pt       9.06610697       0.64299427       2.32104663        3       0.00000000       0.07350223      -0.07496577       0.10219197
Ni       2.61446723       2.93023670       2.25055805        3       1.00000000       0.17515202      -0.08708390       0.22083383
Ni       5.09935926       2.89518988       2.28079373        3       1.00000000      -0.04269580      -0.11621198       0.24383105
Pt       7.75189778       2.94686072       2.25636730        3       0.00000000       0.07085681       0.04847512      -0.12566159
Pt      10.42031581       2.91248154       2.28261830        3       0.00000000       0.24779043       0.02752913       0.03973153
Ni       3.80047564       5.17601141       2.28925851        3       1.00000000      -0.08174051       0.08878858       0.22795037
Pt       6.47535458       5.22051945       2.28055030        3       0.00000000       0.11289772       0.09193436      -0.09556121
Ni       9.02906311       5.18803511       2.28709584        3       1.00000000       0.14783529       0.12366764       0.13764224
Ni      11.61352045       5.17214853       2.34426679        3       1.00000000       0.05890612       0.13990490       0.21424823
Pt       5.15460116       7.39949066       2.36024984        4       0.00000000       0.09019610       0.06219378       0.12215601
Ni       7.73401018       7.44007759       2.26460003        3       1.00000000       0.08038890       0.23775544       0.06914892
Pt      10.27739439       7.37275339       2.32574585        3       0.00000000      -0.03344812       0.01451801       0.04403512
Ni      12.83682408       7.29916360       2.39060495        4       1.00000000       0.00602658      -0.09304553       0.31275844
Ni       0.07331951       1.43557705       4.38845149        5       1.00000000       0.08327310      -0.05023989      -0.19005635
Ni       2.61874938       1.40605710       4.38343680        5       1.00000000      -0.02283366      -0.13956104      -0.23525126
Ni       5.12185226       1.39244924       4.40200576        5       1.00000000      -0.12244331      -0.16895171      -0.24943020
Pt       7.73589647       1.34120067       4.40993988        5       0.00000000      -0.05608315      -0.14748390      -0.06112964
Pt       1.32428152       3.76280112       4.39900827        5       0.00000000      -0.01295306       0.09207702      -0.13449132
Pt       3.85323022       3.67713652       4.36251631        5       0.00000000       0.01368741      -0.10170513      -0.17191205
Pt       6.42974325       3.69149584       4.41613952        5       0.00000000      -0.02503571       0.03708195      -0.03701166
Pt       9.06486856       3.72460467       4.48311805        6       0.00000000      -0.02197724       0.06282767      -0.08073484
Ni       2.57340416       5.99253719       4.41813543        5       1.00000000       0.00213761       0.17860382      -0.18666348
Ni       5.11672566       5.98611126       4.45359833        6       1.00000000      -0.04419788       0.10029065      -0.09472217
Pt       7.75830371       6.04212615       4.51222282        6       0.00000000       0.01170374       0.27043336       0.03210954
Ni      10.35568639       5.94655319       4.51066600        6       1.00000000       0.07807707       0.19176945      -0.03510243
Ni       3.87908417       8.09447470       4.45191832        6       1.00000000      -0.01439286      -0.03959123      -0.12762563
Ni       6.43456117       8.18015310       4.48117916        6       1.00000000       0.08438262       0.18361765      -0.05735509
Ni       9.02460138       8.17348001       4.50451930        6       1.00000000       0.02921063       0.17875435      -0.04172041
Ni      11.54665244       8.04564687       4.48204125        6       1.00000000      -0.09700704      -0.09072045      -0.14293228
Ni       0.07839095      -0.03603406       6.42557879        7       1.00000000       0.03046427      -0.06237968      -0.04160756
Ni       2.64755585      -0.04200866       6.53635435        8       1.00000000       0.05093068      -0.10244105      -0.56764080
Ni       5.14733832      -0.07293528       6.55313328        9       1.00000000      -0.09535394      -0.13701117      -0.46308148
Pt       7.77145732      -0.17990867       6.53885624        8       0.00000000      -0.06329407      -0.18017810       0.61559431
Pt       1.39533030       2.18280537       6.56329240        9       0.00000000       0.02099774      -0.16880489       0.01626698
Ni       3.89016038       2.17099572       6.49955930        8       1.00000000       0.03443601      -0.15754412      -0.06118378
Pt       6.40489882       2.16023439       6.55821108        9       0.00000000      -0.15758131      -0.16674171       0.97155346
Pt       9.08966538       2.19453577       6.66450866       10       0.00000000       0.08002051      -0.24014475       0.42047978
Ni       2.57200662       4.49767604       6.50779327        8       1.00000000      -0.04687156       0.18475910       0.07831041
Pt       5.13573069       4.53127942       6.55277547        9       0.00000000      -0.07219456       0.21425560       0.89682349
Ni       7.77716590       4.47492932       6.63930935        9       1.00000000      -0.05018572       0.08000660      -0.07791914
Ni      10.34452621       4.46851173       6.57121528        9       1.00000000       0.02879372       0.15061138       0.22113912
Ni       3.87261356       6.67467575       6.47733712        8       1.00000000      -0.03604094      -0.06572029      -0.01766996
Ni       6.46727134       6.70877538       6.61021779        9       1.00000000      -0.04219147       0.14178413      -0.30073346
Ni       9.04484344       6.66018008       6.63807706        9       1.00000000       0.09167792       0.08169136      -0.44491390
Ni      11.57228528       6.58829785       6.61813189        9       1.00000000      -0.11415692      -0.14246601      -0.44933530
