64
Lattice="10.218947090555215 0.0014307545690474472 0.01193630183872673 5.110712615080986 8.841367753621768 -0.03337495600204909 0.0 0.0 21.59004996649478" Properties=species:S:1:pos:R:3:tags:I:1:initial_magmoms:R:1:forces:R:3 unique_id=53de6244f2004029b7ed471f4d1d21c6 energy=-371.2666970222689 stress="0.004465883820489267 1.4278071095963404e-06 0.0002961228531091662 1.4278071095963404e-06 0.004697742178275403 -0.0003325173145640417 0.0002961228531091662 -0.0003325173145640417 -0.0023000368754723804" pbc="T T T"
Ni       0.01215481       0.03720123       0.18780663        2       1.00000000       0.20312394       0.10827335      -0.58423945
Ni       2.57625783       0.03280800       0.23711001        2       1.00000000       0.00908119       0.00259372      -0.24492001
Ni       5.08788727      -0.01679360       0.10609731        1       1.00000000      -0.03683506       0.06104488       0.24439468
Ni       7.67046013      -0.02246886       0.08623302        1       1.00000000      -0.05162339       0.06805740       0.05986718
Ni       1.28223650       2.21558402       0.21292046        2       1.00000000       0.00001130       0.08124134      -0.01419710
Ni       3.79992983       2.20777345       0.21793723        2       1.00000000       0.02519366       0.01907435      -0.09405407
Pt       6.38977472       2.24510210       0.16317110        2       0.00000000      -0.01614143       0.08237284      -0.78968758
Ni       8.97938243       2.24081331       0.09921191        1       1.00000000       0.03920078       0.10717130       0.20176952
Ni       2.56235722       4.40215010       0.09128081        1       1.00000000       0.00449161      -0.10090687       0.29372469
Ni       5.05904569       4.41011129       0.17939429        2       1.00000000      -0.19889012      -0.00211096      -0.28610575
Ni       7.73101598       4.40675320       0.09114979        1       1.00000000       0.20029582      -0.02660241       0.05807236
Ni      10.21238968       4.40128189       0.09352441        1       1.00000000       0.00637865      -0.03169264       0.28170755
Ni       3.80525251       6.60351522       0.04870289        0       1.00000000       0.03393871      -0.14675399      -0.00028683
Pt       6.43200505       6.63016388       0.00000000        0       0.00000000       0.13073574       0.08230307      -0.60397538
Ni       8.96182606       6.61145844       0.14886690        1       1.00000000      -0.03490061      -0.12793932      -0.21235273
Ni      11.49237931       6.61556010       0.04652207        0       1.00000000      -0.09575746      -0.12744981       0.10554090
Ni       1.32242812       0.77463709       2.18560514        3       1.00000000       0.02285998       0.08364396       0.11029968
Ni       3.79587817       0.75173432       2.20334556        3       1.00000000       0.00332749      -0.00325750       0.12635701
Pt       6.32955104       0.77338078       2.31694452        4       0.00000000      -0.07986453       0.08095710       0.15996960
Pt       8.98546928       0.84027480       2.21890224        3       0.00000000      -0.05550461      -0.01225788       0.07747635
Ni       2.57596046       2.92479910       2.18910559        3       1.00000000       0.01537774       0.03774167       0.05949728
Ni       5.03027670       2.95098970       2.23631950        3       1.00000000      -0.18470994      -0.00529564       0.26005511
Ni       7.72751755       2.97568461       2.23274819        3       1.00000000       0.17544160       0.07488988       0.14294805
Ni      10.22556123       2.94951511       2.23099123        3       1.00000000       0.01024494      -0.01944827       0.18180548
Ni       3.82989543       5.08209281       2.21421662        3       1.00000000      -0.04998830      -0.11091770       0.14236458
Pt       6.43337318       5.10332471       2.20344340        3       0.00000000       0.08086829      -0.06406411       0.04120910
Ni       8.94386144       5.10361051       2.21688031        3       1.00000000       0.05326415      -0.13664917       0.10301311
Pt      11.48556868       5.04152687       2.22708467        3       0.00000000      -0.00936122      -0.02821529       0.06590504
Pt       5.13354529       7.35156338       2.17722229        3       0.00000000      -0.02623812      -0.06188229      -0.01985875
Ni       7.68186446       7.37913644       2.19919001        3       1.00000000      -0.03960486       0.00390858       0.15047888
Pt      10.12719239       7.34203648       2.22509075        3       0.00000000      -0.06007203      -0.07459242       0.14124362
Pt      12.75569268       7.31320208       2.16492473        3       0.00000000      -0.06319464      -0.05018911       0.00110950
Ni      -0.02142947       1.51902685       4.36741668        6       1.00000000       0.04504701       0.11459057      -0.08617577
Pt       2.57736148       1.51594696       4.25981380        5       0.00000000      -0.00466907       0.14425683       0.04315030
Ni       5.11121920       1.42479640       4.37884931        6       1.00000000      -0.17291379       0.01855848       0.02051443
Ni       7.70673863       1.46095084       4.37698185        6       1.00000000       0.15127107       0.10690708      -0.03807476
Ni       1.25858275       3.71001102       4.37072719        6       1.00000000      -0.03575109       0.00655524      -0.03375963
Ni       3.81516724       3.71534248       4.33315340        5       1.00000000      -0.02317818       0.09727922      -0.15463514
Pt       6.42235486       3.65713623       4.33257760        5       0.00000000       0.01439831      -0.01703624      -0.03826933
Ni       8.98887299       3.67424154       4.38185786        6       1.00000000       0.11490211       0.04925686      -0.07223253
Ni       2.53212223       5.82960506       4.40397323        6       1.00000000      -0.10468462      -0.10770678      -0.06531042
Ni       5.07641156       5.85824236       4.35904118        6       1.00000000      -0.08719000      -0.06661741      -0.21602800
Ni       7.72673766       5.85099611       4.35845614        6       1.00000000       0.21262198      -0.08119519      -0.21332600
Ni      10.24131098       5.84910497       4.37644036        6       1.00000000       0.01068289      -0.09537036      -0.09048203
Pt       3.74853561       8.06012017       4.39169197        6       0.00000000      -0.01849759      -0.05546137       0.03087636
Pt       6.44116685       8.04067707       4.32351441        5       0.00000000       0.08327041       0.07069265      -0.03073500
Ni       8.99705039       8.07119514       4.35256648        6       1.00000000      -0.01869177       0.04331390      -0.04426271
Ni      11.45421491       8.07323527       4.41758136        6       1.00000000      -0.15614732      -0.08652817       0.02817605
Pt      -0.07569334      -0.03323243       6.59004997        9       0.00000000      -0.02996782       0.13392105       0.38896367
Pt       2.59632530      -0.05838361       6.58631166        9       0.00000000       0.01362772      -0.03536799       0.31336211
Ni       5.16727182      -0.06960152       6.49777982        8       1.00000000      -0.00120010      -0.05018546      -0.10317313
Ni       7.62370664      -0.07229432       6.52819727        8       1.00000000      -0.06931944      -0.05057733       0.00097813
Pt       1.21412653       2.28999216       6.53422395        8       0.00000000      -0.01729996      -0.08057646       0.01406076
Pt       3.85837122       2.21682424       6.53761204        8       0.00000000       0.16289970       0.18671175       0.18180812
Pt       6.47755217       2.12143136       6.44697491        7       0.00000000      -0.12473201       0.01019704       0.87220456
Ni       8.93825199       2.22578171       6.49393660        8       1.00000000       0.03262576       0.08175523      -0.20898550
Ni       2.52299946       4.46873922       6.47363935        8       1.00000000      -0.01872079       0.05410724      -0.26485425
Pt       5.09538858       4.50099522       6.52472712        8       0.00000000      -0.03848533      -0.07914184       0.15994789
Ni       7.71243165       4.38988147       6.49531264        8       1.00000000       0.03962210      -0.07188142      -0.18083676
Ni      10.22323304       4.41438447       6.48060714        8       1.00000000       0.02282685       0.00809942      -0.30089576
Ni       3.77482997       6.59785960       6.48306106        8       1.00000000      -0.07051869      -0.02002129      -0.09302693
Ni       6.39584370       6.58476544       6.38126265        7       1.00000000       0.10825137      -0.03700365       0.42674698
Pt       9.01125784       6.53259275       6.47855722        8       0.00000000      -0.02479369       0.07247387      -0.05170835
Ni      11.53828065       6.60351555       6.46920598        8       1.00000000      -0.00643529      -0.02705357      -0.35314900
