64
Lattice="10.254480071063249 -0.012413970229580028 -0.009567685430667097 5.116489221950984 8.815150325545032 -0.011691908968574674 -0.007811982441531713 -0.0065129873234036515 8.725700576872384" Properties=species:S:1:pos:R:3:tags:I:1:initial_magmoms:R:1:forces:R:3 unique_id=950e2c744af34893950da790aab28958 stress="0.00014284119256453842 2.128337728659306e-06 -5.016647963247e-06 2.128337728659306e-06 0.00014580707751637306 -3.975714457914027e-06 -5.016647963247e-06 -3.975714457914027e-06 0.00014675794052149832" energy=-394.2491043251558 pbc="T T T"
Ni       0.00616247       0.01190657       0.18777274        4       1.00000000       0.04123545       0.01783884       0.23530697
Ni       2.55659300      -0.00497685       0.21714978        4       1.00000000       0.00527076      -0.01783704       0.35089827
Ni       5.12836602      -0.01489507       0.15731079        4       1.00000000      -0.00447649       0.11645461       0.22011378
Ni       7.68900071      -0.04720422       0.16782308        4       1.00000000      -0.06632003      -0.09112860       0.30507252
Ni       1.24419129       2.21507109       0.19467170        4       1.00000000      -0.10712223       0.07666166       0.29242346
Pt       3.79475354       2.21973122       0.18248271        4       0.00000000      -0.07238285       0.02766760       0.18681050
Pt       6.45917936       2.21217567       0.10322212        4       0.00000000       0.08916881       0.03325016      -0.02829169
Ni       9.00451133       2.22922444       0.14359955        4       1.00000000       0.11270717       0.14908293       0.12802077
Ni       2.55241306       4.43980610       0.07257862        4       1.00000000      -0.01699788       0.06378157       0.00385134
Ni       5.10452202       4.42697391       0.09745626        4       1.00000000      -0.04578106       0.00416763       0.21777028
Ni       7.72233726       4.40833292       0.10096080        4       1.00000000       0.12905286       0.02064609       0.20120036
Ni      10.23761137       4.39198677       0.07426014        4       1.00000000      -0.04815239      -0.01144145       0.07386587
Ni       3.80800776       6.60425428       0.09690304        4       1.00000000      -0.06736421      -0.02200630       0.14520094
Pt       6.39365309       6.59758362       0.09600786        4       0.00000000      -0.03805916      -0.03425602      -0.18432964
Ni       8.96782377       6.58646090       0.14994710        4       1.00000000      -0.05428681      -0.09886222       0.18115885
Ni      11.54900867       6.59727045       0.04933795        4       1.00000000       0.07154747      -0.05303908      -0.08443891
Ni       1.28646351       0.75082958       2.14426680        3       1.00000000      -0.03358801       0.07529494       0.01550472
Ni       3.84408350       0.73586122       2.19053263        3       1.00000000       0.10800975       0.03038750       0.01380685
Ni       6.39812616       0.74798628       2.22203444        3       1.00000000      -0.00680569       0.10829489       0.14787914
Pt       8.96796318       0.76910525       2.15904065        3       0.00000000      -0.04141617       0.13581249       0.06823944
Ni       2.54871412       2.95527960       2.19490723        3       1.00000000       0.02822911       0.11129422      -0.05117841
Ni       5.12309926       2.95121978       2.22522248        3       1.00000000      -0.05481666       0.01355396       0.01727303
Ni       7.70435880       2.97072460       2.19570966        3       1.00000000       0.10261822       0.10860563       0.00184459
Ni      10.24147699       2.93513172       2.18713496        3       1.00000000      -0.01631927       0.08852259       0.14594388
Ni       3.85478583       5.12640649       2.15308698        3       1.00000000       0.01563559      -0.06809013      -0.12520850
Ni       6.41455337       5.11751122       2.17365809        3       1.00000000       0.05212547      -0.02959245      -0.05025431
Ni       8.93154235       5.09763110       2.18301421        3       1.00000000      -0.00057536      -0.04857596       0.07273063
Pt      11.55185795       5.08156890       2.18173755        3       0.00000000       0.02160242      -0.03103130      -0.03559450
Ni       5.09959635       7.31631658       2.14854470        3       1.00000000      -0.11378889      -0.11382204      -0.11046615
Ni       7.67104524       7.32146382       2.16129845        3       1.00000000       0.03854108      -0.16537010      -0.00228352
Pt      10.26956898       7.34113107       2.12528319        3       0.00000000       0.07728118      -0.04230207       0.03308827
Ni      12.82075275       7.31436051       2.14080382        3       1.00000000       0.04412575      -0.12066926      -0.07375372
Ni      -0.03303855       1.52749796       4.30720850        2       1.00000000      -0.03999489       0.13095311      -0.01296730
Pt       2.55176795       1.55231213       4.21100305        2       0.00000000      -0.01460145       0.06931395       0.11480175
Ni       5.17051003       1.46083162       4.27576307        2       1.00000000       0.02203956      -0.06387727      -0.16276683
Ni       7.66813029       1.46232376       4.30064634        2       1.00000000       0.01152515      -0.07525663      -0.08231841
Ni       1.24832105       3.72527441       4.32978338        2       1.00000000      -0.05142092      -0.00683128      -0.03154045
Ni       3.80781876       3.70533276       4.28137947        2       1.00000000      -0.12343454       0.00010881      -0.24955329
Pt       6.44530810       3.62037372       4.29840046        2       0.00000000       0.03889210      -0.02020429      -0.07999336
Ni       8.99940364       3.69196389       4.28532794        2       1.00000000       0.11301172       0.05086887      -0.20808841
Ni       2.50227715       5.83643099       4.35985512        2       1.00000000      -0.10657577      -0.04622249      -0.08812378
Pt       5.06856736       5.80793145       4.31088079        2       0.00000000      -0.01798009      -0.02036765      -0.18820308
Ni       7.71338026       5.81400999       4.29367899        2       1.00000000       0.09263898      -0.08335421      -0.23386626
Ni      10.27491762       5.80939469       4.33292868        2       1.00000000      -0.00430979      -0.03332336      -0.10420909
Pt       3.74676479       8.05867824       4.26233177        2       0.00000000      -0.07018451      -0.06012820       0.09435971
Pt       6.39174687       8.05689899       4.22137476        2       0.00000000      -0.07329934       0.04214764      -0.03261918
Pt       9.00868194       8.03886479       4.25782667        2       0.00000000      -0.02626117      -0.08191257       0.07883893
Ni      11.52416162       8.04889254       4.28793611        2       1.00000000      -0.02476570      -0.07168965      -0.09863315
Pt      -0.02173094      -0.07035492       6.53408504        1       0.00000000       0.04211175      -0.08327138       0.08365775
Pt       2.55917892      -0.03877690       6.54914172        1       0.00000000      -0.06973383       0.00195458       0.20733666
Pt       5.15320490      -0.01998752       6.48966137        1       0.00000000       0.07698479      -0.04651407       0.04710996
Pt       7.66490378      -0.06449846       6.50519163        1       0.00000000      -0.04295602      -0.12140889       0.12871700
Pt       1.26415387       2.31027065       6.49069737        1       0.00000000       0.04930510       0.05838138       0.17164772
Pt       3.90663572       2.31610679       6.39897793        1       0.00000000       0.06199187       0.21939582      -0.30944476
Ni       6.40683464       2.22808160       6.38892866        1       1.00000000      -0.01179733      -0.01639553      -0.21736602
Pt       8.90356843       2.28728885       6.44128905        1       0.00000000      -0.01606032       0.10986591      -0.00941770
Ni       2.55450026       4.48177747       6.43731583        1       1.00000000       0.04641975       0.10628832      -0.22238930
Ni       5.13406301       4.44316024       6.47397879        1       1.00000000       0.07568340       0.13862924      -0.05010720
Ni       7.63350546       4.40086869       6.45403893        1       1.00000000      -0.21560086       0.00972946      -0.09918292
Ni      10.27689951       4.42330076       6.42887868        1       1.00000000       0.15235588       0.01536223      -0.21571980
Ni       3.80735070       6.52964163       6.47087799        1       1.00000000      -0.03762516      -0.11831045      -0.07863257
Ni       6.37853562       6.53123858       6.39361786        1       1.00000000       0.02398446      -0.06737185      -0.30793673
Pt       8.97270069       6.46104989       6.48012958        1       0.00000000      -0.02680377      -0.09508330       0.08655360
Ni      11.55258582       6.52755329       6.42892036        1       1.00000000       0.01756300      -0.07476957      -0.24214863
