64
Lattice="10.298967436158684 0.019787574994209935 -0.04460064088821206 5.166620260703617 8.811363996862756 -0.11016038502737668 0.0 0.0 21.558747476656574" Properties=species:S:1:pos:R:3:tags:I:1:initial_magmoms:R:1:forces:R:3 unique_id=a5cf438bd1914080a80c6409411cc44e stress="0.005879709313471104 6.632061381194161e-05 -0.00019831304262570322 6.632061381194161e-05 0.00446272866433311 -0.00017019229543027462 -0.00019831304262570322 -0.00017019229543027462 -0.0015391692527917111" energy=-373.3805109910371 pbc="T T T"
Ni       0.01307336      -0.07145559       0.22365825        2       1.00000000       0.08534427      -0.04078704      -0.10515719
Ni       2.53670537      -0.05463731       0.22881552        2       1.00000000      -0.00818331      -0.04146815      -0.07491217
Pt       5.14781906      -0.06419153       0.15649037        2       0.00000000      -0.05825714       0.01264621      -0.98735378
Ni       7.73902253      -0.05070277       0.18008762        2       1.00000000      -0.06839159      -0.06601354      -0.22932373
Pt       1.27856602       2.19906135       0.11891538        1       0.00000000      -0.05128707      -0.06408958       0.07002766
Pt       3.83371777       2.22196505       0.19233136        2       0.00000000       0.02372301      -0.02136850      -0.58192236
Pt       6.46081885       2.22493532       0.09376891        1       0.00000000      -0.06223287      -0.01212699      -0.24528484
Pt       9.02274125       2.25449882       0.10988389        1       0.00000000       0.07017512       0.09272263      -0.56511910
Ni       2.56700659       4.45469933       0.05052845        1       1.00000000       0.04430166       0.04354411       0.17560143
Pt       5.15142267       4.53045351       0.06649597        1       0.00000000      -0.02500440       0.15992261       0.07924317
Ni       7.73281644       4.46682383       0.03253948        0       1.00000000      -0.05543699       0.09051591       0.11665327
Ni      10.31102177       4.46543861       0.01255816        0       1.00000000      -0.00474105       0.04063813       0.20376056
Ni       3.84930301       6.64082055       0.05936044        1       1.00000000      -0.00491325       0.09020889       0.37376449
Ni       6.46131886       6.64779412       0.05862341        1       1.00000000       0.00107598       0.08073042       0.38567778
Ni       8.98576744       6.57989462       0.09204891        1       1.00000000      -0.12225489       0.05820435      -0.16403077
Ni      11.63460034       6.57917391       0.00000000        0       1.00000000       0.06869121       0.03780634       0.23550045
Ni       1.30334716       0.69968670       2.26842801        5       1.00000000       0.01490276      -0.00558795       0.30321627
Ni       3.79073183       0.73202738       2.23973088        4       1.00000000      -0.22533357      -0.04902746       0.10760506
Ni       6.45834690       0.74289080       2.23728434        4       1.00000000       0.09857904       0.01225361       0.16097344
Pt       9.02318006       0.71556876       2.23246744        4       0.00000000       0.12123895       0.06460146      -0.03479129
Ni       2.57883618       2.89817500       2.29570147        5       1.00000000       0.07738655      -0.12944583       0.32210495
Ni       5.13921200       2.96233757       2.22703348        4       1.00000000      -0.05217545       0.16902387       0.12258694
Ni       7.69603148       2.93056157       2.23545512        4       1.00000000      -0.06993814      -0.07079285       0.19597191
Ni      10.32544321       2.91667482       2.25013287        5       1.00000000       0.10884399      -0.11769025       0.36423148
Ni       3.88672750       5.13301752       2.21615306        4       1.00000000       0.07796891       0.00386466       0.25087720
Ni       6.41405149       5.16053301       2.18297616        4       1.00000000      -0.05421776       0.09899946       0.13438223
Pt       8.94692015       5.08803991       2.17455605        4       0.00000000      -0.02707416      -0.12271476       0.07329593
Pt      11.66583868       5.08047453       2.16696800        4       0.00000000       0.10601838      -0.23300656       0.08125173
Ni       5.18662601       7.28037309       2.13144838        3       1.00000000       0.01789205      -0.13079914       0.04636760
Ni       7.65084457       7.33856703       2.11305514        3       1.00000000      -0.17260205      -0.05083125       0.09839492
Pt      10.34451018       7.32101874       2.17595573        4       0.00000000       0.09229759       0.01171641      -0.02115000
Ni      12.90708765       7.31455224       2.08758216        3       1.00000000       0.11939043      -0.12311368       0.03678847
Ni       0.03728510       1.45721990       4.35302109        8       1.00000000       0.12846245      -0.02192120      -0.18217316
Ni       2.49568069       1.47027659       4.31554759        7       1.00000000      -0.07770203       0.03372809      -0.22624829
Pt       5.14726127       1.45909718       4.24487463        6       0.00000000      -0.09891269      -0.04319801      -0.14917254
Ni       7.71475035       1.44894497       4.31834902        7       1.00000000       0.01886290      -0.05565544      -0.23819820
Ni       1.28199653       3.62376255       4.37387186        8       1.00000000       0.05630900      -0.02312912      -0.06248630
Ni       3.80621240       3.70133316       4.29828022        7       1.00000000      -0.07249503       0.12953966      -0.27006309
Pt       6.45543242       3.71036198       4.31445861        7       0.00000000       0.02135665      -0.00992414      -0.06329154
Ni       9.04020833       3.67070526       4.29145035        7       1.00000000       0.11614142       0.03521835      -0.15458183
Ni       2.56888431       5.78977129       4.36302612        8       1.00000000       0.01285831      -0.11324962      -0.02980466
Ni       5.13996157       5.83149290       4.31431279        7       1.00000000       0.03015599      -0.00284534      -0.17099116
Ni       7.68147364       5.83965920       4.30101495        7       1.00000000      -0.12349103       0.09073095      -0.13280710
Ni      10.33418670       5.79522496       4.32539430        7       1.00000000       0.10223832      -0.04360299      -0.00695865
Pt       3.86885130       7.95440551       4.24476525        6       0.00000000       0.02716396      -0.07840829       0.05412625
Ni       6.41528652       8.01802303       4.22863591        6       1.00000000      -0.14342546      -0.02394951      -0.29335325
Pt       8.92190052       8.00642085       4.20301867        6       0.00000000      -0.18266415       0.07207927      -0.05022834
Ni      11.61408260       7.99961735       4.23922877        6       1.00000000       0.08490455      -0.11131372      -0.10851667
Pt      -0.01436533      -0.10090186       6.55874748       12       0.00000000       0.02705552       0.12286838       0.17243638
Pt       2.52464359      -0.04763438       6.54418168       11       0.00000000       0.00010938       0.15252800       0.27418204
Pt       5.14917171      -0.06432080       6.44559624       10       0.00000000       0.04838599       0.00281073       0.98441946
Pt       7.70018931      -0.08856565       6.51973563       11       0.00000000      -0.05960415       0.12123898       0.25472070
Ni       1.26055077       2.20866852       6.39787618       10       1.00000000       0.03085321       0.08645431      -0.02064508
Pt       3.81216500       2.28100266       6.41405373       10       0.00000000      -0.08646194       0.14349785       0.45804689
Ni       6.42446759       2.20545932       6.40742249       10       1.00000000       0.01627078       0.04332848       0.16364641
Pt       9.00474659       2.25873101       6.34861813        9       0.00000000       0.01236105      -0.08216571       0.53069542
Ni       2.52898568       4.40380388       6.43614040       10       1.00000000       0.03678058      -0.00724171      -0.37930828
Ni       5.13770307       4.41188673       6.38000583       10       1.00000000      -0.10296724       0.08881178       0.00877057
Ni       7.66884820       4.36563910       6.44933548       10       1.00000000      -0.09075075      -0.03428824      -0.11320077
Ni      10.34793843       4.36488369       6.40733831       10       1.00000000       0.14470862      -0.05696571      -0.30304581
Ni       3.84723094       6.47381222       6.44065834       10       1.00000000       0.01699921      -0.14459019      -0.33729403
Ni       6.40118446       6.49545991       6.42025490       10       1.00000000      -0.03007033      -0.03693585      -0.35089343
Pt       8.99926528       6.42792457       6.44475083       10       0.00000000       0.06471566      -0.07065836       0.09740073
Ni      11.60695933       6.49381136       6.39434608       10       1.00000000       0.00606504       0.04867278      -0.28441442
