64
Lattice="10.260680260791084 -0.007645869944808418 -0.027331511039816868 5.123718612789306 8.889407907400622 -0.014986782151975237 0.0 0.0 21.64902576436771" Properties=species:S:1:pos:R:3:tags:I:1:initial_magmoms:R:1:forces:R:3 unique_id=ac08494422e0450c80b6828470cf7d1f stress="0.00424619020551849 -4.04837884794978e-05 -0.00011321236588727133 -4.04837884794978e-05 0.00444958351459704 -0.00013729867477807069 -0.00011321236588727133 -0.00013729867477807069 -0.0024365795477426493" energy=-373.39974763815206 pbc="T T T"
Ni       0.04586945       0.04583956       0.19141391        2       1.00000000       0.18796767       0.10253798      -0.51220368
Ni       2.58027197       0.03622726       0.23383144        2       1.00000000       0.00564459      -0.00992346      -0.16520293
Ni       5.07610133      -0.01481812       0.09550595        1       1.00000000      -0.05865991       0.07484308       0.20659715
Pt       7.70591347      -0.04790905       0.00000000        0       0.00000000      -0.07165872       0.13158297      -0.52147358
Ni       1.28390227       2.23503880       0.14163535        1       1.00000000       0.02512426       0.05950444       0.45504361
Ni       3.79927154       2.22575361       0.23395545        2       1.00000000      -0.01591055       0.05498302      -0.07298784
Pt       6.38356770       2.31714964       0.18171955        2       0.00000000      -0.01763347       0.11765642      -1.04227079
Ni       9.02427203       2.27362095       0.08387166        1       1.00000000      -0.02580009       0.08466974       0.20676576
Ni       2.56487066       4.42008246       0.10696995        1       1.00000000       0.01579382      -0.12575426       0.31086195
Ni       5.06758605       4.44411559       0.18941034        2       1.00000000      -0.20912012       0.04474581      -0.17644231
Ni       7.75759592       4.43829790       0.09436040        1       1.00000000       0.19088479       0.03801994       0.12688147
Ni      10.24542659       4.41460175       0.07346069        1       1.00000000      -0.02846478      -0.00010393       0.25831129
Ni       3.82739100       6.61069399       0.08065417        1       1.00000000      -0.03768008      -0.14087880       0.08155277
Pt       6.45141706       6.66944201       0.01534600        0       0.00000000       0.16524589       0.07578072      -0.43545324
Ni       8.98487028       6.64566455       0.14948934        1       1.00000000      -0.06441577      -0.13911312      -0.10854425
Ni      11.51584962       6.61966763       0.04691593        0       1.00000000      -0.06205647      -0.07636474       0.14547419
Ni       1.33092083       0.78568977       2.19758381        3       1.00000000       0.06186089       0.10069190      -0.02686325
Ni       3.78314788       0.75382852       2.20278533        3       1.00000000       0.00592104       0.00926781       0.14541925
Pt       6.35364679       0.75490859       2.24797982        3       0.00000000      -0.05820366       0.03679399       0.12802370
Pt       9.05571755       0.84096342       2.19692454        3       0.00000000       0.01284597       0.00214209       0.05937667
Ni       2.57217342       2.94455978       2.20674241        3       1.00000000      -0.05057930       0.01526325       0.03911578
Ni       5.03708527       2.98784974       2.24706347        3       1.00000000      -0.14790409      -0.00601563       0.26461912
Ni       7.74810897       3.00571886       2.23502842        3       1.00000000       0.15707949       0.04593588       0.14367703
Ni      10.26175254       2.97061286       2.20236758        3       1.00000000       0.05667318       0.00093180       0.04304719
Ni       3.83799528       5.11512766       2.24415611        3       1.00000000      -0.02843425      -0.11226632       0.12071521
Pt       6.44982352       5.14367509       2.21511488        3       0.00000000       0.07597346      -0.08436569       0.09391626
Ni       8.96372558       5.13672691       2.22956614        3       1.00000000       0.04502916      -0.10850623       0.08174298
Pt      11.51547132       5.08410972       2.16877292        3       0.00000000      -0.04054102      -0.08216032      -0.02706153
Pt       5.14995218       7.39402383       2.20959936        3       0.00000000      -0.01354456      -0.05778613      -0.03511962
Ni       7.69443772       7.42489253       2.22817606        3       1.00000000      -0.03966319      -0.00178643       0.14252152
Pt      10.14380625       7.37848140       2.24155860        3       0.00000000      -0.08625233      -0.06364701       0.10756631
Pt      12.80089044       7.33115615       2.22262009        3       0.00000000      -0.01232311      -0.10932715       0.07496312
Ni      -0.00101756       1.51406328       4.43995936        5       1.00000000       0.03938650      -0.02087106      -0.09574331
Pt       2.50902866       1.50233218       4.32104676        4       0.00000000       0.00824222       0.02158115      -0.08249782
Pt       5.07966361       1.43521264       4.40466872        5       0.00000000      -0.07518622      -0.03456833       0.02135492
Pt       7.77529462       1.50670483       4.41324927        5       0.00000000       0.07917001       0.03064726       0.01590372
Pt       1.22520864       3.75468110       4.48092961        6       0.00000000      -0.03351009       0.03817392       0.03785919
Ni       3.81800194       3.76013822       4.38166583        5       1.00000000      -0.02554525       0.03704931      -0.15492680
Pt       6.42174118       3.76754657       4.39233004        5       0.00000000      -0.00794129       0.13363267      -0.10024850
Ni       8.98326202       3.74780449       4.41106001        5       1.00000000      -0.01817562       0.18041922      -0.07469574
Ni       2.53584066       5.89822599       4.46620024        6       1.00000000      -0.08211240      -0.09221155      -0.03934366
Ni       5.07927669       5.90393992       4.40983928        5       1.00000000      -0.04515307      -0.12336489      -0.23620009
Ni       7.74209308       5.91091401       4.39868540        5       1.00000000       0.20269457      -0.06403641      -0.20785385
Ni      10.23843140       5.92967351       4.40478021        5       1.00000000      -0.02712654       0.00212488      -0.14146504
Pt       3.79322915       8.05872757       4.46323569        6       0.00000000       0.02437459      -0.04392122      -0.05599201
Pt       6.44586535       8.07592907       4.38088890        5       0.00000000       0.11182198      -0.06944296      -0.08872751
Ni       8.98593135       8.09288460       4.39751508        5       1.00000000      -0.00642528      -0.04982618      -0.09093292
Ni      11.48610441       8.07634605       4.44814420        5       1.00000000      -0.12268326      -0.10603417      -0.03786903
Pt      -0.06956388       0.03775531       6.64660402        8       0.00000000      -0.09008936       0.08002372       0.22556473
Pt       2.57282062      -0.02608950       6.64902576        8       0.00000000       0.08323023      -0.10842814       0.16863416
Ni       5.15572212      -0.05465824       6.56144426        8       1.00000000       0.05231432      -0.04635736      -0.11118105
Ni       7.64032149      -0.05844281       6.46476900        7       1.00000000      -0.11747252      -0.02243599       0.52367071
Ni       1.21817835       2.26520437       6.59478348        8       1.00000000      -0.01213544      -0.03652141      -0.14786307
Pt       3.77307381       2.27818047       6.64240680        8       0.00000000       0.12826903       0.26420406       0.17358437
Pt       6.46295653       2.19974412       6.56761110        8       0.00000000      -0.08012849       0.11162528       1.16573181
Ni       9.00908729       2.27209290       6.56436928        8       1.00000000       0.06601506       0.14666960      -0.12670625
Ni       2.49882650       4.50001509       6.57822461        8       1.00000000       0.01349200       0.11116744      -0.18653893
Pt       5.08055714       4.55056722       6.59869566        8       0.00000000      -0.10154026      -0.10384101       0.14140654
Ni       7.72385927       4.44363093       6.56083622        8       1.00000000       0.07454622      -0.07750613      -0.16012452
Ni      10.25030092       4.41748030       6.55863063        8       1.00000000      -0.02111865       0.02687756      -0.18816227
Ni       3.77047510       6.65783864       6.57011771        8       1.00000000      -0.09203472       0.01276062      -0.10207687
Ni       6.39306894       6.64717150       6.45749930        7       1.00000000       0.09032870      -0.02771521       0.33673445
Pt       9.02019490       6.58711889       6.54102879        7       0.00000000       0.01608799       0.01024328      -0.11393725
Ni      11.55419458       6.65150255       6.52104116        7       1.00000000       0.03120627      -0.05746956      -0.37992741
