64
Lattice="10.400889844713246 -0.042751551735648964 0.021398684014255168 5.1634209925023455 8.985479374578603 -0.026117635209036004 0.017471952333992173 -0.03471137900312013 8.93556514734845" Properties=species:S:1:pos:R:3:tags:I:1:initial_magmoms:R:1:forces:R:3 unique_id=42f0f7096e2b4797891291c8fc6ee315 stress="0.0006282227792111517 -3.513240398082942e-06 -1.0797132637430304e-05 -3.513240398082942e-06 0.000621037472335495 -3.893052477313983e-06 -1.0797132637430304e-05 -3.893052477313983e-06 0.0005574147435384036" energy=-403.97589635114514 pbc="T T T"
Ni       0.04805560      -0.00022865       0.16663950        4       1.00000000       0.18752303       0.03843957       0.29106572
Ni       2.55924711      -0.00250196       0.19250923        4       1.00000000      -0.15357405       0.07211810       0.44880211
Pt       5.10444158      -0.04394709       0.14062166        4       0.00000000      -0.08978822       0.02614822       0.16374481
Pt       7.86553729      -0.10222791       0.17418029        4       0.00000000       0.07306408      -0.04810863       0.27526298
Ni       1.30043467       2.24939236       0.09148499        4       1.00000000       0.01060581       0.01159251       0.31022982
Pt       3.79565555       2.28804545       0.12075086        4       0.00000000      -0.02772335       0.05621265      -0.03622662
Pt       6.46859994       2.28973265       0.16786271        4       0.00000000      -0.01223191       0.10333516       0.16891303
Pt       9.19700920       2.24751505       0.16328521        4       0.00000000       0.06161187      -0.02074827       0.12782488
Ni       2.58661291       4.47611085       0.06443825        4       1.00000000       0.06727217      -0.05017305       0.16284521
Ni       5.14289700       4.50593021       0.16377556        4       1.00000000      -0.09848687       0.12553640       0.37867003
Pt       7.82871947       4.53700603       0.11452452        4       0.00000000       0.07200441       0.09919198      -0.04561166
Ni      10.40959978       4.44558625       0.07461485        4       1.00000000       0.13406840      -0.09139103       0.21981174
Ni       3.88979444       6.69777754       0.15831881        4       1.00000000       0.05250371      -0.20260691       0.40427803
Pt       6.44759092       6.76725278       0.18545988        4       0.00000000      -0.04384104       0.01068085      -0.02720245
Ni       9.05811180       6.70367736       0.06466834        4       1.00000000      -0.05784425       0.00645932       0.14264443
Pt      11.68842382       6.60567380       0.02906219        4       0.00000000       0.04732738      -0.12301113      -0.21311310
Ni       1.33709657       0.74806728       2.21232589        3       1.00000000       0.19110159       0.11013557      -0.06374238
Ni       3.84567041       0.76074978       2.25635882        3       1.00000000      -0.10729542       0.09755805       0.01754782
Pt       6.45076251       0.77346068       2.31649894        3       0.00000000      -0.15078388       0.07738243      -0.11046829
Pt       9.22474207       0.70513442       2.29518704        3       0.00000000       0.14621794       0.06857795      -0.06611467
Ni       2.59915082       2.97076155       2.24200231        3       1.00000000       0.01768450      -0.00183672       0.10376546
Ni       5.14273708       3.02577704       2.27347514        3       1.00000000      -0.25559722       0.16185977       0.08628774
Ni       7.81482660       3.02815852       2.27197890        3       1.00000000       0.13514204       0.17687210      -0.02199608
Ni      10.41840790       2.95727900       2.28154074        3       1.00000000       0.10847503      -0.00071240       0.19187675
Ni       3.91786687       5.22313051       2.23859827        3       1.00000000       0.10988071      -0.05955758       0.13447567
Ni       6.46569407       5.22590853       2.25987381        3       1.00000000      -0.08247283       0.13996182      -0.00135118
Ni       9.05004706       5.17673651       2.26498013        3       1.00000000      -0.08983252      -0.17286422       0.18202801
Pt      11.73667149       5.11740206       2.23927959        3       0.00000000       0.12495752      -0.07375097       0.00852939
Ni       5.17246155       7.43261641       2.21936724        3       1.00000000      -0.06146449      -0.24094432      -0.01273979
Ni       7.74945733       7.45911922       2.21992091        3       1.00000000      -0.05331890      -0.10047093      -0.06053199
Pt      10.29888922       7.38324488       2.22024584        3       0.00000000      -0.00710972      -0.22916963      -0.22543274
Ni      13.01583771       7.38735135       2.24001994        3       1.00000000       0.04735604      -0.25120902      -0.02915173
Ni       0.02828846       1.50615022       4.42192071        2       1.00000000       0.15025178      -0.00401262      -0.05947126
Pt       2.63111843       1.52865763       4.38935056        2       0.00000000       0.03606971      -0.03161734      -0.11182848
Ni       5.17510550       1.50514872       4.43613301        2       1.00000000      -0.02597485       0.16274626      -0.06919468
Pt       7.84532018       1.52621599       4.39842991        2       0.00000000       0.10384344       0.08819089       0.08814758
Pt       1.29726006       3.72051472       4.47164136        2       0.00000000      -0.01634522      -0.04963149       0.05548862
Ni       3.89896568       3.74732938       4.41342068        2       1.00000000      -0.00909210       0.12306002      -0.23471716
Pt       6.47173049       3.79359823       4.33081306        2       0.00000000      -0.09302533      -0.00048538      -0.07262134
Ni       9.08653345       3.72289315       4.41789228        2       1.00000000      -0.06425597       0.02950417      -0.29159534
Ni       2.61383288       5.92643601       4.41596123        2       1.00000000       0.08153638      -0.23849912      -0.17220659
Ni       5.16254210       5.93011714       4.37844570        2       1.00000000      -0.09103105      -0.08404713      -0.23065381
Ni       7.78809200       5.91929352       4.40623683        2       1.00000000      -0.05511445      -0.02010969      -0.25945434
Pt      10.32629815       5.87299755       4.50178160        2       0.00000000      -0.12854739      -0.04759520      -0.07973911
Pt       3.89924226       8.13998042       4.33606272        2       0.00000000      -0.03594396      -0.18685860       0.06334796
Pt       6.46404158       8.17594601       4.29647278        2       0.00000000      -0.06856680      -0.04313388      -0.11539857
Pt       9.03457865       8.18602354       4.36835743        2       0.00000000       0.00876645       0.02190366      -0.01200288
Pt      11.69231915       8.13468402       4.39124383        2       0.00000000       0.03947552      -0.11346416      -0.03994412
Pt       0.03673584       0.02258688       6.66726155        1       0.00000000      -0.00080199       0.01546942       0.05495424
Pt       2.62178855       0.02169658       6.70527427        1       0.00000000      -0.02407334       0.10236180       0.22535833
Pt       5.18847576      -0.08121448       6.58853854        1       0.00000000       0.01080409      -0.08395696      -0.26834408
Pt       7.80806884      -0.07265253       6.62195671        1       0.00000000       0.02334513       0.09822397      -0.15674641
Ni       1.33112616       2.27708785       6.63108985        1       1.00000000       0.12710358       0.15908846      -0.06686356
Ni       3.86600535       2.24324431       6.56794612        1       1.00000000      -0.11073345       0.09029085      -0.22159556
Pt       6.47815315       2.24136081       6.57559122        1       0.00000000       0.03276462       0.10897104      -0.15396163
Pt       9.18579861       2.31695544       6.57041031        1       0.00000000       0.13455750       0.24729190      -0.11264651
Ni       2.54981910       4.44469623       6.61911200        1       1.00000000      -0.17424954      -0.06692089      -0.12555683
Pt       5.12335437       4.42570352       6.62502016        1       0.00000000      -0.14639189      -0.05171235       0.10226731
Ni       7.83564170       4.47455305       6.55689206        1       1.00000000       0.08046791       0.09647538      -0.28271673
Ni      10.41577549       4.47285852       6.64626984        1       1.00000000       0.10622903       0.21275888       0.00369392
Pt       3.81455485       6.64708971       6.62106845        1       0.00000000      -0.12576671      -0.00962843       0.17427947
Pt       6.54859366       6.65110860       6.55212844        1       0.00000000      -0.00517144      -0.01444363      -0.09749311
Ni       9.10662931       6.64665149       6.63239289        1       1.00000000      -0.00652420      -0.08980831      -0.09699496
Ni      11.65963078       6.62690747       6.55687173        1       1.00000000      -0.04903702      -0.13591916      -0.34071131
