64
Lattice="10.455356974981997 0.00638193966798287 0.06615207730727038 5.233205409368895 9.105692457362228 0.028400531972287365 0.0 0.0 21.775066448743807" Properties=species:S:1:pos:R:3:tags:I:1:initial_magmoms:R:1:forces:R:3 unique_id=464b4cd43b474ec799d9a27b04dd4976 energy=-384.2898487236577 stress="0.005837497392202483 1.398209777723391e-05 0.00024381950828876304 1.398209777723391e-05 0.0060555843379153425 2.7003862924304677e-05 0.00024381950828876304 2.7003862924304677e-05 -0.0012475929627435" pbc="T T T"
Pt      -0.10958129      -0.01727493       0.00000000        0       0.00000000      -0.18686575      -0.02267049       0.04210418
Ni       2.64347100      -0.02374979       0.01906154        0       1.00000000       0.06558775      -0.02796638       0.39716538
Ni       5.26916939      -0.02164612       0.11401439        1       1.00000000       0.20926258       0.05842350      -0.02678991
Ni       7.81752380       0.00742586       0.09512144        1       1.00000000      -0.22494776       0.00133710       0.63841895
Pt       1.26346208       2.27912295       0.04839463        0       0.00000000       0.06410070       0.06551757      -0.98718417
Pt       4.00881016       2.20858872       0.07221324        1       0.00000000       0.12292989       0.08425172      -0.78032834
Ni       6.58913615       2.23846853       0.13167179        1       1.00000000       0.02168747      -0.21709179       0.26928944
Ni       9.10566905       2.28700086       0.07040655        1       1.00000000      -0.07311794      -0.03562552       0.44334383
Pt       2.58671021       4.63927262       0.05346206        1       0.00000000       0.11767520      -0.02240919      -0.97662692
Pt       5.33013003       4.51336118       0.12502993        1       0.00000000       0.17376052      -0.19032019      -0.52093907
Ni       7.89852382       4.54571612       0.13746885        1       1.00000000       0.12774120       0.06415120       0.30833325
Ni      10.40542720       4.59042686       0.06983254        1       1.00000000      -0.07141030       0.09297658       0.39154756
Ni       3.90285539       6.86825816       0.12632526        1       1.00000000      -0.09209427       0.07861071      -0.01317331
Pt       6.57914967       6.82454252       0.12285589        1       0.00000000      -0.08175733      -0.07903268      -0.43355118
Ni       9.18650474       6.81711828       0.06281113        1       1.00000000       0.06363883      -0.08568081       0.50340648
Ni      11.76520011       6.87262001       0.14826429        1       1.00000000       0.13347532       0.08670598      -0.03514178
Pt       1.26669982       0.69078677       2.21378673        2       0.00000000      -0.02159358      -0.04877601       0.04949497
Pt       4.03398971       0.75010871       2.26518275        3       0.00000000      -0.03225054       0.03247860       0.17830838
Ni       6.59773488       0.77079330       2.23203578        2       1.00000000       0.13890176      -0.01071338       0.04295974
Ni       9.09535521       0.74210902       2.25429968        3       1.00000000      -0.17232032       0.01005204       0.02490689
Pt       2.65297801       3.05218814       2.24529946        2       0.00000000      -0.03783746       0.05132546       0.20466327
Ni       5.29507259       3.02053703       2.26907630        3       1.00000000       0.00865768      -0.04903846       0.28844415
Pt       7.77641225       3.02825930       2.26901886        3       0.00000000      -0.04907852      -0.05263102       0.09292693
Pt      10.35258566       3.06534041       2.25787730        3       0.00000000      -0.15180139      -0.06653485       0.02123090
Pt       3.99767316       5.40419505       2.22403170        2       0.00000000       0.02050254       0.10028225       0.00598545
Ni       6.59508242       5.28072692       2.27490006        3       1.00000000       0.13246537      -0.09959944       0.28853544
Ni       9.13168554       5.30533247       2.26903124        3       1.00000000      -0.12040081      -0.05085400       0.12460406
Pt      11.70748227       5.36191752       2.27707935        3       0.00000000      -0.10321251      -0.02167809       0.07735427
Ni       5.20957641       7.59895178       2.22295556        2       1.00000000      -0.01582478       0.11841908       0.15692884
Pt       7.88055564       7.49071950       2.27925152        3       0.00000000       0.03297883      -0.05198874       0.08617414
Pt      10.51730337       7.60437467       2.19698008        2       0.00000000       0.09185018       0.03209497       0.07499274
Ni      13.10937210       7.65775717       2.24159560        2       1.00000000       0.03345726       0.18960919      -0.03824816
Pt      -0.11791028       1.56402179       4.45135454        5       0.00000000      -0.28509025       0.11003135      -0.16817200
Pt       2.66044807       1.48527436       4.44150448        4       0.00000000       0.01411840       0.06909292      -0.11304059
Ni       5.32304702       1.53682494       4.44283233        4       1.00000000       0.11859459       0.09036991      -0.27803976
Ni       7.83535884       1.56169132       4.46970198        5       1.00000000      -0.14114009       0.12988186      -0.19493194
Pt       1.21351299       3.84373090       4.44833535        4       0.00000000      -0.07551856       0.09018101      -0.07469383
Pt       4.05113026       3.74877030       4.39581709        4       0.00000000       0.09845935       0.01927678      -0.15814778
Ni       6.62822780       3.76383585       4.45060697        5       1.00000000       0.14700554      -0.02158870      -0.24933040
Ni       9.12095970       3.83025547       4.49074072        5       1.00000000      -0.21988895       0.05797582      -0.21391223
Pt       2.60914054       6.10846810       4.40915610        4       0.00000000      -0.01637591       0.00490256      -0.12751121
Pt       5.36156591       6.04618211       4.39081346        4       0.00000000       0.12761899      -0.03974023      -0.16915291
Ni       7.92505191       6.00323820       4.47239851        5       1.00000000       0.11765570      -0.24253764      -0.24294344
Ni      10.41796225       6.05172145       4.53061331        5       1.00000000      -0.09194865      -0.04076433      -0.04935654
Pt       3.92343274       8.38797640       4.39542241        4       0.00000000      -0.01568278       0.00390828      -0.22135767
Pt       6.56120616       8.34831179       4.48422789        5       0.00000000      -0.10571187       0.06052959      -0.01471089
Pt       9.19494214       8.25403206       4.53894775        5       0.00000000      -0.02364061      -0.11714302       0.05620327
Pt      11.79046454       8.43935911       4.45870585        5       0.00000000      -0.06289262       0.11944566      -0.10814384
Ni       0.01370352       0.01930310       6.59789576        6       1.00000000      -0.09073706      -0.02233825      -0.00603671
Ni       2.64511589      -0.01391031       6.69080796        7       1.00000000      -0.05131119       0.08871470      -0.14688887
Pt       5.23927564      -0.03165763       6.75233553        8       0.00000000       0.02467381       0.12700678       0.00949295
Ni       7.90425806       0.02681979       6.71818198        7       1.00000000       0.04762243      -0.02774156      -0.42002631
Pt       1.24657501       2.22516257       6.62775921        6       0.00000000       0.06771880      -0.00503593       0.77904462
Pt       3.95868718       2.22356838       6.63226101        6       0.00000000       0.03134764       0.02209153       0.79931425
Pt       6.66896357       2.22674686       6.66743091        7       0.00000000      -0.12036073       0.03067476      -0.19376074
Ni       9.18162127       2.26296088       6.72507358        7       1.00000000       0.01277617      -0.04819947      -0.31281273
Pt       2.60860339       4.54566730       6.62226088        6       0.00000000       0.10102012      -0.10140600       0.83050827
Pt       5.32296380       4.54831436       6.64068977        6       0.00000000       0.16064267       0.07386945       0.55291285
Pt       8.00410245       4.55289515       6.66848628        7       0.00000000      -0.16154508      -0.01963181      -0.32606089
Ni      10.46654410       4.56213514       6.72278501        7       1.00000000       0.11295549      -0.04020381      -0.24809063
Pt       3.95615284       6.92103919       6.73298167        7       0.00000000       0.13874132      -0.08631980      -0.00888163
Pt       6.66509672       6.88034162       6.66167135        7       0.00000000      -0.05277371      -0.13432397       0.45894671
Ni       9.19239638       6.81366144       6.71246056        7       1.00000000       0.08179191      -0.01633252      -0.21272189
Pt      11.72030856       6.81666916       6.77506645        8       0.00000000      -0.01228472      -0.06827081      -0.12683389
