64
Lattice="10.113508262573736 0.03733894956232441 0.011773637775409856 5.089090610158465 8.802212453780376 -0.012662740073678352 0.009613134988703479 -0.017488691906151693 8.632992185979719" Properties=species:S:1:pos:R:3:tags:I:1:initial_magmoms:R:1:forces:R:3 unique_id=2900e72d4ee340adaec7443585641622 stress="-0.00017635757444192657 -1.2491019736699877e-06 3.7553581077114368e-06 -1.2491019736699877e-06 -0.0001741744312480989 3.870256872999557e-06 3.7553581077114368e-06 3.870256872999557e-06 -0.00013680886266829312" energy=-388.1433062681741 pbc="T T T"
Pt      -0.03338400      -0.10521728      -0.00423073        4       0.00000000      -0.05747595      -0.16756472      -0.04973311
Ni       2.56607404      -0.05009133       0.05151910        4       1.00000000       0.03097106      -0.02087395       0.09852568
Ni       5.10217096      -0.03268076       0.07126262        4       1.00000000       0.05745287      -0.06773911       0.10921395
Ni       7.52280834       0.03083549       0.05285264        4       1.00000000      -0.07337484       0.00307482       0.01820703
Pt       1.27424504       2.20421491      -0.00199292        4       0.00000000       0.02312781      -0.03019530      -0.08467410
Pt       3.89345828       2.22746592      -0.02067056        4       0.00000000       0.16246665      -0.01168157      -0.23364962
Ni       6.39347093       2.21914637       0.07253870        4       1.00000000       0.12407741       0.01450509       0.08094844
Ni       8.78674885       2.23701767       0.05628715        4       1.00000000      -0.02782135       0.03036478      -0.00376028
Ni       2.59265637       4.45236122       0.15568217        4       1.00000000       0.05167410       0.00151676       0.32459914
Ni       5.10807377       4.46211136       0.07397445        4       1.00000000       0.05446459       0.03574781       0.06722914
Ni       7.54557747       4.41873753       0.09053911        4       1.00000000      -0.08281103      -0.00321870       0.11852717
Pt      10.05523240       4.51290902      -0.01129032        4       0.00000000      -0.08965042       0.08013644      -0.18145169
Ni       3.81738997       6.53732065       0.06418401        4       1.00000000      -0.00222830      -0.17343150       0.09957485
Ni       6.34944778       6.53950409       0.05616290        4       1.00000000       0.01959160      -0.13791361       0.01253094
Ni       8.86403583       6.65571643       0.05572856        4       1.00000000      -0.03040439       0.09420519       0.08644939
Ni      11.40459467       6.67042870       0.04812767        4       1.00000000       0.00359014      -0.00198339      -0.03809458
Pt       1.27367088       0.70802940       2.27299283        3       0.00000000      -0.08508697       0.00574838      -0.03901321
Pt       3.86800690       0.72935092       2.20063961        3       0.00000000      -0.02651122       0.07920073      -0.08507519
Ni       6.31786915       0.76421315       2.18262129        3       1.00000000       0.00298483       0.04528308       0.10690044
Pt       8.76817453       0.80587427       2.19968693        3       0.00000000      -0.05941395       0.05134068      -0.07870168
Ni       2.57482629       2.96632186       2.22011943        3       1.00000000       0.05756510      -0.03280373       0.04530611
Pt       5.12991388       3.01398552       2.24184686        3       0.00000000      -0.02107407      -0.02713991      -0.02549925
Ni       7.57257009       3.01263375       2.18545834        3       1.00000000      -0.00502638       0.13943180       0.12926834
Pt      10.06937377       3.00717322       2.27963328        3       0.00000000       0.04406523       0.04384141      -0.10360584
Ni       3.86123988       5.14629705       2.18380978        3       1.00000000       0.03268695       0.02171208       0.18005175
Ni       6.34178107       5.13639585       2.18210942        3       1.00000000       0.01507111       0.00827947       0.16507942
Ni       8.82149082       5.13899673       2.21483762        3       1.00000000      -0.04827435      -0.03280496       0.13715679
Pt      11.40578237       5.16958817       2.24526910        3       0.00000000      -0.02807133      -0.00061856      -0.03363724
Ni       5.08333924       7.24633176       2.17814224        3       1.00000000       0.01702762      -0.08314909       0.07056101
Pt       7.60437925       7.23314327       2.15548330        3       0.00000000      -0.02391931      -0.05572821       0.06877898
Ni      10.14716862       7.33289701       2.15165906        3       1.00000000      -0.01385934      -0.07254750       0.05958959
Pt      12.66155434       7.35922799       2.14384818        3       0.00000000      -0.07520158      -0.01098574      -0.05479723
Ni      -0.00084266       1.49054650       4.36711990        2       1.00000000      -0.14191354       0.04585002      -0.01748412
Ni       2.53706048       1.49884768       4.34109241        2       1.00000000       0.04125205       0.00724310      -0.08988277
Ni       5.11349905       1.49970349       4.35387944        2       1.00000000       0.13823748      -0.01268762      -0.01943490
Ni       7.56193204       1.52764692       4.35233186        2       1.00000000      -0.03955031       0.06188126       0.00640201
Ni       1.28351710       3.64454490       4.31732977        2       1.00000000       0.09583385       0.00419687       0.02897419
Ni       3.82942054       3.67218135       4.29669393        2       1.00000000      -0.00951857       0.10507893       0.03992913
Ni       6.36016548       3.68766205       4.34778595        2       1.00000000       0.02811773       0.02449852       0.07682781
Ni       8.82225904       3.69742473       4.35246810        2       1.00000000      -0.15195048      -0.00815682      -0.02664360
Ni       2.55519502       5.84518546       4.31141805        2       1.00000000       0.03264808      -0.06295662       0.11190629
Ni       5.11042619       5.82390939       4.30685862        2       1.00000000       0.04071559      -0.07881664      -0.00647792
Ni       7.59320228       5.81785257       4.33797648        2       1.00000000      -0.01563618      -0.08615319       0.06003820
Ni      10.13388285       5.86021589       4.33704142        2       1.00000000      -0.04508962      -0.01454060      -0.01451324
Pt       3.83005407       8.03319832       4.35320583        2       0.00000000       0.05707502      -0.01373502       0.08212844
Ni       6.36096856       8.03536266       4.34632046        2       1.00000000       0.01568201      -0.13791730       0.03715892
Pt       8.90279602       8.05185273       4.37883710        2       0.00000000       0.05196097      -0.02984289       0.12142485
Ni      11.41074592       8.09737967       4.33288804        2       1.00000000      -0.00198738       0.04869255      -0.02388377
Ni       0.03500368       0.01454400       6.29604951        1       1.00000000       0.06744179       0.12540581      -0.21113875
Ni       2.51297892       0.00544814       6.39608746        1       1.00000000      -0.04403974       0.05840729       0.00611268
Ni       5.09015143       0.02570004       6.40838666        1       1.00000000       0.04957853       0.11172081       0.01591405
Ni       7.55971293       0.04190979       6.40857177        1       1.00000000      -0.03394779       0.11030088      -0.07631142
Ni       1.25969960       2.17068623       6.25431681        1       1.00000000      -0.01829818       0.03879893      -0.19366548
Ni       3.82561698       2.17211284       6.25037331        1       1.00000000       0.01474717      -0.01589011      -0.33816186
Ni       6.34318558       2.21318522       6.37003406        1       1.00000000       0.00261310       0.07045545      -0.01522680
Ni       8.84479825       2.22578607       6.36327989        1       1.00000000      -0.07212132       0.03983683      -0.07208908
Pt       2.55631426       4.39389787       6.38013311        1       0.00000000      -0.00309122      -0.00789539       0.16205351
Ni       5.12246343       4.40120361       6.36102638        1       1.00000000       0.06184948      -0.00390479      -0.08467150
Ni       7.60071340       4.40433946       6.36965054        1       1.00000000      -0.01593846      -0.01495408       0.03362047
Ni      10.09488390       4.41573549       6.25648783        1       1.00000000      -0.03756134      -0.05546111      -0.29319771
Ni       3.84035957       6.59141749       6.39628514        1       1.00000000       0.07031839       0.01717634      -0.00522431
Ni       6.35590227       6.59152429       6.36075991        1       1.00000000       0.00451487      -0.00656175      -0.10388960
Ni       8.87283030       6.58054698       6.40007341        1       1.00000000      -0.03641642      -0.12174424       0.01212142
Ni      11.38681234       6.65656314       6.36622808        1       1.00000000      -0.05213782       0.07766563      -0.16952028
