64
Lattice="10.195638540127177 0.014795858489482143 -0.04279123477402515 5.110632859386281 8.76005595804597 -0.09235289572131294 0.0 0.0 21.52027010419515" Properties=species:S:1:pos:R:3:tags:I:1:initial_magmoms:R:1:forces:R:3 unique_id=889290fa44af4cfeb56e067a22f4bc47 energy=-369.9589850663686 stress="0.0021415131825223664 9.090261790673767e-07 -0.00024240671574982543 9.090261790673767e-07 0.00130706667351968 -0.00019291581368127277 -0.00024240671574982543 -0.00019291581368127277 -0.005186026019079075" pbc="T T T"
Ni       0.03712231      -0.06180099       0.22867755        2       1.00000000       0.07446072      -0.02717123      -0.29463588
Ni       2.48081824      -0.03903740       0.23801995        2       1.00000000      -0.01272462      -0.02272395      -0.24579005
Pt       5.08301142      -0.05176803       0.16284777        2       0.00000000      -0.07984254       0.31620689      -1.31548932
Ni       7.66852424      -0.05462300       0.18339853        2       1.00000000      -0.06958999      -0.03236870      -0.42948719
Ni       1.27116717       2.19273013       0.13167690        1       1.00000000      -0.04600641       0.02662039       0.31221063
Pt       3.73334513       2.24914151       0.18933062        2       0.00000000       0.12520237      -0.06588492      -0.71917167
Pt       6.38517340       2.27272239       0.08545086        1       0.00000000      -0.05505312      -0.06638842      -0.24205791
Pt       8.99375671       2.24600478       0.10146993        1       0.00000000      -0.01593627       0.13524212      -0.74806457
Ni       2.54446868       4.42036095       0.04680851        0       1.00000000       0.06650151       0.02564713       0.20467841
Ni       5.09507492       4.46456331       0.08306947        1       1.00000000      -0.07577791       0.03882511       0.25859692
Ni       7.64396700       4.45802645       0.08128652        1       1.00000000       0.05663181       0.00450254       0.22207439
Ni      10.21766406       4.42544438       0.02750240        0       1.00000000      -0.03648701       0.02736416       0.22446311
Ni       3.84109375       6.54927861       0.07082468        1       1.00000000       0.02441697       0.01639090       0.31369893
Ni       6.36273899       6.55690720       0.06673472        1       1.00000000      -0.02299138       0.05293030       0.30663032
Ni       8.87542001       6.51577659       0.12232560        1       1.00000000      -0.11159509      -0.00978546      -0.29141721
Ni      11.51652164       6.53085810       0.00000000        0       1.00000000       0.02567113       0.05505481       0.15286389
Ni       1.29270882       0.71699650       2.22849485        4       1.00000000      -0.01182088       0.02077714       0.18647227
Ni       3.74129971       0.72896757       2.20209516        4       1.00000000      -0.13600118      -0.08477797       0.19008405
Ni       6.39572500       0.74041019       2.20230617        4       1.00000000       0.07163922       0.04073855       0.17272614
Pt       8.94265216       0.72569331       2.20209526        4       0.00000000       0.04020155      -0.11101334       0.16703904
Ni       2.52923414       2.87339819       2.26954983        5       1.00000000       0.02203877      -0.11931199       0.20389696
Ni       5.08097522       2.97997015       2.18428837        4       1.00000000       0.01868278       0.10695040       0.06762408
Ni       7.65551557       2.96894195       2.20160960        4       1.00000000      -0.00418958       0.03898481       0.10878488
Ni      10.22095783       2.91384511       2.21782036        4       1.00000000       0.06359322      -0.05278219       0.19404778
Ni       3.86623673       5.09607368       2.15985387        4       1.00000000       0.02441118      -0.01501953       0.07165933
Ni       6.36903266       5.12511220       2.11999944        3       1.00000000       0.01220723      -0.01864742       0.03051511
Ni       8.87141711       5.06271514       2.14891912        3       1.00000000       0.01379380      -0.09183451       0.11269216
Pt      11.52169846       5.02846994       2.14601164        3       0.00000000       0.05374791      -0.08367356       0.05175985
Ni       5.13622190       7.22547284       2.10998912        3       1.00000000      -0.03221531      -0.05960885       0.09266454
Ni       7.56990806       7.25586552       2.09322360        3       1.00000000      -0.07937680      -0.07404612       0.11823450
Pt      10.20159564       7.23799874       2.14603545        3       0.00000000       0.01935729      -0.18235320       0.17652299
Ni      12.77526402       7.25268310       2.06877221        3       1.00000000       0.08326246      -0.06677288       0.08986865
Ni       0.04515817       1.46268809       4.30976374        7       1.00000000       0.10108630      -0.04650249      -0.10852519
Ni       2.46448698       1.47312920       4.27139256        7       1.00000000      -0.06078812      -0.02573066      -0.10430994
Pt       5.08446711       1.46080720       4.19939916        6       0.00000000      -0.00186416      -0.03089228      -0.29200132
Ni       7.64405158       1.44811398       4.26907259        7       1.00000000      -0.02543499      -0.06609991      -0.25529790
Ni       1.26629315       3.60716489       4.34187893        7       1.00000000       0.04181429      -0.05527638      -0.03358581
Ni       3.76656097       3.70073379       4.24916626        6       1.00000000       0.01144445       0.09250706      -0.18774130
Pt       6.39116251       3.70169198       4.26898084        7       0.00000000       0.03139435       0.00107636      -0.03489924
Ni       8.95708527       3.67695535       4.21564981        6       1.00000000       0.03416252       0.08158024      -0.18486984
Ni       2.53531048       5.75585839       4.32238999        7       1.00000000      -0.01611224      -0.03041693      -0.06127211
Ni       5.08776615       5.79901654       4.27362898        7       1.00000000       0.04933823      -0.00364431      -0.15450403
Ni       7.61827404       5.80764877       4.22656456        6       1.00000000      -0.02564758       0.02943786      -0.17504004
Ni      10.21814932       5.75128177       4.27901648        7       1.00000000       0.01503502       0.03566083      -0.07128798
Pt       3.82557247       7.90846612       4.22375754        6       0.00000000       0.00526187       0.03472575      -0.00531903
Ni       6.33925991       7.97114982       4.19096367        6       1.00000000      -0.10104411      -0.03470849      -0.18824986
Pt       8.81791681       7.96136195       4.17871688        6       0.00000000      -0.13061929       0.04726905      -0.08862875
Ni      11.49245936       7.94651365       4.20055722        6       1.00000000       0.01600858      -0.08754804      -0.18905063
Pt      -0.00880080      -0.08907652       6.52027010       10       0.00000000      -0.15055771       0.17224853       0.21478499
Pt       2.49847993      -0.02942082       6.51107166       10       0.00000000       0.19772698       0.12755045       0.30220825
Pt       5.10057959      -0.05125318       6.37213134        9       0.00000000      -0.08478420      -0.02385052       1.26679087
Pt       7.62115027      -0.08166791       6.47470791       10       0.00000000       0.09566988       0.18628045       0.35197743
Ni       1.25004462       2.21746679       6.40910742        9       1.00000000       0.03951884       0.01944203      -0.14711100
Pt       3.77589243       2.29993764       6.35454177        9       0.00000000      -0.11364760      -0.04728465       0.67123347
Ni       6.35809943       2.20964379       6.34088470        8       1.00000000       0.04140127       0.01134847       0.31956020
Pt       8.91743100       2.26725175       6.27654463        8       0.00000000      -0.02171691      -0.17186309       0.75622249
Ni       2.50185479       4.40031857       6.38437834        9       1.00000000       0.07159855      -0.05665010      -0.24373589
Ni       5.08850433       4.40812791       6.40451713        9       1.00000000      -0.05081036       0.00067405      -0.23874846
Ni       7.57412818       4.34932264       6.41129970        9       1.00000000      -0.03235852      -0.02270546      -0.08147582
Ni      10.26329068       4.34599507       6.35339623        9       1.00000000       0.02138312      -0.00613657      -0.19538596
Ni       3.80933609       6.43274842       6.39876746        9       1.00000000       0.00546029      -0.01300232      -0.24830498
Ni       6.32869494       6.46208708       6.37094056        9       1.00000000       0.01882932       0.02815358      -0.28761858
Pt       8.90694679       6.38817862       6.41648121        9       0.00000000       0.04197378       0.02522767       0.10908065
Ni      11.49459422       6.46164705       6.33888774        8       1.00000000      -0.02993368       0.10705886      -0.15858985
