64
Lattice="10.33113722573092 -0.031743415328756665 0.03874112961517184 5.13807800878788 8.915983356961728 0.020183252481361838 0.031631999872065684 0.0007662092868182293 8.81655625411844" Properties=species:S:1:pos:R:3:tags:I:1:initial_magmoms:R:1:forces:R:3 unique_id=f4a63d90a0e74a62be3cec3cde2694a6 stress="0.000249011136867372 3.938603946510446e-06 -2.3072670221087757e-05 3.938603946510446e-06 0.00025309119843230227 2.4567359852780463e-06 -2.3072670221087757e-05 2.4567359852780463e-06 0.0002399417037269036" energy=-399.25136142535393 pbc="T T T"
Ni      -0.01561149       0.02546297       0.20165152        4       1.00000000      -0.06198658       0.11241569       0.31865326
Ni       2.58263944      -0.00291891       0.21721420        4       1.00000000       0.01671791       0.00433375       0.41649305
Ni       5.16744880      -0.02468707       0.17932055        4       1.00000000      -0.00571279       0.15991099       0.25162600
Ni       7.77306572      -0.05743842       0.14210015        4       1.00000000       0.08893440      -0.09666143       0.21223287
Ni       1.26715476       2.22274210       0.09142765        4       1.00000000      -0.07714448      -0.06328585       0.13840409
Pt       3.80449905       2.22248713       0.12265281        4       0.00000000      -0.04189540       0.04073380      -0.13685001
Pt       6.48077881       2.15226613       0.21865373        4       0.00000000       0.06977360      -0.08206733       0.17227907
Ni       9.05475136       2.16875415       0.18074537        4       1.00000000      -0.00444773      -0.18546496       0.13529798
Ni       2.55610440       4.46461242       0.06699612        4       1.00000000      -0.00311147       0.01060673      -0.01321275
Ni       5.14829736       4.44839794       0.17626204        4       1.00000000       0.19214768      -0.09809756       0.20340302
Pt       7.80874343       4.45297789       0.13530702        4       0.00000000       0.16920045      -0.01769184      -0.11375230
Ni      10.34558131       4.43940960       0.09470252        4       1.00000000       0.10742226      -0.01063359       0.06475094
Ni       3.82375664       6.71641479       0.19016468        4       1.00000000      -0.03334751       0.16802645       0.22976121
Pt       6.42027372       6.72956831       0.22715480        4       0.00000000      -0.04008627       0.04431493       0.16112959
Ni       9.04343299       6.68350136       0.11358562        4       1.00000000       0.02014215       0.04266757       0.07993012
Ni      11.62086027       6.67624670       0.10048310        4       1.00000000       0.12989934       0.09709277      -0.02706807
Ni       1.29711568       0.73233731       2.17273110        3       1.00000000      -0.01297755       0.05879843      -0.08176615
Ni       3.87176323       0.75600303       2.21668118        3       1.00000000       0.04653194       0.07681805       0.01163516
Ni       6.49117129       0.73416026       2.26905619        3       1.00000000       0.09337840       0.06470792       0.13617733
Ni       9.01984203       0.70020925       2.21846360        3       1.00000000      -0.14382720       0.00764697      -0.06538947
Ni       2.58644808       2.94441278       2.21964440        3       1.00000000      -0.07015203       0.01463607      -0.02385683
Ni       5.15799193       2.93503394       2.26281579        3       1.00000000      -0.08389427      -0.15988868       0.02367785
Ni       7.75301181       2.93363514       2.26995406        3       1.00000000       0.08758396      -0.11671483      -0.07775257
Pt      10.29167062       2.87965190       2.23054501        3       0.00000000      -0.00432584      -0.02168631       0.03399485
Pt       3.89192296       5.17850512       2.17995557        3       0.00000000      -0.02210834      -0.07363135       0.02240598
Ni       6.48707578       5.17785085       2.24780983        3       1.00000000       0.12815607       0.00631948      -0.06946808
Ni       8.99605548       5.18364445       2.27282548        3       1.00000000      -0.05045564      -0.03270909       0.13316883
Pt      11.61650222       5.17753646       2.18862525        3       0.00000000      -0.04262115      -0.02065885      -0.02234150
Ni       5.13057069       7.47422185       2.21146390        3       1.00000000      -0.11398038       0.08023318      -0.07130520
Ni       7.73317491       7.42355782       2.23901197        3       1.00000000       0.02887515      -0.05979211      -0.00643467
Pt      10.29235741       7.44482456       2.15682700        3       0.00000000       0.02200271      -0.05013989      -0.02000910
Ni      12.91828103       7.44294415       2.22097397        3       1.00000000      -0.03589277       0.03672322      -0.05949450
Ni      -0.01262781       1.52043108       4.36316440        2       1.00000000      -0.00604301       0.05078246      -0.08209984
Pt       2.63380059       1.53985588       4.33444000        2       0.00000000       0.01522237       0.00478232      -0.11267759
Ni       5.18024591       1.49836275       4.36002294        2       1.00000000       0.07621694       0.02826123      -0.17466381
Ni       7.78660742       1.48617621       4.36129274        2       1.00000000       0.11393082       0.06830956      -0.21507242
Pt       1.30067606       3.71807268       4.45576833        2       0.00000000       0.00156527      -0.02618568      -0.06450426
Ni       3.88302041       3.70120096       4.39101335        2       1.00000000       0.05710417       0.02308271      -0.16208952
Pt       6.51172865       3.66761083       4.29680345        2       0.00000000      -0.04710755      -0.07723208       0.04295751
Ni       9.03077503       3.67900070       4.40298894        2       1.00000000       0.01283185      -0.05661572      -0.22799532
Ni       2.56784299       5.92842571       4.40445844        2       1.00000000      -0.02896589       0.02922368      -0.11758523
Pt       5.14543566       5.90456295       4.33625456        2       0.00000000       0.01824199       0.04486636       0.07909482
Ni       7.76717384       5.88776726       4.37795880        2       1.00000000      -0.04567605      -0.03975308      -0.21881200
Pt      10.28812997       5.87816797       4.48470430        2       0.00000000      -0.04842447       0.02022636      -0.08898568
Pt       3.84660184       8.23586432       4.30813464        2       0.00000000      -0.03169975       0.03305922      -0.01016816
Pt       6.43890820       8.19364165       4.28423916        2       0.00000000       0.00387776       0.04619751       0.01061982
Pt       9.02163936       8.15554545       4.37053873        2       0.00000000      -0.06342820       0.05105365       0.09257915
Pt      11.64196786       8.19114741       4.39767572        2       0.00000000       0.02682100       0.04425351      -0.03640665
Pt      -0.00039165       0.04201847       6.59844893        1       0.00000000      -0.06391766       0.01485824       0.19126018
Pt       2.62275422       0.05111938       6.63926109        1       0.00000000      -0.01711828       0.09666395       0.25815021
Pt       5.22072971      -0.08007392       6.62567482        1       0.00000000       0.01533683      -0.22097725       0.11945016
Ni       7.76446535      -0.02733475       6.58498560        1       1.00000000       0.03460811       0.04771609      -0.11403249
Ni       1.32407211       2.28074235       6.56367011        1       1.00000000       0.03990958       0.08051433      -0.04290145
Ni       3.85885690       2.24844493       6.48418409        1       1.00000000      -0.03589301      -0.00058701      -0.26466673
Pt       6.48609255       2.18444660       6.50020244        1       0.00000000       0.00493987      -0.01821914      -0.22222206
Pt       9.09488019       2.28794760       6.55865580        1       0.00000000       0.12634453       0.12098566       0.03392393
Ni       2.54207646       4.43643771       6.55565866        1       1.00000000      -0.15101519      -0.04441147      -0.11808487
Pt       5.10616285       4.39696202       6.59372121        1       0.00000000      -0.12200856      -0.03222208       0.05815701
Ni       7.80451065       4.45707236       6.48563405        1       1.00000000       0.04763941       0.03349845      -0.31227127
Ni      10.35022262       4.45950522       6.60454864        1       1.00000000       0.02229944       0.11219012      -0.00122427
Pt       3.75122427       6.67645046       6.60877685        1       0.00000000      -0.16482388      -0.01180936       0.15010552
Pt       6.52929581       6.62996629       6.52943439        1       0.00000000       0.00541663      -0.02781891      -0.19501600
Ni       9.06809406       6.61851731       6.59385784        1       1.00000000      -0.02090277      -0.13228658      -0.06292977
Ni      11.60094186       6.61969923       6.60028906        1       1.00000000      -0.12808092      -0.19926937      -0.14820892
