64
Lattice="10.30535277916671 -0.03460983103964028 0.03679871565204756 5.122703396682337 8.90510245829765 0.007194677943349103 0.030046025512428458 -0.010563873501418245 8.870591733352311" Properties=species:S:1:pos:R:3:tags:I:1:initial_magmoms:R:1:forces:R:3 unique_id=811cdab92b36476c8c437005fec5f973 stress="0.0002636490292643387 7.53966245668205e-07 -9.718036282339154e-06 7.53966245668205e-07 0.0002619649404683941 1.6141942857416579e-06 -9.718036282339154e-06 1.6141942857416579e-06 0.0002575753482736351" energy=-398.48580300819805 pbc="T T T"
Ni       0.04821057       0.02088115       0.15988640        4       1.00000000       0.17165931       0.07615822       0.23948377
Ni       2.53624301       0.00333850       0.20489688        4       1.00000000      -0.11750122       0.07330546       0.43538919
Pt       5.08302580      -0.05794751       0.13388518        4       0.00000000      -0.08592177       0.01022746       0.21577785
Pt       7.79522989      -0.11411921       0.17968342        4       0.00000000       0.05050521      -0.09749291       0.32895632
Ni       1.24507143       2.23454643       0.10498834        4       1.00000000      -0.15437180       0.04831087       0.26925341
Pt       3.76152901       2.28085367       0.11984740        4       0.00000000      -0.12388306       0.10870048      -0.10578836
Pt       6.44162114       2.26898869       0.17572406        4       0.00000000       0.02667751       0.09732461       0.26661958
Ni       9.06978025       2.21931122       0.19596506        4       1.00000000       0.09900435       0.06815471       0.29029006
Ni       2.56009517       4.47516456       0.06385496        4       1.00000000       0.04908285       0.06516202      -0.02181584
Ni       5.09852915       4.47540642       0.11197490        4       1.00000000      -0.06080512       0.10109112       0.22338722
Pt       7.80023535       4.47139149       0.12495504        4       0.00000000       0.12310584       0.01303626      -0.12385652
Ni      10.32588871       4.41317028       0.10470002        4       1.00000000       0.14728497      -0.09888859       0.14021089
Ni       3.83181441       6.62715565       0.10434772        4       1.00000000      -0.02019020      -0.21129386       0.23159656
Pt       6.38814182       6.70688778       0.19687708        4       0.00000000      -0.03033695       0.01025646      -0.01199373
Ni       9.00570960       6.63627570       0.09642033        4       1.00000000       0.02211911      -0.01349488       0.09956508
Ni      11.58335412       6.59380341       0.09660659        4       1.00000000       0.03132593      -0.13643337       0.05737912
Ni       1.33124388       0.73337792       2.21701087        3       1.00000000       0.14038621       0.00044198       0.05332570
Ni       3.81018652       0.75760171       2.24475750        3       1.00000000      -0.04290116       0.05211797      -0.03698957
Pt       6.39888304       0.77851568       2.31866736        3       0.00000000      -0.09977873       0.09578565      -0.11733357
Pt       9.14800769       0.74456296       2.25603169        3       0.00000000       0.04196009       0.02485400       0.00483664
Ni       2.57517617       2.95113427       2.23983442        3       1.00000000      -0.00940003       0.01191118       0.06662583
Ni       5.10038336       3.01724541       2.27694507        3       1.00000000      -0.21799316       0.15514615       0.03790956
Ni       7.76351679       3.01170730       2.26885731        3       1.00000000       0.09842602       0.13868138       0.01612349
Ni      10.31579490       2.94289196       2.24664476        3       1.00000000       0.12062125       0.09036837       0.08613228
Ni       3.89347619       5.18613911       2.23688746        3       1.00000000       0.12253641      -0.02481735       0.07096374
Ni       6.41431188       5.19212900       2.26659134        3       1.00000000      -0.04832941       0.12888190      -0.10683308
Ni       8.97283094       5.13572510       2.27822110        3       1.00000000      -0.07383988      -0.14846954       0.19204859
Pt      11.63955965       5.10201072       2.19498847        3       0.00000000       0.14149425      -0.08027097       0.05400654
Ni       5.15271231       7.38093893       2.25816567        3       1.00000000       0.08880962      -0.14960868       0.01236588
Ni       7.65974094       7.40669239       2.26252886        3       1.00000000      -0.20934465      -0.07413020       0.03555124
Pt      10.22395279       7.31112257       2.22518789        3       0.00000000      -0.03667377      -0.08262636      -0.23747281
Ni      12.91494846       7.32887025       2.26325250        3       1.00000000       0.15332871      -0.20749909       0.00859007
Ni       0.03832225       1.48667322       4.39644084        2       1.00000000       0.12195841      -0.01624583      -0.01435517
Pt       2.58345117       1.49896840       4.35554407        2       0.00000000      -0.01095345      -0.05728213      -0.01672766
Ni       5.12380942       1.51083404       4.41627944        2       1.00000000      -0.06292174       0.11839884      -0.04811708
Pt       7.79729437       1.52859161       4.40669799        2       0.00000000       0.04711358       0.02208994       0.19463134
Pt       1.30144818       3.70180465       4.45352452        2       0.00000000      -0.01671722      -0.00469834       0.00772209
Ni       3.87560571       3.73839201       4.42565592        2       1.00000000      -0.05165471       0.11151629      -0.12733731
Pt       6.39705154       3.79473125       4.34770072        2       0.00000000      -0.02100495      -0.11422284      -0.04560099
Ni       9.00937482       3.70335695       4.41143003        2       1.00000000      -0.03976458       0.00797855      -0.22194926
Ni       2.62268204       5.88803410       4.43936264        2       1.00000000       0.10559795      -0.18209862      -0.07025681
Ni       5.12842462       5.90103113       4.38668530        2       1.00000000      -0.05242913      -0.07141069      -0.23036234
Ni       7.70033073       5.90320380       4.39275324        2       1.00000000      -0.13496440       0.01342871      -0.28068576
Pt      10.24427046       5.84144640       4.50729643        2       0.00000000      -0.08456775      -0.03504998      -0.00924365
Pt       3.94448557       8.05750222       4.35047760        2       0.00000000       0.00938969      -0.03525601       0.08072187
Ni       6.42317737       8.12342425       4.36918749        2       1.00000000      -0.03815998      -0.08307136      -0.17728381
Pt       8.91068904       8.11370895       4.36446528        2       0.00000000      -0.03254820       0.02321999       0.05120832
Pt      11.60787374       8.06520185       4.39582530        2       0.00000000       0.08990492      -0.13505248       0.01810863
Pt       0.03814446      -0.00094345       6.60375962        1       0.00000000      -0.03901616       0.00337730       0.05637646
Pt       2.59078138       0.02119158       6.65432679        1       0.00000000       0.04735955       0.05155006       0.22600777
Pt       5.15180898      -0.06094342       6.53746200        1       0.00000000       0.01192907      -0.08559072      -0.41516099
Pt       7.76023636      -0.11152795       6.58727549        1       0.00000000      -0.00245106      -0.06737678      -0.21675608
Ni       1.33112769       2.27684592       6.59598359        1       1.00000000       0.12737804       0.16017628      -0.01617543
Ni       3.84457651       2.27615187       6.51548139        1       1.00000000      -0.12872174       0.19489152      -0.25886145
Pt       6.38681605       2.29726162       6.55074883        1       0.00000000      -0.07331425       0.20115834      -0.23220269
Pt       9.10353994       2.30905512       6.63753124        1       0.00000000       0.07976177       0.16773303       0.18213263
Ni       2.59490866       4.46126990       6.58260591        1       1.00000000       0.03818008       0.03959566      -0.14812134
Ni       5.09093973       4.44935170       6.58037074        1       1.00000000      -0.30117035       0.04721485      -0.16431001
Ni       7.76416214       4.46097099       6.52408496        1       1.00000000       0.10364091       0.08368099      -0.32253573
Ni      10.33680803       4.45787010       6.63864910        1       1.00000000       0.12838133       0.14019078       0.05341670
Ni       3.83703630       6.59094430       6.57711783        1       1.00000000      -0.06469503      -0.21573232      -0.15512025
Pt       6.42915588       6.56797790       6.49804170        1       0.00000000      -0.06300804      -0.06695385      -0.18501821
Ni       9.02758580       6.60133942       6.61826168        1       1.00000000      -0.06609670      -0.07494433      -0.06988370
Ni      11.60014254       6.56920595       6.62860845        1       1.00000000       0.07650744      -0.18610530      -0.11856522
