64
Lattice="10.460278021162454 0.030175517934682546 -0.044631324681703305 5.256271775685015 9.104607516986606 -0.04908810618328319 -0.0364413240048861 -0.025241302119892454 8.971584061493258" Properties=species:S:1:pos:R:3:tags:I:1:initial_magmoms:R:1:forces:R:3 unique_id=18217c5743b545ebb0963d0c65050432 stress="0.0002778454007147449 -6.673435654020314e-08 8.905644906575603e-06 -6.673435654020314e-08 0.00028017086300981264 -4.0235892900046365e-06 8.905644906575603e-06 -4.0235892900046365e-06 0.00023653656237179743" energy=-408.33229202892926 pbc="T T T"
Ni       0.02104143       0.00123848       0.05802677        4       1.00000000      -0.01001000      -0.00695355       0.06483252
Ni       2.61082376       0.01193422       0.17135881        4       1.00000000       0.01991104      -0.08504457       0.25409656
Pt       5.13585224       0.05026140       0.03563635        4       0.00000000      -0.04856494       0.00754762      -0.09962638
Pt       7.87456365       0.01124976      -0.05035562        4       0.00000000      -0.02635826       0.00460561      -0.16044031
Pt       1.39330606       2.22219100      -0.02927711        4       0.00000000       0.09318907      -0.09037215      -0.25584540
Ni       3.90438544       2.27618737       0.06635777        4       1.00000000      -0.00124517       0.00251143       0.15149186
Pt       6.53006463       2.27795242       0.09232705        4       0.00000000       0.06615243      -0.00746490       0.01070410
Pt       9.20712608       2.26996518      -0.00956384        4       0.00000000       0.06053431      -0.04909883      -0.13017485
Ni       2.62547745       4.52728933       0.12732194        4       1.00000000      -0.01792544       0.01259136       0.18190695
Pt       5.17903206       4.53085194       0.07875302        4       0.00000000      -0.02171058       0.00559873      -0.09394246
Pt       7.86117965       4.56375711       0.06408653        4       0.00000000       0.00222520      -0.03234188      -0.05891453
Pt      10.52213462       4.54426543       0.04243456        4       0.00000000       0.04280375      -0.08224885      -0.06845124
Pt       3.94748711       6.82813507      -0.04893082        4       0.00000000      -0.00338358      -0.00743563      -0.14516430
Pt       6.56739809       6.90488575       0.11324268        4       0.00000000      -0.00719454      -0.00333516       0.03739716
Pt       9.16237303       6.86028321       0.15477737        4       0.00000000       0.02263134      -0.07065231       0.06346400
Pt      11.78960977       6.82072826      -0.02165898        4       0.00000000      -0.02231208       0.00556939      -0.08376892
Pt       1.32712132       0.74617741       2.23324496        3       0.00000000      -0.07911847       0.04455151       0.04464248
Ni       3.90202697       0.73740370       2.23021485        3       1.00000000      -0.01908886       0.00872287       0.08369095
Pt       6.50523971       0.74391713       2.31236978        3       0.00000000      -0.03761578      -0.03362151       0.07299266
Pt       9.15703966       0.86225577       2.34155041        3       0.00000000      -0.05081994       0.04183211       0.02277300
Pt       2.55087609       3.06320590       2.26398121        3       0.00000000      -0.13027748       0.02332896       0.02345218
Pt       5.21485203       3.02294250       2.26534469        3       0.00000000      -0.07878188      -0.04159297       0.08835048
Ni       7.89331824       3.09185056       2.26246711        3       1.00000000       0.09086266       0.04198601       0.05412132
Ni      10.43178300       3.10400930       2.27960910        3       1.00000000      -0.05773298       0.05119150       0.13714326
Pt       3.91396666       5.30347217       2.29320910        3       0.00000000      -0.01690921       0.01836657       0.05057355
Ni       6.59188694       5.30801183       2.22802350        3       1.00000000       0.02205618      -0.04052526       0.00272024
Ni       9.17083550       5.28819209       2.23324610        3       1.00000000       0.02206217      -0.12335017       0.04518372
Ni      11.72091696       5.31297924       2.21073157        3       1.00000000      -0.06511524       0.01396831       0.03367169
Pt       5.24835246       7.56188699       2.28885395        3       0.00000000      -0.07148104       0.04174986       0.10595727
Ni       7.89625907       7.58879298       2.22707788        3       1.00000000      -0.00747562       0.01712148       0.10612975
Ni      10.44602917       7.57524902       2.22649384        3       1.00000000       0.02108087      -0.02972942       0.08557398
Pt      13.02228043       7.59276255       2.27975983        3       0.00000000      -0.02735399      -0.00032352       0.01666790
Ni      -0.06392505       1.55495410       4.50886001        2       1.00000000      -0.00853917       0.07514977      -0.01989215
Pt       2.55222900       1.60723437       4.49763830        2       0.00000000       0.01001013       0.01966382       0.03816245
Pt       5.21830557       1.50658874       4.48246203        2       0.00000000      -0.02485063       0.03952756       0.02818405
Ni       7.89770322       1.50518752       4.45831055        2       1.00000000       0.05514322      -0.01729877      -0.00381260
Ni       1.24471736       3.76291947       4.44655175        2       1.00000000      -0.09425931       0.00001601      -0.06090642
Ni       3.89673991       3.79560726       4.44912627        2       1.00000000      -0.05150374       0.00447300      -0.01793761
Pt       6.61074732       3.78025786       4.37710996        2       0.00000000       0.10942168      -0.04329581      -0.05669046
Ni       9.19182935       3.73915040       4.40932459        2       1.00000000       0.04770108      -0.06700922      -0.08734689
Pt       2.64753515       6.06667963       4.50320923        2       0.00000000       0.00288517      -0.07860002       0.00871093
Ni       5.21404947       6.06004477       4.42608937        2       1.00000000       0.05905189      -0.00393946      -0.03228249
Pt       7.85031000       6.03511204       4.32114005        2       0.00000000      -0.02630326       0.02667658      -0.02118899
Pt      10.49786129       5.99526061       4.34271170        2       0.00000000      -0.01565528      -0.00575795      -0.01538855
Ni       3.89788799       8.37180792       4.48856778        2       1.00000000      -0.01261683       0.06617597      -0.01683813
Pt       6.45860527       8.39360921       4.44125873        2       0.00000000      -0.03078241       0.12651626       0.08912250
Pt       9.19336014       8.33890691       4.32997830        2       0.00000000      -0.01936362       0.04131372       0.03223132
Ni      11.80933783       8.36088506       4.45327816        2       1.00000000       0.00578198       0.00657405       0.03094847
Ni      -0.09111548       0.02819143       6.63150941        1       1.00000000      -0.10189100       0.13363702      -0.06456259
Pt       2.59095299       0.07576798       6.71281509        1       0.00000000       0.04613079       0.07868807       0.21875288
Ni       5.24133884      -0.00764155       6.55378961        1       1.00000000       0.10310258      -0.05977147      -0.10776975
Ni       7.85693481      -0.01589152       6.48380625        1       1.00000000       0.08772474      -0.04222659      -0.17380069
Ni       1.21968050       2.28208734       6.53625097        1       1.00000000      -0.25752087       0.04128835      -0.24507838
Ni       3.90332257       2.27799733       6.63581346        1       1.00000000       0.05651295       0.05295848       0.01253735
Pt       6.61666588       2.21999528       6.56040809        1       0.00000000       0.22479262      -0.01608902       0.15872741
Ni       9.17764252       2.27496810       6.47911794        1       1.00000000       0.08473729       0.03244909      -0.17365898
Pt       2.51809850       4.49419399       6.63962303        1       0.00000000      -0.10054905      -0.06979485       0.15198647
Pt       5.18766945       4.53183023       6.51044790        1       0.00000000      -0.00542911      -0.02829578      -0.01266414
Ni       7.87177514       4.52769199       6.53595548        1       1.00000000       0.11008656      -0.01141438      -0.10754922
Ni      10.42947567       4.50966706       6.50416606        1       1.00000000      -0.11285046      -0.11728777      -0.15441549
Ni       3.90116837       6.87152721       6.51106141        1       1.00000000       0.06934515       0.12576144      -0.13863970
Pt       6.48187787       6.83292687       6.55079853        1       0.00000000       0.03818925      -0.01675465       0.11403155
Pt       9.21599035       6.79465840       6.57494212        1       0.00000000       0.05334403      -0.01404951       0.09128979
Ni      11.78427934       6.87097058       6.49556226        1       1.00000000       0.03511966       0.08356337      -0.10547109
