64
Lattice="10.096109745181314 0.007827502726999043 -0.021366840977213912 5.05483368880049 8.66758086494882 -0.061221696074343884 -0.01744595260312171 -0.04764794316819887 8.585242987161447" Properties=species:S:1:pos:R:3:tags:I:1:initial_magmoms:R:1:forces:R:3 unique_id=1d1c753af9504d91a1ed51c398ff3384 stress="0.0010192876125968212 -6.679014550593201e-10 1.1294449928409534e-05 -6.679014550593201e-10 0.0010317223901766953 -9.03749585241397e-06 1.1294449928409534e-05 -9.03749585241397e-06 0.0009253519598741294" energy=-385.5724378366655 pbc="T T T"
Ni       0.03541791      -0.05045336       0.18450582        4       1.00000000       0.09952065      -0.10255368       0.26640899
Ni       2.50531871      -0.04160794       0.19321557        4       1.00000000      -0.03097423      -0.13292496       0.20130197
Ni       5.05646181      -0.04197797       0.20260835        4       1.00000000      -0.06540233      -0.14253404       0.31148857
Ni       7.53134740      -0.04442687       0.16490795        4       1.00000000      -0.06891206      -0.12200229       0.24607398
Ni       1.26327825       2.17506308       0.10010887        4       1.00000000      -0.01462117       0.01794689       0.21487150
Pt       3.77834533       2.17104383       0.17055401        4       0.00000000      -0.04683478      -0.05686029       0.34186046
Ni       6.30476148       2.17863320       0.09056379        4       1.00000000      -0.02015928       0.01192334       0.20018457
Pt       8.83359843       2.21997660      -0.00402137        4       0.00000000       0.00042899       0.01958284      -0.29335311
Ni       2.50210311       4.37094786       0.07511091        4       1.00000000      -0.04205840       0.05664498       0.15594597
Ni       5.06833393       4.37142880       0.07250298        4       1.00000000      -0.01015689       0.06833227       0.15968703
Ni       7.54666270       4.37993640       0.07064531        4       1.00000000      -0.03347203       0.14213112       0.19921999
Ni      10.12241556       4.38178513       0.06093370        4       1.00000000       0.02081998       0.14056958       0.15651703
Ni       3.78763806       6.48050565       0.06545218        4       1.00000000      -0.01482100      -0.05135841       0.13054958
Ni       6.31068395       6.48991611       0.06307256        4       1.00000000       0.02844742      -0.02331431       0.05637229
Ni       8.83602033       6.49375756       0.14118232        4       1.00000000      -0.01516044      -0.01304951       0.26602475
Ni      11.35966145       6.49304050       0.05279827        4       1.00000000      -0.07037346      -0.04344776       0.09357279
Ni       1.29701774       0.71434670       2.16681901        3       1.00000000       0.00799254       0.03639491       0.11274776
Ni       3.75007865       0.65952192       2.16055653        3       1.00000000      -0.14701768      -0.12317554       0.01657569
Ni       6.29054743       0.70015932       2.11313362        3       1.00000000       0.05132639      -0.02813911       0.04244934
Pt       8.83903655       0.73182703       2.15175452        3       0.00000000       0.05084430       0.17828417      -0.08495863
Ni       2.48489946       2.90574932       2.19312580        3       1.00000000      -0.01201100       0.07819898       0.08231152
Ni       5.06455724       2.92702029       2.13596352        3       1.00000000      -0.04139345       0.17351436      -0.06765953
Ni       7.55549979       2.92792533       2.12732327        3       1.00000000       0.09062270       0.09834168      -0.04056132
Ni      10.13216566       2.93297625       2.15433697        3       1.00000000       0.01039009       0.10675621       0.04012026
Ni       3.77846352       5.04396079       2.11793155        3       1.00000000      -0.03158789       0.01192449       0.03080119
Ni       6.31479816       5.07266770       2.08843107        3       1.00000000       0.04158638       0.08827828       0.01948747
Ni       8.83972248       5.05429097       2.11914645        3       1.00000000       0.02247376      -0.02187755       0.10313606
Ni      11.35374645       5.05323435       2.11093108        3       1.00000000      -0.02645665      -0.00274186       0.07812597
Ni       5.09012661       7.15718477       2.08022781        3       1.00000000       0.05014455      -0.11221872       0.01418405
Ni       7.57188305       7.20036827       2.11035667        3       1.00000000      -0.01870291      -0.10653805       0.08077893
Ni      10.09624074       7.19391796       2.10745366        3       1.00000000      -0.00758370      -0.14006567       0.15790142
Ni      12.58214669       7.15810979       2.06239076        3       1.00000000      -0.05435199      -0.15712620       0.01241904
Ni       0.02936692       1.47480487       4.25381128        2       1.00000000       0.08375436       0.01785152      -0.10727191
Ni       2.45673505       1.43914644       4.19107386        2       1.00000000      -0.01049494       0.03754900      -0.08205636
Pt       5.03546711       1.39053456       4.13673337        2       0.00000000      -0.08361921      -0.05343720       0.11769947
Ni       7.58920985       1.45216240       4.24313035        2       1.00000000       0.01783433      -0.01114953      -0.08463892
Ni       1.25314940       3.59916993       4.23939268        2       1.00000000       0.02096041       0.04457856      -0.13115891
Ni       3.73033020       3.66176258       4.18301625        2       1.00000000      -0.01700292       0.07001742      -0.17470898
Pt       6.33858674       3.65294385       4.22256472        2       0.00000000       0.04709929       0.03945276      -0.02963856
Ni       8.87981636       3.61742718       4.21673032        2       1.00000000       0.08463507       0.16537856      -0.24669303
Ni       2.48929926       5.70409284       4.22212187        2       1.00000000      -0.09844050      -0.09423521      -0.21299554
Ni       5.04481275       5.74713689       4.21771240        2       1.00000000       0.04123315      -0.05702909      -0.19794264
Ni       7.57868460       5.78574077       4.16807882        2       1.00000000       0.08564748       0.05171495      -0.20606597
Ni      10.11484083       5.73138789       4.17044401        2       1.00000000       0.00758796      -0.08417168      -0.16548979
Pt       3.78448689       7.83913925       4.15571565        2       0.00000000      -0.02845796      -0.06122987       0.10851716
Ni       6.33749084       7.89703523       4.13908070        2       1.00000000       0.02002984      -0.01351366      -0.14819782
Ni       8.81331174       7.87710903       4.13134355        2       1.00000000       0.01614229      -0.12489841      -0.09494080
Ni      11.33869032       7.85272961       4.13827784        2       1.00000000      -0.04578476      -0.14106736      -0.11641091
Pt      -0.00642475      -0.01907575       6.39770764        1       0.00000000       0.08755812       0.04517946       0.08659163
Pt       2.49769723      -0.03311744       6.34277880        1       0.00000000      -0.10006779      -0.00708433      -0.02333144
Pt       5.05437144      -0.05150705       6.39108027        1       0.00000000       0.10775443       0.00856721       0.11673654
Pt       7.56404811      -0.02112749       6.38253587        1       0.00000000      -0.05998918       0.02578491       0.07684852
Ni       1.21400743       2.20873384       6.31482848        1       1.00000000       0.01002048       0.07653131      -0.15613086
Pt       3.75116786       2.27310463       6.27616083        1       0.00000000      -0.01035852       0.27112471      -0.33454281
Ni       6.33352200       2.19887177       6.34212424        1       1.00000000      -0.01796244       0.06344424      -0.08163857
Ni       8.83269135       2.21442945       6.19703655        1       1.00000000       0.03230486       0.10840303      -0.47616977
Ni       2.48025788       4.36000620       6.30366499        1       1.00000000      -0.06034610       0.10248308      -0.15955268
Ni       5.05283873       4.36656661       6.32793539        1       1.00000000       0.00615444       0.13299394      -0.06928506
Ni       7.55532658       4.26690563       6.33183332        1       1.00000000       0.02136707      -0.10198285      -0.00245399
Ni      10.12603665       4.26033350       6.28718346        1       1.00000000       0.09452901      -0.06374399      -0.15297417
Ni       3.77920612       6.39203473       6.31582176        1       1.00000000      -0.01028149      -0.06529361      -0.08676885
Ni       6.27220485       6.40275505       6.29160976        1       1.00000000       0.02333158      -0.01673707      -0.20539712
Pt       8.83099250       6.33651573       6.30405568        1       0.00000000       0.03626447      -0.19925268       0.11448033
Ni      11.38807285       6.39799155       6.27921178        1       1.00000000      -0.00394927      -0.01512430      -0.17900378
