64
Lattice="10.271741069369822 0.011200941878419579 -0.004493046930435382 5.145570834897935 8.822569008533046 -0.061517067675724346 -0.003668557456648314 -0.0558808049811553 8.778283738290387" Properties=species:S:1:pos:R:3:tags:I:1:initial_magmoms:R:1:forces:R:3 unique_id=29e08857051b40b7a3e7430b223f6571 stress="-7.966060169496691e-05 1.233206514629033e-06 -1.3851973805001443e-06 1.233206514629033e-06 -5.556432511115428e-05 3.677741240307763e-05 -1.3851973805001443e-06 3.677741240307763e-05 -2.6461537676124303e-05" energy=-394.84341580634657 pbc="T T T"
Ni       0.03530280      -0.04420145       0.18017616        4       1.00000000       0.12673592      -0.09206667       0.32981403
Ni       2.51170848      -0.02817625       0.19686985        4       1.00000000      -0.11933025      -0.03601629       0.34347564
Pt       5.12711487      -0.04376856       0.13778983        4       0.00000000      -0.06080771      -0.15394653       0.34782495
Ni       7.72522401      -0.04602861       0.18023938        4       1.00000000       0.03090851      -0.03415954       0.34897638
Ni       1.27950171       2.20756499       0.09274240        4       1.00000000       0.01483592      -0.00935433       0.26175646
Pt       3.75165613       2.22315854       0.17106596        4       0.00000000      -0.11608661       0.06036254       0.22132180
Pt       6.45527275       2.22889460       0.08569586        4       0.00000000       0.06340990       0.08972795      -0.04910428
Pt       9.06994159       2.25212437       0.10756949        4       0.00000000       0.08171553       0.01317820       0.17041576
Ni       2.53885389       4.43916880       0.02928231        4       1.00000000      -0.01079384       0.05935544      -0.00269420
Pt       5.13155030       4.52560716       0.06108900        4       0.00000000      -0.05782696       0.18744227      -0.12934758
Ni       7.71807701       4.46257734       0.03547209        4       1.00000000      -0.03576801       0.10671477       0.08057278
Ni      10.30621796       4.44163428       0.02534627        4       1.00000000       0.11627606       0.11517360       0.05006914
Ni       3.83743998       6.65034847       0.05369036        4       1.00000000      -0.03997340       0.14088258       0.15716419
Ni       6.43932571       6.65658609       0.06236413        4       1.00000000       0.03496751       0.10406072       0.14722003
Ni       8.95856505       6.58675918       0.10004172        4       1.00000000      -0.14732973      -0.05692348       0.18951463
Ni      11.59948280       6.58546517       0.02137293        4       1.00000000       0.09155778      -0.08115925       0.06633493
Ni       1.31032915       0.72600793       2.21518650        3       1.00000000       0.00562900       0.01542252       0.17361654
Ni       3.78454376       0.74162084       2.21841025        3       1.00000000      -0.17948199      -0.05258158      -0.04032252
Ni       6.44270846       0.75538230       2.21538190        3       1.00000000       0.05258605      -0.03551855      -0.01869211
Pt       9.01723967       0.72092819       2.22897720        3       0.00000000       0.11393650       0.13897648      -0.02371366
Ni       2.55469224       2.90005709       2.25945529        3       1.00000000       0.03161689      -0.12928349       0.26129018
Ni       5.12363844       2.97055476       2.20621483        3       1.00000000      -0.10025828       0.23576654      -0.08240287
Ni       7.68544945       2.93180274       2.22860555        3       1.00000000      -0.00888396      -0.12365884       0.04648187
Ni      10.32406654       2.91358649       2.23756014        3       1.00000000       0.12207550      -0.10955491       0.19399449
Ni       3.88202875       5.14167333       2.20961059        3       1.00000000       0.08965548       0.02916170       0.17861372
Ni       6.39825839       5.16949800       2.18356775        3       1.00000000      -0.07372666       0.11885624       0.03021000
Pt       8.92264926       5.08337379       2.18415578        3       0.00000000      -0.07258295      -0.17650359       0.05150971
Pt      11.63739303       5.07865108       2.18385614        3       0.00000000       0.11318527      -0.15430747       0.09848913
Ni       5.17941426       7.29787262       2.13159265        3       1.00000000       0.06256900      -0.13794527      -0.03712569
Ni       7.62837096       7.35333033       2.12447226        3       1.00000000      -0.18105504      -0.06981172       0.01436776
Pt      10.27579050       7.31128129       2.15372493        3       0.00000000       0.00088010       0.00372640      -0.23100578
Ni      12.89104294       7.31577786       2.10464460        3       1.00000000       0.12851359      -0.17718957      -0.03527087
Ni       0.05529567       1.48000867       4.32769775        2       1.00000000       0.12076947       0.02417801      -0.05923743
Ni       2.49543517       1.49018600       4.30272699        2       1.00000000      -0.09044804       0.07785286      -0.08251133
Pt       5.11687114       1.50222604       4.24025523        2       0.00000000      -0.15617929       0.04744034      -0.01671334
Ni       7.72361619       1.47815456       4.32631700        2       1.00000000       0.04772373       0.00339854      -0.07063205
Ni       1.29060908       3.63527784       4.36411362        2       1.00000000       0.02908273      -0.04965589       0.00013095
Ni       3.80722938       3.71919804       4.29693780        2       1.00000000      -0.03790575       0.08657685      -0.20653223
Pt       6.45408678       3.72915989       4.31964310        2       0.00000000      -0.00768572      -0.05441235      -0.13321035
Ni       9.02803414       3.68054901       4.31014464        2       1.00000000       0.10962073      -0.00697142      -0.11589914
Ni       2.59700126       5.78015596       4.35722274        2       1.00000000       0.06599425      -0.12884316      -0.02779606
Ni       5.14336685       5.84368736       4.32428339        2       1.00000000       0.04553320      -0.06220392      -0.14833564
Ni       7.67312173       5.85445001       4.32129168        2       1.00000000      -0.08930884       0.10609300      -0.08121758
Ni      10.29465401       5.78145659       4.35091226        2       1.00000000       0.06852681      -0.14743118       0.00368950
Pt       3.93660755       7.98635239       4.26144106        2       0.00000000       0.04391569      -0.12679744       0.12309572
Ni       6.41489686       8.04066760       4.25558644        2       1.00000000      -0.04891502      -0.02742846      -0.16529844
Pt       8.88333259       8.03324769       4.23145174        2       0.00000000      -0.10205837       0.00839249       0.04298556
Pt      11.61135259       7.99158249       4.25581773        2       0.00000000       0.07893046      -0.05532290       0.06255770
Pt       0.01281653      -0.07641652       6.54745497        1       0.00000000       0.09046815      -0.04482221       0.16541074
Pt       2.53585934      -0.02839868       6.54152272        1       0.00000000      -0.09121788       0.05221210       0.20216616
Pt       5.13850145      -0.03474060       6.46692976        1       0.00000000       0.05052667       0.07282980      -0.41643395
Pt       7.71369642      -0.06713519       6.56572348        1       0.00000000      -0.09728987      -0.04769574       0.16491952
Ni       1.27647025       2.23002032       6.46184774        1       1.00000000      -0.00842923       0.13692534      -0.20479969
Pt       3.81112964       2.30610992       6.42347338        1       0.00000000      -0.01237902       0.27995519      -0.24600044
Ni       6.42609648       2.22206398       6.41587833        1       1.00000000      -0.03421557       0.09227581      -0.28536519
Pt       9.00705437       2.27778430       6.37151808        1       0.00000000       0.00133901       0.12355909      -0.31661938
Ni       2.53809520       4.42313621       6.44259142        1       1.00000000      -0.07959267       0.14889777      -0.24818505
Ni       5.14247796       4.43137262       6.39292973        1       1.00000000      -0.05017893       0.15951524      -0.26051434
Ni       7.66561970       4.38247233       6.46841589        1       1.00000000      -0.18782059      -0.00882047      -0.14199271
Ni      10.33733163       4.38072186       6.44548687        1       1.00000000       0.25659316      -0.01054700      -0.23874059
Ni       3.85677572       6.49941144       6.45585726        1       1.00000000       0.00285755      -0.17273767      -0.12931749
Ni       6.39923992       6.52043726       6.44312943        1       1.00000000      -0.04990719      -0.06376667      -0.20020522
Pt       8.98830483       6.44940247       6.47771862        1       0.00000000       0.00630218      -0.11470330       0.08112513
Ni      11.59189240       6.50790089       6.45595372        1       1.00000000       0.04819911      -0.08676956      -0.16387788
