64
Lattice="10.66564847141791 0.014422715574798553 0.0010958117164860213 5.345314673788285 9.255235588158351 0.0024208652631934396 0.0 0.0 21.908388840965387" Properties=species:S:1:pos:R:3:tags:I:1:initial_magmoms:R:1:forces:R:3 unique_id=d6d0f62d9fc14ea7a8309c80e6de7d98 energy=-399.15331111410944 stress="0.0012617268075797924 0.00010445018355316116 6.157657522068179e-05 0.00010445018355316116 0.0013589673447299017 -6.061721597922585e-05 6.157657522068179e-05 -6.061721597922585e-05 -0.003842441068858343" pbc="T T T"
Ni       0.00880862       0.02271284       0.07962302        1       1.00000000       0.04066347       0.03662266       0.24799922
Pt       2.57973788       0.05722554       0.10118976        1       0.00000000      -0.18981710       0.11085324      -0.36332775
Pt       5.32035564      -0.00480260       0.10135081        1       0.00000000      -0.08872053      -0.13593243      -0.43447246
Pt       8.04244035       0.01347089       0.07868491        1       0.00000000       0.06309475      -0.03203022      -0.42091694
Ni       1.33025817       2.31643540       0.08841412        1       1.00000000      -0.02254639      -0.05349744       0.29107210
Pt       3.94988836       2.36191846       0.09109053        1       0.00000000       0.11794799       0.06033241      -0.39634495
Pt       6.67744528       2.35501868       0.09250666        1       0.00000000      -0.17416021       0.07110107      -0.45432436
Pt       9.39281792       2.31875201       0.00000000        0       0.00000000       0.12852696      -0.00917769       0.10054454
Ni       2.66438362       4.61885681       0.03683965        0       1.00000000      -0.02751474      -0.01876318       0.45834677
Pt       5.32595712       4.62373949       0.08806359        1       0.00000000      -0.02285425      -0.11319828      -0.36055291
Ni       8.01298751       4.62780469       0.08916000        1       1.00000000       0.06291462       0.00050034       0.22106923
Pt      10.72588046       4.59642435       0.09116063        1       0.00000000       0.17076706      -0.03737901      -0.31147136
Pt       4.00592976       6.92385820       0.07032526        1       0.00000000       0.09153186       0.01192796      -0.23745432
Pt       6.67325451       6.94307830       0.07302965        1       0.00000000      -0.07176430       0.00933850      -0.46888866
Pt       9.33288417       6.92500714       0.09649306        1       0.00000000       0.10280858       0.05627628      -0.49162089
Pt      12.01939119       6.89850971       0.11492448        1       0.00000000      -0.16028249      -0.08171351      -0.26348550
Ni       1.32701647       0.78492296       2.28252127        2       1.00000000      -0.01519782       0.04527987       0.28712971
Pt       3.98482056       0.79727449       2.31768289        2       0.00000000      -0.03797175       0.09722313       0.34238223
Pt       6.65202556       0.77651583       2.32350462        2       0.00000000       0.07275705      -0.00858473       0.37626234
Pt       9.39467336       0.78720581       2.32175881        2       0.00000000       0.04521681      -0.04504746       0.34332061
Pt       2.65054686       3.10855538       2.26486744        2       0.00000000      -0.08065063       0.13040511       0.12231012
Ni       5.32667763       3.09423134       2.28982198        2       1.00000000      -0.05456246       0.01467939       0.41483670
Pt       8.00081493       3.10668641       2.29312136        2       0.00000000       0.14517755       0.04074624       0.28462164
Pt      10.71447737       3.06899147       2.31426662        2       0.00000000       0.02284580      -0.08264233       0.34760486
Pt       3.96800320       5.38544114       2.34422424        2       0.00000000      -0.13215517      -0.04295377       0.31336264
Pt       6.64969158       5.38757522       2.30753463        2       0.00000000       0.03431432      -0.01790541       0.30132171
Pt       9.39428076       5.42052143       2.30034321        2       0.00000000       0.01096017      -0.06983287       0.31155361
Ni      12.00967211       5.41515237       2.30651085        2       1.00000000       0.02754129      -0.06817825       0.33669142
Pt       5.35190521       7.73083474       2.30175575        2       0.00000000      -0.02926710       0.02165464       0.28099998
Pt       8.02258911       7.74733342       2.31840736        2       0.00000000       0.03988926       0.02596863       0.34601734
Ni      10.68420657       7.70390785       2.29840708        2       1.00000000      -0.01830414      -0.00614816       0.41916825
Pt      13.28775072       7.67045434       2.34686423        2       0.00000000      -0.06748011      -0.01065842       0.38104905
Ni       0.00715667       1.54149666       4.58993874        4       1.00000000      -0.00744806       0.01205382      -0.28632557
Pt       2.60318643       1.55513743       4.54121544        3       0.00000000      -0.12628606       0.09387897      -0.38083528
Pt       5.32836501       1.58271702       4.54756801        3       0.00000000      -0.05016003       0.09768636      -0.45168253
Pt       8.06397313       1.54890821       4.59719892        4       0.00000000       0.13580457      -0.03526716      -0.30168946
Pt       1.36416759       3.88110989       4.56105671        4       0.00000000       0.11128214       0.07512293      -0.24797677
Pt       3.98463590       3.93886107       4.56630858        4       0.00000000      -0.12296546       0.11810813      -0.20733984
Pt       6.64348814       3.88644182       4.53972265        3       0.00000000       0.00843663       0.04584030      -0.38457589
Pt       9.36584333       3.82653992       4.59768383        4       0.00000000       0.05783352      -0.02764937      -0.27059477
Ni       2.68907179       6.15467570       4.58437779        4       1.00000000       0.04778766      -0.04866393      -0.33061471
Ni       5.31812674       6.17409826       4.58867452        4       1.00000000      -0.01479908       0.05593434      -0.46382700
Pt       7.97844239       6.16424292       4.55871553        4       0.00000000       0.00463565      -0.06111773      -0.36035514
Pt      10.72685685       6.17329196       4.51079687        3       0.00000000       0.04054404      -0.02987932      -0.47934431
Pt       4.02838107       8.43648650       4.56146096        4       0.00000000      -0.01003374      -0.12544503      -0.33661967
Pt       6.63479983       8.51190986       4.54550848        3       0.00000000      -0.05498770       0.03487520      -0.32444473
Pt       9.35463625       8.48198684       4.54070114        3       0.00000000      -0.03099047       0.00931650      -0.40506159
Pt      12.03022114       8.46284625       4.55298903        4       0.00000000       0.07357582       0.04784148      -0.34560941
Pt      -0.01980199       0.05301837       6.87365689        6       0.00000000      -0.02742059       0.07185396      -0.14003643
Pt       2.65178405       0.01812970       6.83244534        5       0.00000000       0.01566394       0.05053452       0.37947515
Pt       5.34211623       0.00647415       6.82441412        5       0.00000000       0.05334991       0.01286292       0.48997063
Pt       8.02451464       0.02941524       6.82349137        5       0.00000000      -0.07369743      -0.10636855       0.52714432
Pt       1.30560577       2.33795466       6.89049000        6       0.00000000      -0.08973853      -0.05361650      -0.16376808
Pt       3.97091907       2.36418508       6.82158073        5       0.00000000       0.01962871      -0.04020934       0.28829782
Pt       6.70040203       2.33315788       6.82394518        5       0.00000000      -0.09264175      -0.02126299       0.40418772
Ni       9.34265605       2.32667177       6.82050597        5       1.00000000       0.06738720       0.00899222      -0.09589832
Ni       2.66801296       4.62964831       6.86225802        6       1.00000000      -0.04340866       0.01015897      -0.39895591
Pt       5.31025143       4.63825868       6.81065888        5       0.00000000       0.13013293       0.09392924       0.33564506
Pt       8.02912610       4.60249980       6.90838884        6       0.00000000       0.03191686       0.01488554       0.06911092
Pt      10.70021915       4.61002915       6.83445138        5       0.00000000      -0.04294095       0.06576331       0.33484271
Pt       3.99121595       6.90467376       6.77781645        5       0.00000000       0.02400295      -0.08427494       0.23838012
Pt       6.65412086       6.94082618       6.80464087        5       0.00000000      -0.15931770      -0.06885875       0.35737351
Pt       9.34959337       6.93572635       6.82434542        5       0.00000000       0.09303593      -0.08403480       0.41011739
Pt      12.04218716       6.90008836       6.81081903        5       0.00000000       0.04810942      -0.03225658       0.21620613
