64
Lattice="9.779946306265114 -5.754188836159574e-16 6.456942448347267e-15 4.889973153132556 8.46968194887337 3.5603995067961474e-16 0.0 0.0 21.10895530806738" Properties=species:S:1:pos:R:3:tags:I:1:initial_magmoms:R:1:forces:R:3 unique_id=99b5411f5bdb454490969502ac5a563f energy=-353.7115862658331 stress="0.0027785445336119072 -3.3487992560696105e-17 8.792902446333891e-17 -3.3487992560696105e-17 0.002778544533611784 -3.1678435681319636e-17 8.792902446333891e-17 -3.1678435681319636e-17 -0.0014654148398061664" pbc="T T T"
Ni      -0.00446359      -0.00458059       0.03332241        0       1.00000000      -0.01959202      -0.01437281      -0.03440223
Ni       2.44498658      -0.00632348       0.03440088        0       1.00000000      -0.00000000      -0.00410885      -0.02746952
Ni       4.89443674      -0.00458059       0.03332241        0       1.00000000       0.01959202      -0.01437281      -0.03440223
Ni       7.33495973       0.00000000       0.03476280        0       1.00000000       0.00000000       0.00000000      -0.01961746
Ni       1.19794860       2.10324960       0.00000000        0       1.00000000      -0.03683873      -0.02126885      -0.17053015
Ni       3.69202455       2.10324960       0.00000000        0       1.00000000       0.03683873      -0.02126885      -0.17053015
Ni       6.11866514       2.11584520       0.03332241        0       1.00000000       0.02224322      -0.00978078      -0.03440223
Ni       8.55125432       2.11584520       0.03332241        0       1.00000000      -0.02224322      -0.00978078      -0.03440223
Ni       2.44498658       4.26318274       0.00000000        0       1.00000000       0.00000000       0.04253770      -0.17053015
Ni       4.89544945       4.23800272       0.03440088        0       1.00000000       0.00355837       0.00205442      -0.02746952
Ni       7.33495973       4.23508935       0.03637401        0       1.00000000      -0.00000000       0.00367124       0.00168982
Ni       9.77447001       4.23800272       0.03440088        0       1.00000000      -0.00355837       0.00205442      -0.02746952
Ni       3.66921497       6.35841734       0.03332241        0       1.00000000       0.00265121       0.02415359      -0.03440223
Ni       6.11268154       6.35213728       0.03637401        0       1.00000000       0.00317938      -0.00183562       0.00168982
Ni       8.55723792       6.35213728       0.03637401        0       1.00000000      -0.00317938      -0.00183562       0.00168982
Ni      11.00070448       6.35841734       0.03332241        0       1.00000000      -0.00265121       0.02415359      -0.03440223
Ni       1.19827621       0.66401064       2.04980939        1       1.00000000      -0.01455969      -0.02115364       0.07491026
Ni       3.69169694       0.66401064       2.04980939        1       1.00000000       0.01455969      -0.02115364       0.07491026
Ni       6.11859374       0.70226923       2.05013902        2       1.00000000       0.02000682      -0.01155094       0.06333834
Ni       8.55132571       0.70226923       2.05013902        2       1.00000000      -0.02000682      -0.01155094       0.06333834
Pt       2.44498658       2.82322732       2.05938047        2       0.00000000      -0.00000000       0.00000000      -0.13612046
Ni       4.93827825       2.82315281       2.04980939        1       1.00000000       0.02559943      -0.00203224       0.07491026
Ni       7.33495973       2.82349031       2.05093403        2       1.00000000       0.00000000       0.00353323       0.07845659
Ni       9.73164121       2.82315281       2.04980939        1       1.00000000      -0.02559943      -0.00203224       0.07491026
Ni       3.69156789       4.98251850       2.04980939        1       1.00000000       0.01103974       0.02318588       0.07491026
Ni       6.11876656       4.94428518       2.05123270        2       1.00000000       0.02385802       0.01377443       0.07157216
Ni       8.55115290       4.94428518       2.05123270        2       1.00000000      -0.02385802       0.01377443       0.07157216
Ni      10.97835157       4.98251850       2.04980939        1       1.00000000      -0.01103974       0.02318588       0.07491026
Ni       4.89020091       7.05793680       2.05093403        2       1.00000000       0.00305986      -0.00176661       0.07845659
Ni       7.33495973       7.05079355       2.05123270        2       1.00000000       0.00000000      -0.02754886       0.07157216
Ni       9.77971855       7.05793680       2.05093403        2       1.00000000      -0.00305986      -0.00176661       0.07845659
Ni      12.22493288       7.06514349       2.05013902        2       1.00000000       0.00000000       0.02310188       0.06333834
Ni      -0.00506080       1.40869181       4.09419537        3       1.00000000      -0.02147172      -0.01239670      -0.07432711
Ni       2.44498658       1.38898479       4.12538277        3       1.00000000      -0.00000000      -0.06558544      -0.00433629
Ni       4.89503395       1.40869181       4.09419537        3       1.00000000       0.02147172      -0.01239670      -0.07432711
Ni       7.33495973       1.41164607       4.09134497        3       1.00000000       0.00000000      -0.00252987      -0.06550097
Ni       1.20289612       3.54034858       4.12538277        3       1.00000000      -0.05679866       0.03279272      -0.00433629
Ni       3.68707704       3.54034858       4.12538277        3       1.00000000       0.05679866       0.03279272      -0.00433629
Ni       6.11709885       3.53036426       4.09422335        3       1.00000000       0.03160551       0.00648893      -0.04816976
Ni       8.55282061       3.53036426       4.09422335        3       1.00000000      -0.03160551       0.00648893      -0.04816976
Ni       2.44498658       5.65229834       4.09419537        3       1.00000000      -0.00000000       0.02479341      -0.07432711
Ni       4.89344127       5.64980136       4.09422335        3       1.00000000       0.02142234       0.02412671      -0.04816976
Ni       7.33495973       5.64645463       4.09213223        3       1.00000000       0.00000000      -0.00000000      -0.05419621
Ni       9.77647819       5.64980136       4.09422335        3       1.00000000      -0.02142234       0.02412671      -0.04816976
Ni       3.66750793       7.76385892       4.09134497        3       1.00000000      -0.00219094       0.00126494      -0.06550097
Ni       6.11130215       7.75919828       4.09422335        3       1.00000000      -0.01018317      -0.03061564      -0.04816976
Ni       8.55861731       7.75919828       4.09422335        3       1.00000000       0.01018317      -0.03061564      -0.04816976
Ni      11.00241153       7.76385892       4.09134497        3       1.00000000       0.00219094       0.00126494      -0.06550097
Ni      -0.00023549       0.00012512       6.10509064        4       1.00000000      -0.00576566      -0.01136286       0.00341088
Ni       2.44498658      -0.00190373       6.10895531        4       1.00000000      -0.00000000      -0.02548859       0.04671751
Ni       4.89020864       0.00012512       6.10509064        4       1.00000000       0.00576566      -0.01136286       0.00341088
Ni       7.33495973       0.00000000       6.10448523        4       1.00000000       0.00000000       0.00000000       0.00006554
Ni       1.22157642       2.11689114       6.09936565        4       1.00000000      -0.03123650      -0.01803440       0.14329396
Ni       3.66839673       2.11689114       6.09936565        4       1.00000000       0.03123650      -0.01803440       0.14329396
Ni       6.11247583       2.11715399       6.10509064        4       1.00000000       0.01272336       0.00068823       0.00341088
Ni       8.55744363       2.11715399       6.10509064        4       1.00000000      -0.01272336       0.00068823       0.00341088
Ni       2.44498658       4.23589968       6.09936565        4       1.00000000      -0.00000000       0.03606881       0.14329396
Ni       4.89162183       4.23579284       6.10895531        4       1.00000000       0.02207377       0.01274429       0.04671751
Ni       7.33495973       4.23532995       6.10492873        4       1.00000000      -0.00000000      -0.00006598       0.01555359
Ni       9.77829763       4.23579284       6.10895531        4       1.00000000      -0.02207377       0.01274429       0.04671751
Ni       3.66725377       6.35240284       6.10509064        4       1.00000000       0.00695770       0.01067464       0.00341088
Ni       6.11288991       6.35201697       6.10492873        4       1.00000000      -0.00005714       0.00003299       0.01555359
Ni       8.55702955       6.35201697       6.10492873        4       1.00000000       0.00005714       0.00003299       0.01555359
Ni      11.00266569       6.35240284       6.10509064        4       1.00000000      -0.00695770       0.01067464       0.00341088
