64
Lattice="10.129209153005489 -0.0033426602930422054 -0.0005795616808584182 5.061709747772746 8.714538217655463 -0.05520412337116046 0.0 0.0 21.430835333536468" Properties=species:S:1:pos:R:3:tags:I:1:initial_magmoms:R:1:forces:R:3 unique_id=60b7d990cf2b45c582cf1ef057d3efdf stress="0.004804051948884138 -5.297876800376516e-05 -5.703202173975526e-05 -5.297876800376516e-05 0.004040295663073375 -0.0001676921253398083 -5.703202173975526e-05 -0.0001676921253398083 -0.0016578603026167716" energy=-367.54519620098046 pbc="T T T"
Ni       0.04349163      -0.05638252       0.15981991        2       1.00000000       0.08165302      -0.05107479      -0.30225534
Ni       2.50185392      -0.04743590       0.09785202        1       1.00000000       0.00324285      -0.05100329       0.23301938
Ni       5.05553872      -0.03203319       0.14254957        1       1.00000000      -0.06034765       0.13763654      -0.48247517
Ni       7.58963850      -0.07134001       0.15975176        2       1.00000000      -0.06341938      -0.00988993      -0.37978702
Ni       1.26941078       2.17779737       0.07323153        1       1.00000000      -0.01133193       0.00445002       0.28072044
Pt       3.72895674       2.17994508       0.13356853        1       0.00000000       0.04670243      -0.00084365      -0.50324237
Pt       6.32652101       2.19008883       0.06507000        1       0.00000000       0.02379407      -0.01385455      -0.19123766
Pt       8.92971755       2.22268218       0.08123400        1       0.00000000      -0.04513942       0.08001435      -0.78118092
Ni       2.52958224       4.39079158       0.01462437        0       1.00000000       0.08630802       0.01041648       0.16456167
Ni       5.06217354       4.42047737       0.05657435        1       1.00000000      -0.06538156       0.01048311       0.27198819
Ni       7.58871120       4.42203709       0.06103273        1       1.00000000       0.04295653       0.03084130       0.22256252
Ni      10.14742753       4.39495447       0.02374687        0       1.00000000      -0.03717382       0.08928924       0.15810525
Ni       3.80411034       6.51913606       0.04264371        0       1.00000000       0.02451875       0.00279275       0.29460877
Ni       6.32395055       6.52688596       0.04548153        0       1.00000000      -0.00561323       0.01898841       0.31934660
Ni       8.82806832       6.51223811       0.10210798        1       1.00000000      -0.13048442      -0.05274125      -0.34280704
Ni      11.41812913       6.52155830       0.00000000        0       1.00000000       0.03585029       0.01559572       0.12493449
Ni       1.30597806       0.71334575       2.15823049        4       1.00000000       0.05441994       0.02083871       0.09714935
Ni       3.76450830       0.73344121       2.17870242        4       1.00000000      -0.03946977       0.04219033       0.11448326
Ni       6.31536512       0.73821574       2.19266011        4       1.00000000      -0.03896948       0.13225695       0.23782429
Pt       8.87839422       0.70564433       2.18578020        4       0.00000000       0.02090786       0.04940782      -0.03785968
Ni       2.52265603       2.86881746       2.21076826        4       1.00000000       0.04179257      -0.08479963       0.14339675
Ni       5.04592282       2.91817535       2.18659612        4       1.00000000      -0.08770686       0.01200777       0.05988096
Ni       7.59323867       2.94025148       2.17700776        4       1.00000000       0.03895127       0.02839101       0.06129417
Ni      10.15852096       2.89175572       2.19922892        4       1.00000000       0.03958950      -0.08163578       0.17376835
Ni       3.84026770       5.06741170       2.12416599        3       1.00000000       0.06401621      -0.06121856       0.08264693
Ni       6.32675343       5.09129326       2.10046271        3       1.00000000       0.00349531      -0.01278389       0.01342266
Ni       8.81601793       5.04392767       2.12955184        3       1.00000000      -0.02129561      -0.06696416       0.10912978
Pt      11.42958352       5.01624186       2.14219627        3       0.00000000       0.08769931      -0.11631787       0.05563134
Ni       5.10152763       7.19392066       2.08260346        3       1.00000000       0.01181806      -0.09784434       0.06164185
Ni       7.53394348       7.23489419       2.08344656        3       1.00000000      -0.07003770      -0.02834299       0.06600322
Pt      10.12888648       7.25592321       2.08455858        3       0.00000000       0.00755982      -0.02752458       0.00502977
Ni      12.68104790       7.21341333       2.08360331        3       1.00000000       0.11875545      -0.07618949       0.09072479
Ni       0.06251291       1.46177289       4.23887438        5       1.00000000       0.08271719      -0.00319387      -0.11129409
Ni       2.48071238       1.46011188       4.22016441        5       1.00000000      -0.05625015       0.05201304      -0.11219065
Ni       5.07015154       1.43656847       4.20934191        5       1.00000000      -0.05620280      -0.01287682      -0.26349557
Ni       7.56749543       1.42695199       4.23949005        5       1.00000000      -0.06337396      -0.06255553      -0.15000148
Ni       1.27031044       3.59630809       4.28721519        6       1.00000000       0.01889471      -0.03655847      -0.01310514
Ni       3.76087875       3.64799745       4.20580308        5       1.00000000      -0.04109210       0.05523287      -0.21209328
Pt       6.32254294       3.62778811       4.23382522        5       0.00000000       0.00897679      -0.02114163       0.04592299
Ni       8.89631998       3.65221066       4.19503587        5       1.00000000       0.03249134       0.05536292      -0.18674635
Ni       2.52380988       5.73544090       4.27720882        6       1.00000000      -0.02964827      -0.07446702      -0.02046721
Ni       5.06651711       5.76669562       4.24451036        5       1.00000000       0.05763522      -0.06251055      -0.15201866
Ni       7.57298861       5.77219425       4.20906745        5       1.00000000      -0.01862818       0.04070965      -0.24022582
Ni      10.14794974       5.73830320       4.26146290        6       1.00000000      -0.00913186       0.03999612      -0.04767399
Pt       3.81071914       7.88161938       4.19338140        5       0.00000000      -0.00858899      -0.04044519       0.09110042
Ni       6.33216862       7.94441980       4.18617938        5       1.00000000      -0.12915134      -0.04534143      -0.20146327
Pt       8.79540224       7.98073909       4.18523986        5       0.00000000      -0.06271337       0.09153772       0.10287430
Ni      11.39082535       7.93944861       4.19924818        5       1.00000000      -0.01801110      -0.02439420      -0.08321801
Pt       0.09832396      -0.06712545       6.43076958        8       0.00000000      -0.00955175       0.12151802       0.21182535
Ni       2.52612309      -0.03459724       6.39455501        8       1.00000000       0.05636837       0.03868934      -0.01848248
Pt       5.05013518      -0.02987728       6.42372319        8       0.00000000       0.09943978       0.10000646       0.45010417
Pt       7.60294340      -0.08520731       6.43083533        8       0.00000000       0.03502890       0.11064382       0.43861198
Ni       1.27415840       2.18933411       6.34626563        7       1.00000000      -0.00498132       0.09549583      -0.19126088
Pt       3.75315139       2.22735155       6.27328902        7       0.00000000       0.01998131       0.09320244       0.46273577
Ni       6.32130345       2.18426422       6.29266417        7       1.00000000      -0.04607586      -0.07097852       0.29064645
Pt       8.87726463       2.23337837       6.25351922        7       0.00000000       0.03352672      -0.07380363       0.69496860
Ni       2.50566271       4.36899915       6.33259494        7       1.00000000       0.06263566      -0.04842635      -0.23328506
Ni       5.06182646       4.37475557       6.35937509        8       1.00000000      -0.08299962      -0.01377094      -0.21081151
Ni       7.54498545       4.32811887       6.36410363        8       1.00000000      -0.05076180      -0.02110516      -0.10282848
Ni      10.19223793       4.32931340       6.33233770        7       1.00000000       0.03382829      -0.02755216      -0.19393417
Ni       3.79831765       6.41646219       6.35281894        8       1.00000000       0.04915083      -0.03806584      -0.18787848
Ni       6.30873946       6.44762675       6.33740693        7       1.00000000      -0.04741985      -0.04723771      -0.26956481
Pt       8.82584144       6.40694843       6.38327218        8       0.00000000       0.02197708      -0.14145253       0.14289584
Ni      11.41532194       6.42788710       6.32835761        7       1.00000000      -0.03573031       0.11889757      -0.15067605
