64
Lattice="10.281814526179735 -0.024147610383236113 0.002768560695313141 5.119994819057297 8.867925516571137 -0.006141756732691231 0.0 0.0 21.558179107710238" Properties=species:S:1:pos:R:3:tags:I:1:initial_magmoms:R:1:forces:R:3 unique_id=56dfe51946884b44beca4df2c44b565d stress="0.005700295510869375 -0.00015667486201276988 -0.00011439861477148696 -0.00015667486201276988 0.005195535375753251 5.605461970674622e-05 -0.00011439861477148696 5.605461970674622e-05 -0.0014324286964109006" energy=-374.80480252610164 pbc="T T T"
Ni       0.01471180      -0.00942612       0.11441085        1       1.00000000       0.10659937      -0.00123393      -0.13337213
Ni       2.53536190       0.00645245       0.14879677        1       1.00000000      -0.08075729       0.04709149      -0.05911088
Pt       5.12813937      -0.04634015       0.07804193        1       0.00000000      -0.06252716       0.14419562      -0.87643880
Ni       7.73239079      -0.07765409       0.13172263        1       1.00000000      -0.07595757      -0.09546707      -0.28054523
Ni       1.28486618       2.22344014       0.04486255        0       1.00000000      -0.02886271       0.03818218       0.39089705
Pt       3.76444114       2.26964722       0.04505134        0       0.00000000       0.04463329      -0.05763988       0.06701042
Pt       6.41466983       2.22081746       0.05111096        1       0.00000000       0.07110141      -0.02467972      -0.06515631
Pt       9.08224058       2.20326884       0.07982034        1       0.00000000      -0.01912264       0.14485529      -0.63693254
Ni       2.55742004       4.46427289       0.00000000        0       1.00000000       0.06337375       0.05705569       0.27770581
Ni       5.08592350       4.45967827       0.04154682        0       1.00000000      -0.10864935       0.15562591       0.36056803
Pt       7.73426092       4.47595177       0.04792792        0       0.00000000       0.05081212       0.05792304      -0.01237860
Ni      10.32125228       4.43638552       0.01810523        0       1.00000000       0.06217521       0.00415421       0.22625077
Ni       3.80136219       6.63834208       0.04386505        0       1.00000000      -0.02472224      -0.03928860       0.46858169
Pt       6.35966984       6.69119518       0.12181665        1       0.00000000      -0.06609759       0.07441053      -0.30008355
Ni       8.98965863       6.62391316       0.11096912        1       1.00000000      -0.12671661      -0.00847648      -0.32800225
Ni      11.58779015       6.60122435       0.01493058        0       1.00000000       0.06526405       0.05891540       0.20518767
Ni       1.30615241       0.73504580       2.14561960        2       1.00000000       0.06501066       0.01208705       0.08393938
Ni       3.82684257       0.76746078       2.16594262        3       1.00000000       0.01782623       0.08484791       0.18930277
Ni       6.41537771       0.75579796       2.17437525        3       1.00000000      -0.08735355       0.12252029       0.18613742
Pt       9.04346113       0.67843889       2.16593017        3       0.00000000       0.11672895       0.03429353      -0.04511986
Ni       2.56682579       2.94531256       2.16895936        3       1.00000000       0.07769311      -0.02168618       0.05614369
Ni       5.10833099       2.97065893       2.18713410        3       1.00000000      -0.10028800       0.06304326       0.12777981
Ni       7.70282614       2.98144473       2.18448342        3       1.00000000      -0.00660285       0.11954485       0.15260921
Ni      10.30323717       2.93344681       2.20430872        3       1.00000000       0.06336956      -0.09528205       0.24792142
Ni       3.88216805       5.16283647       2.15568535        3       1.00000000       0.16546686      -0.06237179       0.04950559
Ni       6.39313075       5.16844122       2.19286862        3       1.00000000      -0.08083196       0.00917307       0.11523842
Ni       8.95262737       5.12402724       2.18143970        3       1.00000000      -0.12470302      -0.21703653       0.22623467
Pt      11.62288064       5.07886560       2.11761193        2       0.00000000       0.17811457      -0.12573981       0.04411411
Ni       5.13365926       7.35004417       2.17733127        3       1.00000000       0.05932238      -0.19467194       0.17602567
Ni       7.64914930       7.38107849       2.16902079        3       1.00000000      -0.14699469      -0.01721886       0.21576338
Pt      10.24405976       7.32257508       2.13885583        2       0.00000000      -0.00717235      -0.11300536      -0.22468860
Ni      12.87004611       7.32852725       2.11026191        2       1.00000000       0.12845107      -0.17371318       0.03236304
Ni       0.03051790       1.51635116       4.29697550        5       1.00000000       0.00995619       0.01940701      -0.18467156
Pt       2.53549111       1.56738976       4.25953530        5       0.00000000       0.01908251      -0.04418241      -0.01183552
Ni       5.11038447       1.52001191       4.29360793        5       1.00000000      -0.14298367       0.08086087      -0.37536314
Pt       7.69959823       1.51205313       4.26895136        5       0.00000000      -0.03581643      -0.06475879      -0.09642640
Ni       1.28867249       3.68317872       4.34719645        5       1.00000000       0.01740432      -0.00874005      -0.08021914
Ni       3.83167754       3.73200158       4.32740746        5       1.00000000      -0.07049312       0.13997806      -0.20695519
Pt       6.36030660       3.75234423       4.29664740        5       0.00000000      -0.07367364       0.05952013      -0.13089928
Ni       9.00017398       3.68676400       4.27444416        5       1.00000000      -0.07042110      -0.04797933      -0.37553372
Ni       2.60096405       5.83608120       4.34802280        5       1.00000000       0.08929127      -0.21473579      -0.07496653
Ni       5.10053898       5.86943556       4.27249892        5       1.00000000      -0.06150750      -0.10336795      -0.30392221
Ni       7.67372694       5.87870831       4.26605784        5       1.00000000      -0.04709760       0.00216567      -0.41515901
Pt      10.28375102       5.76950169       4.32944693        5       0.00000000       0.04227082      -0.02652656       0.06438746
Pt       3.91482973       8.02900399       4.27675618        5       0.00000000       0.08212944      -0.09215805       0.11354242
Ni       6.40345326       8.10373371       4.25818554        5       1.00000000      -0.05269457      -0.00100078      -0.34735078
Pt       8.88946185       8.11409305       4.24351099        4       0.00000000      -0.09381953      -0.00415846      -0.09884631
Pt      11.57656024       8.07017504       4.25832342        5       0.00000000       0.01846865      -0.13963360      -0.06980557
Pt       0.00946648       0.01541630       6.50610153        7       0.00000000       0.05760168       0.14836632       0.26169581
Pt       2.56397397       0.06370150       6.53560881        7       0.00000000       0.01527252      -0.06756594       0.28699401
Pt       5.14425782       0.05698973       6.41610041        6       0.00000000      -0.02580721       0.20967934       0.92905752
Pt       7.71422188      -0.07428409       6.55817911        8       0.00000000       0.04117263       0.13161020       0.43239555
Ni       1.31017210       2.29348954       6.46447243        7       1.00000000       0.05740056       0.17267539      -0.23850740
Ni       3.85111496       2.29404813       6.39391378        6       1.00000000       0.01791961       0.15179270      -0.07060294
Ni       6.39492251       2.25909485       6.40495326        6       1.00000000      -0.07945107       0.05194558       0.12650026
Pt       9.03139238       2.30921692       6.40285122        6       0.00000000       0.09922948      -0.01207969       0.73105888
Ni       2.56781539       4.43356879       6.44985777        6       1.00000000       0.04653388      -0.07504602      -0.47900024
Ni       5.07917849       4.39068803       6.46119606        7       1.00000000      -0.17201100      -0.03295135      -0.36473471
Ni       7.68392233       4.39747475       6.39419261        6       1.00000000      -0.02148931       0.01648451       0.03050424
Ni      10.34262590       4.40051056       6.47749722        7       1.00000000       0.19911186      -0.03768892      -0.12650292
Ni       3.80568980       6.56274707       6.46864175        7       1.00000000      -0.05685840      -0.18325044      -0.30292702
Pt       6.35267308       6.54549607       6.37503202        6       0.00000000       0.04054528       0.02047760       0.31514518
Pt       9.01526653       6.54047701       6.52910339        7       0.00000000      -0.11545725       0.02835688       0.30099842
Ni      11.59591976       6.55744393       6.49003619        7       1.00000000       0.07760769      -0.05790407      -0.17550146
