64
Lattice="10.247750970091086 0.007568156837269923 -0.04468096010912248 5.1304297011264435 8.814871910993027 -0.08118524262406036 0.0 0.0 21.544713640375548" Properties=species:S:1:pos:R:3:tags:I:1:initial_magmoms:R:1:forces:R:3 unique_id=649a635d458340a08f1c9a1d828e4a83 stress="0.005381101674122455 3.058140086087152e-05 -0.0003203691356843873 3.058140086087152e-05 0.004468543227997323 -8.625464656029512e-05 -0.0003203691356843873 -8.625464656029512e-05 -0.0020126573500931742" energy=-372.20282855797024 pbc="T T T"
Ni       0.03315504      -0.04562150       0.21182302        2       1.00000000       0.12366986      -0.01438179      -0.17768232
Ni       2.52789140      -0.03744475       0.21839911        2       1.00000000      -0.04058916      -0.00406906      -0.07596227
Ni       5.11453846      -0.02886535       0.17212195        2       1.00000000      -0.07913582       0.07390319      -0.46207891
Ni       7.67381437      -0.05789394       0.17036533        2       1.00000000      -0.07301006      -0.02986495      -0.25442358
Ni       1.27778026       2.20523052       0.11869941        1       1.00000000      -0.01365701      -0.01753964       0.35228547
Pt       3.75726065       2.17256873       0.18149529        2       0.00000000       0.03240912      -0.01014186      -0.52210444
Pt       6.41200211       2.16999630       0.08751132        1       0.00000000      -0.03298085      -0.01358809      -0.22983274
Pt       9.03765147       2.25179233       0.09405163        1       0.00000000       0.02364630       0.06182747      -0.67209923
Ni       2.53096984       4.43193591       0.05308334        1       1.00000000       0.02894479       0.01244612       0.18236273
Pt       5.11391627       4.50437643       0.06715085        1       0.00000000      -0.08029984      -0.02940083      -0.04712786
Ni       7.69049547       4.45569265       0.03567316        0       1.00000000      -0.02514874       0.03698569       0.07178832
Ni      10.27774172       4.44031612       0.01271311        0       1.00000000       0.04889068       0.07489145       0.18266377
Ni       3.82101909       6.64346925       0.07170551        1       1.00000000      -0.03315152       0.06767654       0.30860793
Ni       6.42103105       6.65034693       0.06993461        1       1.00000000      -0.00166953       0.05936512       0.31388915
Ni       8.94448140       6.61336050       0.09410949        1       1.00000000      -0.12006225       0.05364358      -0.28907990
Ni      11.55192368       6.61018527       0.00000000        0       1.00000000       0.05028531       0.00772121       0.20596038
Ni       1.30188743       0.72666069       2.22547971        4       1.00000000       0.02072978       0.06770985       0.19609992
Ni       3.78129756       0.72591687       2.21000001        4       1.00000000      -0.17115522      -0.03220449       0.11200726
Ni       6.40852020       0.73483351       2.20088514        4       1.00000000       0.06993955       0.05553742       0.15076506
Pt       8.97811497       0.72439513       2.19906704        4       0.00000000       0.08184756       0.09339817      -0.02183233
Ni       2.54069305       2.89580499       2.25866117        5       1.00000000       0.02071696      -0.13075429       0.22802696
Ni       5.10284229       2.95388955       2.20962891        4       1.00000000      -0.07516474       0.12203236       0.11560259
Ni       7.65975324       2.92696655       2.20638743        4       1.00000000      -0.03567486      -0.05342888       0.09523068
Ni      10.29480209       2.91040896       2.21734803        4       1.00000000       0.14008364      -0.11606471       0.25319718
Ni       3.84685635       5.13216214       2.18520562        4       1.00000000       0.00526746      -0.06338429       0.07675337
Ni       6.38804940       5.15815003       2.15751842        4       1.00000000       0.00745311       0.02466591       0.02909652
Pt       8.90765648       5.09780778       2.16648223        4       0.00000000       0.01807317      -0.09629615       0.03278171
Pt      11.59092923       5.08768006       2.15809956        4       0.00000000       0.05307802      -0.12624513       0.10265355
Ni       5.15119174       7.30630941       2.11797789        3       1.00000000       0.01648972      -0.05892287       0.01034396
Ni       7.61356116       7.35251686       2.11370410        3       1.00000000      -0.16478933      -0.01358253       0.11738442
Pt      10.27897218       7.37365363       2.09635620        3       0.00000000       0.05723659      -0.01627175       0.11157672
Ni      12.82913467       7.31732444       2.09004458        3       1.00000000       0.11429534      -0.08393163       0.03697832
Ni       0.04120776       1.48104524       4.33502556        7       1.00000000       0.14839567       0.02234586      -0.14765670
Ni       2.47824192       1.48252843       4.29985773        7       1.00000000      -0.07794449       0.02081746      -0.17474275
Pt       5.11461257       1.44727791       4.23739853        6       0.00000000      -0.07058502      -0.05831378      -0.07217918
Ni       7.67938539       1.45313770       4.29995466        7       1.00000000       0.04739053      -0.07128000      -0.24544058
Ni       1.26848014       3.63551423       4.36780335        8       1.00000000       0.04240157      -0.05147519      -0.04453963
Ni       3.76112163       3.68069542       4.28510482        7       1.00000000      -0.13920293       0.01741306      -0.29773912
Pt       6.46552090       3.65868963       4.30248359        7       0.00000000       0.08546906      -0.05500676      -0.11774538
Ni       9.00581798       3.67795444       4.27859097        7       1.00000000       0.19682386       0.01277916      -0.15684207
Ni       2.51491358       5.81338811       4.36026536        8       1.00000000      -0.03761825      -0.07542319      -0.02314740
Pt       5.10654420       5.84685938       4.29700615        7       0.00000000       0.04855807      -0.00705579      -0.08059204
Ni       7.67252417       5.84099711       4.29691359        7       1.00000000      -0.02041673       0.03132167      -0.13242140
Ni      10.27557938       5.80503358       4.31691882        7       1.00000000       0.09051309      -0.03853556      -0.04361493
Pt       3.80009967       8.03942374       4.25185984        7       0.00000000      -0.07869130       0.06786914       0.02491045
Ni       6.38647958       8.06860600       4.23353086        6       1.00000000      -0.09607541       0.09804251      -0.28294160
Pt       8.89585405       8.01647857       4.20987919        6       0.00000000      -0.08418648       0.01056908      -0.01603419
Ni      11.52219536       8.01000857       4.24573209        6       1.00000000      -0.05918012      -0.10366127      -0.10722701
Pt      -0.01469260      -0.07506707       6.54471364       11       0.00000000       0.02278122       0.10621480       0.23625829
Pt       2.51478693      -0.03113292       6.52981728       11       0.00000000       0.00538482       0.09880598       0.21835803
Pt       5.11738439      -0.05332157       6.53289968       11       0.00000000       0.02129194       0.04666832       0.40398505
Pt       7.65397551      -0.07762775       6.51070796       11       0.00000000      -0.08199604       0.14028217       0.35905364
Ni       1.25265148       2.22917903       6.45363681       11       1.00000000       0.03094373       0.07375785      -0.25208028
Pt       3.78862062       2.29048644       6.40501647       10       0.00000000      -0.06855395       0.11430611       0.48611784
Ni       6.38932179       2.21033076       6.39728851       10       1.00000000      -0.00365126      -0.00986879       0.27087605
Pt       8.96012150       2.26759556       6.33181201        9       0.00000000       0.00050597      -0.08784857       0.58125576
Ni       2.50474655       4.41624116       6.43344316       10       1.00000000       0.05241888       0.00259248      -0.32888492
Ni       5.10997303       4.40756125       6.38695094       10       1.00000000      -0.06377972      -0.00472862       0.16010086
Ni       7.63110023       4.37685191       6.44227777       10       1.00000000      -0.05781654      -0.03365383      -0.03991715
Ni      10.29250929       4.37304236       6.39948910       10       1.00000000       0.12070771      -0.03541841      -0.26752476
Ni       3.80747620       6.50228549       6.45631247       11       1.00000000      -0.03242238      -0.11777284      -0.19536726
Ni       6.37368120       6.52036650       6.44126648       10       1.00000000       0.03858330       0.00336744      -0.14968795
Pt       8.95356508       6.44270163       6.44965796       10       0.00000000       0.06155437      -0.07772277       0.12946986
Ni      11.53875663       6.50548746       6.39091584       10       1.00000000      -0.00817123       0.05888113      -0.22789192
