64
Lattice="10.355926157327488 7.558070235232261e-05 -0.036198220129643834 5.17802853347202 8.828396376174544 -0.08782372770517358 0.0 0.0 21.57361032575938" Properties=species:S:1:pos:R:3:tags:I:1:initial_magmoms:R:1:forces:R:3 unique_id=ea148f1f2b7f42eab99beb8ca08a5dfc energy=-375.37545420817816 stress="0.006103809921891537 4.220048447918221e-05 -0.00019152330275853596 4.220048447918221e-05 0.0044507350326810635 0.00010218825822122898 -0.00019152330275853596 0.00010218825822122898 -0.0020738804827276185" pbc="T T T"
Ni       0.01111429      -0.06247981       0.20850132        2       1.00000000       0.10088582      -0.03535826      -0.10750452
Ni       2.57752775      -0.05698201       0.21512735        2       1.00000000      -0.01227810      -0.02317404       0.02852253
Ni       5.17482519      -0.03745604       0.17059473        2       1.00000000      -0.04176607       0.01318082      -0.37249280
Ni       7.75260918      -0.06178110       0.17056029        2       1.00000000      -0.07026612      -0.07916351      -0.18840337
Pt       1.28627410       2.20615968       0.18847664        2       0.00000000      -0.03378786      -0.09143641      -0.33861341
Pt       3.86641905       2.17163977       0.18782601        2       0.00000000       0.01137443       0.00365941      -0.51745768
Pt       6.47916749       2.16426016       0.08950027        1       0.00000000      -0.00503815      -0.05650703      -0.21059387
Pt       9.06175816       2.25249236       0.10381876        1       0.00000000       0.04702209       0.06121182      -0.61015959
Ni       2.56701920       4.46056992       0.03959593        0       1.00000000       0.02242078       0.03013557       0.13983641
Pt       5.20751431       4.50513742       0.00953547        0       0.00000000       0.08934039       0.00218000      -0.19586133
Ni       7.76871873       4.46593396       0.03625145        0       1.00000000      -0.03426019       0.10511052       0.12799521
Ni      10.35337998       4.46380603       0.01546744        0       1.00000000      -0.01048715       0.07139908       0.16454896
Ni       3.85999812       6.66115522       0.04469245        0       1.00000000      -0.01585453       0.11958236       0.31527345
Ni       6.48988874       6.66262474       0.06467210        1       1.00000000       0.03165552       0.07075810       0.38607212
Ni       9.03501748       6.62142899       0.09014596        1       1.00000000      -0.12516991       0.06221406      -0.16542441
Ni      11.66426776       6.61951759       0.00000000        0       1.00000000       0.05829394       0.05410369       0.26674699
Ni       1.31354345       0.69590234       2.26876769        5       1.00000000       0.04472650      -0.01369594       0.30280376
Ni       3.82741607       0.71947094       2.22488243        4       1.00000000      -0.22654383      -0.01950641       0.13864734
Ni       6.47915806       0.72848110       2.21325958        4       1.00000000       0.08705994       0.06083877       0.14629620
Pt       9.06466924       0.71534741       2.21743466        4       0.00000000       0.07931128       0.10044581      -0.06460601
Ni       2.58042525       2.88928241       2.29265776        5       1.00000000       0.00567821      -0.12390106       0.36331630
Ni       5.18735951       2.92349717       2.22277319        4       1.00000000       0.03241527       0.07741722       0.14997868
Ni       7.73647692       2.92586535       2.22472106        4       1.00000000      -0.03686241      -0.06334789       0.14319802
Ni      10.36147510       2.91169963       2.25838759        5       1.00000000       0.02483893      -0.09356251       0.36770976
Pt       3.88693613       5.14283754       2.20182400        4       0.00000000      -0.00930066      -0.01236443      -0.01750339
Ni       6.47815884       5.15973506       2.16503939        4       1.00000000      -0.04277479       0.04365625       0.06189793
Pt       8.98712625       5.10450313       2.17877861        4       0.00000000      -0.02100071      -0.04740919       0.06554726
Pt      11.64452054       5.09127741       2.17084321        4       0.00000000      -0.02734321      -0.14692834       0.04548176
Ni       5.22209148       7.34150176       2.13044784        3       1.00000000       0.09542392      -0.04663900       0.05215652
Ni       7.69789964       7.35778775       2.12452124        3       1.00000000      -0.16356386      -0.00332791       0.09843101
Pt      10.37463781       7.38898541       2.10237702        3       0.00000000       0.00945160      -0.01169665       0.08431431
Ni      12.93254891       7.34898500       2.10453189        3       1.00000000       0.00583389      -0.02442650       0.01247184
Ni       0.01452850       1.46415684       4.33222124        7       1.00000000       0.12803977       0.02261891      -0.24669611
Ni       2.53443294       1.46166065       4.30298517        7       1.00000000      -0.06888906       0.01378727      -0.27093052
Pt       5.18321076       1.43545070       4.25667536        7       0.00000000      -0.04110595      -0.09391693      -0.05992628
Ni       7.75239948       1.44159550       4.31943300        7       1.00000000       0.02616856      -0.07861510      -0.27472515
Ni       1.28000362       3.66940605       4.33482202        7       1.00000000       0.01164743      -0.02446272      -0.12010492
Ni       3.80967857       3.67008543       4.32714634        7       1.00000000      -0.14622627      -0.01261047      -0.20114659
Pt       6.53897525       3.65440155       4.32856932        7       0.00000000       0.10101603      -0.05260160      -0.12680558
Ni       9.09152525       3.67259672       4.30449230        7       1.00000000       0.20977067       0.02007570      -0.16133515
Ni       2.53531941       5.82622002       4.38834749        8       1.00000000      -0.05733977      -0.06096260      -0.01198450
Pt       5.19155696       5.86835030       4.37233338        8       0.00000000       0.11360252       0.06843122      -0.00810105
Ni       7.75584577       5.84162056       4.31828750        7       1.00000000       0.01334825       0.02183007      -0.13298470
Ni      10.37654373       5.80992343       4.34226422        7       1.00000000       0.07048163      -0.02230282      -0.05411703
Pt       3.83232217       8.04835645       4.26373544        7       0.00000000      -0.06624249       0.03003401      -0.00100387
Ni       6.45780147       8.07861298       4.25244295        7       1.00000000      -0.05789365       0.16226178      -0.28974449
Pt       8.99300057       8.01675992       4.22402623        6       0.00000000      -0.08199052      -0.00881387       0.00032230
Ni      11.64230065       8.01493947       4.26742469        7       1.00000000      -0.05918921      -0.13809989      -0.14581252
Pt      -0.01960230      -0.12231142       6.57361033       11       0.00000000       0.00342522       0.14511878       0.18356048
Pt       2.55709508      -0.08169134       6.55711774       11       0.00000000       0.02017674       0.16331065       0.23221086
Pt       5.18525012      -0.07693975       6.56400405       11       0.00000000       0.05439051      -0.00647665       0.27043179
Pt       7.73365975      -0.10284460       6.54507230       10       0.00000000      -0.10906642       0.07837686       0.25329398
Pt       1.26973645       2.25751946       6.41066784        9       0.00000000       0.03505207      -0.01926192       0.41489269
Pt       3.89676511       2.26965675       6.43951378        9       0.00000000      -0.07661381       0.12373144       0.44716213
Ni       6.46023163       2.19546726       6.43484803        9       1.00000000      -0.01512158      -0.02337065       0.17843370
Pt       8.99533499       2.24752184       6.36733664        9       0.00000000       0.02992437      -0.07452561       0.49892129
Ni       2.56372907       4.44264268       6.45974446       10       1.00000000       0.07104577      -0.01567267      -0.33119275
Ni       5.17289604       4.40262510       6.40777502        9       1.00000000      -0.01726432      -0.02634681       0.27285358
Ni       7.71092751       4.37523641       6.47647950       10       1.00000000      -0.09521283      -0.01238043      -0.11172096
Ni      10.37176656       4.39643932       6.43509102        9       1.00000000       0.07089414      -0.02966786      -0.27664267
Ni       3.84332171       6.50523555       6.48411181       10       1.00000000      -0.04148863      -0.08251348      -0.19646215
Ni       6.44920884       6.51291693       6.47759019       10       1.00000000       0.08828006      -0.03976623      -0.10857505
Pt       9.04894815       6.44099175       6.47787720       10       0.00000000       0.02210382      -0.05213510       0.02474403
Ni      11.65903280       6.50143569       6.42539073        9       1.00000000      -0.00515800       0.04147832      -0.31944077
