64
Lattice="10.063934219658181 -0.018551019874374113 0.04052002744537636 5.015901455351772 8.71579986333744 0.01285724504348469 0.0 0.0 21.434575037888706" Properties=species:S:1:pos:R:3:tags:I:1:initial_magmoms:R:1:forces:R:3 unique_id=466c4371d3464d4abee5b88d55376178 stress="0.003698916194671574 6.398064501545706e-05 0.0001553914349804343 6.398064501545706e-05 0.004151468684651664 -0.0001340974700592905 0.0001553914349804343 -0.0001340974700592905 -0.002793075387739508" energy=-366.6241008326758 pbc="T T T"
Ni      -0.02076638       0.01558280       0.02930309        0       1.00000000       0.13176184      -0.05384621      -0.13777919
Pt       2.59629551       0.02414331       0.00000000        0       0.00000000       0.09147471       0.12405855      -0.22194943
Ni       5.09427171      -0.00282044       0.19521205        2       1.00000000      -0.04915494       0.06507028      -0.33353523
Ni       7.49908212       0.02202234       0.08031112        1       1.00000000      -0.12263095       0.06112265      -0.00493558
Pt       1.21556491       2.23913657       0.03754301        0       0.00000000       0.05529436       0.00341108      -0.09517281
Ni       3.83096785       2.20807014       0.08949145        1       1.00000000      -0.02400502      -0.06279798       0.25556277
Ni       6.28671926       2.16347916       0.17733202        2       1.00000000       0.00756536      -0.02170965      -0.12663163
Ni       8.75284507       2.18985505       0.05916349        1       1.00000000      -0.05912930       0.10171012       0.08317112
Ni       2.49147826       4.35023661       0.12464491        1       1.00000000      -0.11203088       0.02840265      -0.37093443
Ni       5.03575218       4.27161355       0.06809909        1       1.00000000       0.08662812      -0.00220603       0.02854535
Ni       7.55503795       4.28097929       0.06694635        1       1.00000000      -0.05162674      -0.11343444       0.11392346
Ni      10.04572927       4.37466015       0.06403398        1       1.00000000       0.06757503      -0.02148263       0.06340836
Pt       3.68030366       6.56695352       0.00660548        0       0.00000000      -0.02783802       0.00909712      -0.47092331
Pt       6.30324000       6.44897581       0.01704336        0       0.00000000      -0.06045898      -0.06671346      -0.34911900
Ni       8.85801952       6.50076638       0.05890812        1       1.00000000      -0.03394985       0.08119955       0.09746941
Ni      11.25830401       6.52768935       0.10780945        1       1.00000000       0.01806879      -0.02940508       0.11590732
Ni       1.27737080       0.75904523       2.19328740        4       1.00000000       0.07033094       0.02853082       0.16739029
Ni       3.82050722       0.77710887       2.19081310        4       1.00000000      -0.05948277       0.02230809       0.17564226
Ni       6.26357228       0.74000369       2.15142365        4       1.00000000      -0.00447145       0.06047993       0.21237509
Pt       8.79943879       0.75845061       2.13368907        3       0.00000000       0.04551018       0.05117795      -0.18292210
Ni       2.51401401       2.85927999       2.18735213        4       1.00000000      -0.04419293      -0.15013688       0.15617457
Ni       5.05220648       2.85442174       2.16552841        4       1.00000000      -0.04900151      -0.02979497       0.21488280
Ni       7.50618026       2.89048928       2.17134666        4       1.00000000      -0.00630162      -0.00580656       0.12997007
Ni      10.09538457       2.89722080       2.22417392        4       1.00000000       0.14672213       0.02384496       0.19631960
Pt       3.75460198       5.02129071       2.16778584        4       0.00000000       0.00454871      -0.04851681      -0.12604213
Ni       6.29450735       5.00378371       2.15694115        4       1.00000000       0.03523291      -0.08484774       0.01017994
Pt       8.83385807       5.01937385       2.18423334        4       0.00000000       0.02692920      -0.04337240       0.00521825
Ni      11.31732772       5.06105624       2.18233426        4       1.00000000      -0.01081606      -0.04280503       0.10773671
Ni       5.02778325       7.27406761       2.14568572        3       1.00000000       0.02615593       0.01575392       0.00567867
Pt       7.55481219       7.28980489       2.25996383        5       0.00000000      -0.00392388       0.07727207      -0.00847055
Ni      10.08764447       7.25885727       2.13662797        3       1.00000000      -0.05784494      -0.03847999       0.06982983
Ni      12.52234545       7.24515966       2.16492733        4       1.00000000      -0.00622332      -0.03402834       0.04478252
Ni       0.04938493       1.50515929       4.26287673        7       1.00000000       0.03661358       0.08879335      -0.15019646
Ni       2.52911619       1.45673257       4.24840101        6       1.00000000       0.04717227       0.05732053      -0.11646612
Ni       5.00989529       1.47767869       4.22602478        6       1.00000000      -0.01423720      -0.01689940      -0.07732021
Ni       7.56770605       1.49536040       4.27245334        7       1.00000000      -0.05999852       0.07859694      -0.07809921
Ni       1.24524976       3.61600301       4.22365668        6       1.00000000       0.02491267       0.04053406      -0.13101702
Ni       3.77670412       3.55514154       4.25571175        7       1.00000000      -0.03422924      -0.11497957      -0.08440990
Ni       6.33413280       3.59661303       4.23435261        6       1.00000000       0.07074699      -0.11336333      -0.12352766
Ni       8.82223917       3.59924666       4.32128087        7       1.00000000       0.03662051      -0.06999716      -0.00772826
Ni       2.47569495       5.77509788       4.24542375        6       1.00000000      -0.11841984      -0.05870663      -0.12041133
Pt       5.09963684       5.74862151       4.28506095        7       0.00000000       0.05820568      -0.06684885       0.04902231
Ni       7.60693867       5.77564292       4.32752059        7       1.00000000       0.11970386      -0.08573157      -0.00258752
Ni      10.05660616       5.75043535       4.32302067        7       1.00000000       0.04336465      -0.07526682       0.00235447
Pt       3.81572491       8.03402913       4.28246232        7       0.00000000      -0.02374359       0.04387223      -0.02178802
Ni       6.32171641       8.03641361       4.30295301        7       1.00000000      -0.02614194       0.14032823      -0.14761452
Ni       8.77197779       7.98527260       4.29487934        7       1.00000000       0.04528204       0.06358905       0.00166740
Pt      11.27474344       7.96444525       4.23443383        6       0.00000000      -0.06586520       0.05823231       0.10553393
Ni       0.04742164       0.02163177       6.34435769        9       1.00000000       0.10383459       0.03297417      -0.05072237
Ni       2.48427243      -0.00193770       6.22979919        8       1.00000000      -0.00416440       0.09180508       0.40192283
Pt       4.98921543      -0.04540193       6.43457504       10       0.00000000      -0.13244222       0.08160938       0.28885892
Ni       7.60806649      -0.01856731       6.40317228       10       1.00000000      -0.10258945       0.08000529       0.05633558
Ni       1.25498471       2.14809510       6.23619798        8       1.00000000       0.03150377       0.01931572       0.12573438
Ni       3.76019268       2.16993288       6.32772171        9       1.00000000      -0.04561228      -0.06590737      -0.17993206
Pt       6.34671113       2.22024482       6.38299867       10       0.00000000       0.01937919      -0.06539709      -0.00510209
Ni       8.87463212       2.16897846       6.34966073        9       1.00000000       0.02433133       0.02076338      -0.20189942
Pt       2.51274547       4.34233385       6.34612035        9       0.00000000      -0.08032159      -0.01382765       0.12248644
Ni       5.06239657       4.36215599       6.37414080       10       1.00000000       0.00450462       0.01572160       0.05963745
Ni       7.59537734       4.38730064       6.34816722        9       1.00000000      -0.05916844      -0.05911983      -0.21009618
Ni      10.03548794       4.33778913       6.35318405       10       1.00000000       0.06438202      -0.06585890      -0.18037042
Ni       3.78700841       6.55370739       6.28320854        9       1.00000000      -0.05481330      -0.07051431       0.63603870
Ni       6.33730303       6.54772992       6.27428923        9       1.00000000       0.06098794       0.08325756       0.43829340
Ni       8.79528596       6.47644844       6.34595721        9       1.00000000       0.03097335       0.08726486      -0.08314910
Ni      11.32072053       6.49657355       6.38481350       10       1.00000000      -0.03148693      -0.04562080      -0.14120095
