64
Lattice="10.096109745181314 0.007827502726999043 -0.021366840977213912 5.05483368880049 8.66758086494882 -0.061221696074343884 0.0 0.0 21.401729014456333" Properties=species:S:1:pos:R:3:tags:I:1:initial_magmoms:R:1:forces:R:3 unique_id=1d1c753af9504d91a1ed51c398ff3384 stress="0.005674532633045679 6.052463691519465e-05 -0.00018243344141710748 6.052463691519465e-05 0.0045898264150792895 -0.0003272743598678677 -0.00018243344141710748 -0.0003272743598678677 -0.0007995282107128021" energy=-364.1890234052196 pbc="T T T"
Ni       0.03541791      -0.05045336       0.18852719        2       1.00000000       0.11240562      -0.03791271      -0.46991665
Ni       2.50531871      -0.04160794       0.19723694        2       1.00000000       0.02442675      -0.05527337      -0.17781021
Ni       5.05646181      -0.04197797       0.20662972        2       1.00000000      -0.08603281      -0.07772723      -0.32313309
Ni       7.53134740      -0.04442687       0.16892931        2       1.00000000      -0.06365142      -0.05386229      -0.49327199
Ni       1.26327825       2.17506308       0.10413024        1       1.00000000       0.00025432      -0.01843627       0.24786319
Pt       3.77834533       2.17104383       0.17457538        2       0.00000000      -0.03502529      -0.02324483      -0.72885957
Ni       6.30476148       2.17863320       0.09458516        1       1.00000000      -0.02160165      -0.03013130       0.11071894
Pt       8.83359843       2.21997660       0.00000000        0       0.00000000       0.02018760       0.04473307      -0.37550826
Ni       2.50210311       4.37094786       0.07913228        1       1.00000000       0.02797371       0.00443215       0.33690096
Ni       5.06833393       4.37142880       0.07652435        1       1.00000000      -0.08510840       0.00523077       0.25021764
Ni       7.54666270       4.37993640       0.07466668        1       1.00000000       0.07264219       0.10297376       0.21076614
Ni      10.12241556       4.38178513       0.06495507        1       1.00000000      -0.03578579       0.08906222       0.30286977
Ni       3.78763806       6.48050565       0.06947355        1       1.00000000      -0.00865023       0.00801160       0.25532450
Ni       6.31068395       6.48991611       0.06709393        1       1.00000000       0.05132643       0.03266542       0.25314642
Ni       8.83602033       6.49375756       0.14520369        1       1.00000000      -0.00503093      -0.00106913      -0.07361919
Ni      11.35966145       6.49304050       0.05681964        1       1.00000000      -0.05937417       0.00364491       0.29599845
Ni       1.29701774       0.71434670       2.17084038        4       1.00000000       0.02223270       0.08029387       0.13139635
Ni       3.75007865       0.65952192       2.16457790        4       1.00000000      -0.16012546      -0.16903024       0.10331821
Ni       6.29054743       0.70015932       2.11715499        3       1.00000000       0.00808778      -0.00325536       0.03772197
Pt       8.83903655       0.73182703       2.15577589        4       0.00000000       0.06884844       0.12985801      -0.04080008
Ni       2.48489946       2.90574932       2.19714717        4       1.00000000      -0.04197140       0.05948103       0.13448263
Ni       5.06455724       2.92702029       2.13998488        3       1.00000000      -0.01087869       0.16176641      -0.02652724
Ni       7.55549979       2.92792533       2.13134464        3       1.00000000       0.08584468       0.09195758       0.02640948
Ni      10.13216566       2.93297625       2.15835834        4       1.00000000       0.02488352       0.08715280       0.14542851
Ni       3.77846352       5.04396079       2.12195292        3       1.00000000      -0.05001279      -0.01697643       0.05307629
Ni       6.31479816       5.07266770       2.09245243        3       1.00000000       0.05466147       0.06613488       0.05612084
Ni       8.83972248       5.05429097       2.12316782        3       1.00000000       0.03666918      -0.03614061       0.10517266
Ni      11.35374645       5.05323435       2.11495245        3       1.00000000      -0.04320815      -0.00591037       0.14376545
Ni       5.09012661       7.15718477       2.08424918        3       1.00000000       0.05097590      -0.08819537       0.05153480
Ni       7.57188305       7.20036827       2.11437804        3       1.00000000      -0.01893646      -0.09121095       0.15062578
Ni      10.09624074       7.19391796       2.11147502        3       1.00000000      -0.00368948      -0.12523499       0.21509743
Ni      12.58214669       7.15810979       2.06641213        3       1.00000000      -0.06647690      -0.14664485       0.04949237
Ni       0.02936692       1.47480487       4.25783265        7       1.00000000       0.09687949       0.00724797      -0.11152877
Ni       2.45673505       1.43914644       4.19509523        6       1.00000000      -0.04194214      -0.02470604      -0.16089284
Pt       5.03546711       1.39053456       4.14075474        5       0.00000000      -0.03765691      -0.13873611       0.07392393
Ni       7.58920985       1.45216240       4.24715172        6       1.00000000       0.05342254      -0.03417035      -0.12594830
Ni       1.25314940       3.59916993       4.24341405        6       1.00000000       0.02816609       0.02241250      -0.17685087
Ni       3.73033020       3.66176258       4.18703762        6       1.00000000      -0.03772062       0.07146883      -0.21064838
Pt       6.33858674       3.65294385       4.22658609        6       0.00000000       0.05071588       0.05553611       0.02439837
Ni       8.87981636       3.61742718       4.22075169        6       1.00000000       0.08927811       0.17004385      -0.22671297
Ni       2.48929926       5.70409284       4.22614324        6       1.00000000      -0.12480399      -0.07898174      -0.21410199
Ni       5.04481275       5.74713689       4.22173377        6       1.00000000       0.06998455      -0.03639838      -0.20053688
Ni       7.57868460       5.78574077       4.17210019        6       1.00000000       0.10683823       0.09267044      -0.23711964
Ni      10.11484083       5.73138789       4.17446538        6       1.00000000       0.00209246      -0.05215242      -0.19762935
Pt       3.78448689       7.83913925       4.15973702        6       0.00000000      -0.02825333      -0.05448904       0.05966488
Ni       6.33749084       7.89703523       4.14310207        5       1.00000000       0.07271095      -0.01477851      -0.21588957
Ni       8.81331174       7.87710903       4.13536492        5       1.00000000       0.00542015      -0.06036866      -0.25521682
Ni      11.33869032       7.85272961       4.14229921        5       1.00000000      -0.10095194      -0.15800761      -0.18079717
Pt      -0.00642475      -0.01907575       6.40172901       10       0.00000000       0.03508408       0.11533708       0.38976958
Pt       2.49769723      -0.03311744       6.34680017        9       0.00000000       0.02429739       0.04048432       0.23780060
Pt       5.05437144      -0.05150705       6.39510164       10       0.00000000      -0.03133073      -0.04479022       0.45390956
Pt       7.56404811      -0.02112749       6.38655724       10       0.00000000      -0.04985595       0.07724351       0.48191973
Ni       1.21400743       2.20873384       6.31884985        9       1.00000000       0.04021513       0.01529466      -0.13886836
Pt       3.75116786       2.27310463       6.28018220        9       0.00000000      -0.09829202       0.13817793       0.78073032
Ni       6.33352200       2.19887177       6.34614561        9       1.00000000      -0.02840379      -0.00802688       0.04619554
Ni       8.83269135       2.21442945       6.20105792        8       1.00000000       0.00614164       0.00456114       0.35355063
Ni       2.48025788       4.36000620       6.30768636        9       1.00000000       0.00515048      -0.02611696      -0.24461386
Ni       5.05283873       4.36656661       6.33195676        9       1.00000000      -0.06018822       0.02083895      -0.10242335
Ni       7.55532658       4.26690563       6.33585469        9       1.00000000       0.08455525      -0.05341503      -0.04353312
Ni      10.12603665       4.26033350       6.29120483        9       1.00000000      -0.00151534      -0.01765688      -0.27264014
Ni       3.77920612       6.39203473       6.31984313        9       1.00000000      -0.01984684      -0.00476384      -0.15460357
Ni       6.27220485       6.40275505       6.29563113        9       1.00000000       0.01092982       0.01456875      -0.23058217
Pt       8.83099250       6.33651573       6.30807705        9       0.00000000       0.04021705      -0.08094104       0.06769417
Ni      11.38807285       6.39799155       6.28323315        9       1.00000000      -0.02719769       0.05547149      -0.22642168
