64
Lattice="10.353798883390025 -0.01858871763440573 0.02196766973863594 5.160801139999844 8.87443389124702 0.005787177866430959 0.0 0.0 21.562344892885328" Properties=species:S:1:pos:R:3:tags:I:1:initial_magmoms:R:1:forces:R:3 unique_id=e6e1c869a1694facbbe596c9d6eba4c2 energy=-375.5264771531478 stress="0.0057791704993578 -0.00010342430342855038 0.00029259219030302545 -0.00010342430342855038 0.0057097141817682995 0.00020849795980819826 0.00029259219030302545 0.00020849795980819826 -0.0018955415426184802" pbc="T T T"
Ni      -0.01961378       0.03390822       0.14863490        1       1.00000000      -0.03658920       0.07876435       0.01918352
Ni       2.58524634       0.00410406       0.15822313        2       1.00000000      -0.05864065       0.04743529      -0.07530829
Ni       5.17360084      -0.01576237       0.11265153        1       1.00000000       0.01746700       0.20513992      -0.34766028
Ni       7.79297998      -0.04134928       0.16433156        2       1.00000000       0.04279699       0.01860970      -0.04036098
Ni       1.25535473       2.22155613       0.13251679        1       1.00000000      -0.09109083       0.02244168       0.10959566
Pt       3.81830751       2.22089321       0.06053177        1       0.00000000      -0.01498106      -0.01294131      -0.04840066
Pt       6.49775443       2.16038365       0.15216999        2       0.00000000       0.07975179      -0.09208248      -0.48473692
Ni       9.09653118       2.18468886       0.14049515        1       1.00000000       0.05376650      -0.03228177       0.18857310
Ni       2.56256597       4.45569628       0.00000000        0       1.00000000      -0.06915416      -0.04106160       0.13775546
Ni       5.16328555       4.43918877       0.10679165        1       1.00000000       0.18286531      -0.07998661      -0.33749919
Pt       7.83787657       4.43917559       0.06365682        1       0.00000000       0.03367378      -0.05716052       0.01481465
Ni      10.36966639       4.41742127       0.03464498        0       1.00000000       0.02595992      -0.11871023       0.22923604
Ni       3.83561144       6.68194336       0.03445115        0       1.00000000      -0.02453381       0.15282205       0.28617078
Pt       6.43304897       6.70531383       0.14890582        1       0.00000000      -0.05152502       0.05901874      -0.61704032
Ni       9.07092572       6.66070512       0.03363812        0       1.00000000      -0.08818640      -0.00252024       0.11820977
Ni      11.65509183       6.64553241       0.02096280        0       1.00000000       0.12928436       0.03865802       0.20731311
Ni       1.27322533       0.76189481       2.10570528        3       1.00000000      -0.11159688       0.11620337       0.04585922
Ni       3.87567540       0.75575521       2.14783524        3       1.00000000       0.01866773       0.07203609       0.17463453
Ni       6.50334237       0.74080908       2.19270506        4       1.00000000       0.10882450       0.12568840       0.25358911
Ni       9.06823809       0.75239488       2.14434020        3       1.00000000       0.01363236       0.18049520       0.13303201
Ni       2.56557753       2.93331740       2.14715244        3       1.00000000      -0.08419081      -0.01836652       0.07162601
Ni       5.16899817       2.92491596       2.18965623        4       1.00000000      -0.09493093      -0.12133749       0.21562408
Ni       7.81637864       2.92565311       2.19495152        4       1.00000000       0.27377071      -0.10279021       0.15146298
Ni      10.33017352       2.89820174       2.17172783        4       1.00000000      -0.06167959      -0.10861765       0.15260365
Pt       3.88756026       5.15972972       2.10240237        3       0.00000000      -0.01949374      -0.02981241      -0.03263645
Ni       6.50331551       5.15921177       2.16681022        4       1.00000000       0.12164728      -0.05098175       0.12772519
Ni       9.03051130       5.14026148       2.19143968        4       1.00000000      -0.06808866      -0.15121315       0.23112507
Pt      11.62085840       5.09280195       2.13097733        3       0.00000000      -0.08928426      -0.14174457       0.01222953
Ni       5.14371429       7.43734682       2.13116927        3       1.00000000      -0.14662140       0.11131194      -0.00985089
Ni       7.75788212       7.38872490       2.15251979        4       1.00000000       0.05963104      -0.03761908       0.07487767
Pt      10.32622760       7.39742429       2.06705597        3       0.00000000       0.02703199      -0.10475132      -0.11004879
Ni      12.95276251       7.40257705       2.12256885        3       1.00000000      -0.00084300      -0.01798256      -0.05831847
Ni      -0.01361259       1.54258208       4.25643957        6       1.00000000      -0.01580603       0.15478967      -0.30364567
Pt       2.60710042       1.57871539       4.22204687        5       0.00000000      -0.05292898       0.00763258      -0.07287919
Ni       5.17822081       1.49728389       4.27608340        6       1.00000000      -0.00136288       0.05209217      -0.32826166
Ni       7.80073578       1.48782873       4.26524338        6       1.00000000       0.12615142       0.01446437      -0.35772185
Ni       1.29519349       3.70460855       4.30149678        6       1.00000000      -0.02543823      -0.07397970      -0.18727292
Ni       3.85937628       3.69487112       4.31129870        6       1.00000000       0.01403771       0.03880285      -0.19529141
Pt       6.52723717       3.66187325       4.20604021        5       0.00000000       0.03138377      -0.07119106      -0.08246036
Ni       9.07440786       3.65774744       4.28611742        6       1.00000000       0.06979630      -0.19057893      -0.33190373
Ni       2.57297052       5.86916438       4.35375861        7       1.00000000      -0.00180289      -0.08829404      -0.05658496
Pt       5.13960166       5.87801903       4.26466654        6       0.00000000      -0.04802190       0.03907954      -0.08174265
Ni       7.79081822       5.86329636       4.29255697        6       1.00000000       0.00882769      -0.05131130      -0.35168323
Pt      10.34253581       5.80064266       4.39111381        7       0.00000000       0.01029415      -0.00965223      -0.06520219
Pt       3.86300261       8.17202839       4.20968250        5       0.00000000      -0.01579197       0.13926925      -0.04901922
Pt       6.46167898       8.16215226       4.19074686        5       0.00000000      -0.08528203       0.19377371      -0.17402345
Pt       9.04250939       8.11062685       4.26760863        6       0.00000000      -0.08278721       0.01770062      -0.06253249
Pt      11.65698496       8.13810971       4.26566095        6       0.00000000       0.05189324       0.03092218      -0.04567321
Pt       0.00879228      -0.02190912       6.52502307        9       0.00000000       0.12464810       0.15587228       0.21174897
Pt       2.62269679       0.00328791       6.55375122       10       0.00000000      -0.06899050       0.03782244       0.36727358
Pt       5.18142944      -0.07819550       6.53453510        9       0.00000000       0.06030821       0.00744340       0.45306800
Pt       7.77486986      -0.09996061       6.56234489       10       0.00000000      -0.06608518       0.12529894       0.26551738
Pt       1.33964573       2.33857086       6.49439851        9       0.00000000      -0.10519348       0.02236013      -0.00358999
Ni       3.88181745       2.23132785       6.39511984        8       1.00000000       0.04127732      -0.05987885       0.08871592
Pt       6.46093642       2.21210475       6.41612765        8       0.00000000      -0.01695238      -0.14759330       0.59439957
Pt       9.07646786       2.29160771       6.46351800        9       0.00000000       0.00166811      -0.06218643       0.02834006
Ni       2.56896034       4.48491028       6.44673430        8       1.00000000      -0.08573172       0.12291244      -0.26895005
Pt       5.07196491       4.41190159       6.51005188        9       0.00000000      -0.05250569      -0.08323541       0.20099747
Ni       7.81209323       4.44805455       6.39517235        8       1.00000000       0.04426146       0.04157960      -0.03148696
Ni      10.36470060       4.46568068       6.49459481        9       1.00000000       0.00473559      -0.04309267      -0.09985120
Ni       3.83520368       6.60983651       6.47596357        9       1.00000000      -0.04345416      -0.01422414      -0.20710246
Pt       6.52585243       6.57874703       6.43812028        8       0.00000000       0.10604031      -0.09973367       0.59533597
Ni       9.08893931       6.57851125       6.49074594        9       1.00000000      -0.05754846      -0.05041743      -0.06694353
Ni      11.65827539       6.56198767       6.49607718        9       1.00000000       0.05301945      -0.06311030      -0.17495443
