64
Lattice="10.212413725006153 0.0191630245982407 -0.04465828812721545 5.1228025286184975 8.777736505994326 -0.0913655797458082 0.0 0.0 21.508240804944396" Properties=species:S:1:pos:R:3:tags:I:1:initial_magmoms:R:1:forces:R:3 unique_id=536c15c348744b5a86f75f031c180095 energy=-370.1461821166693 stress="0.005287658560831444 1.4959468025183364e-05 -0.00014125403040639363 1.4959468025183364e-05 0.004506705292435265 -0.00017778814988970458 -0.00014125403040639363 -0.00017778814988970458 -0.0009618070848640328" pbc="T T T"
Ni       0.03362073      -0.04989383       0.20026245        2       1.00000000       0.11325558      -0.02127916      -0.18851124
Ni       2.49207299      -0.03527004       0.20751951        2       1.00000000      -0.03057831      -0.01968936      -0.11138113
Pt       5.09408063      -0.06935098       0.15080617        2       0.00000000      -0.11825604       0.01997494      -0.97613290
Ni       7.67893773      -0.04928689       0.15635941        2       1.00000000      -0.05825355      -0.03800883      -0.26846669
Ni       1.26979365       2.20201787       0.10821045        1       1.00000000      -0.03218946       0.01808366       0.36747916
Pt       3.72470643       2.21121570       0.17159223        2       0.00000000       0.05055671       0.00269367      -0.54956737
Pt       6.41689278       2.21618078       0.07666587        1       0.00000000      -0.02173934       0.01176463      -0.25305011
Pt       9.02150175       2.25439242       0.08788867        1       0.00000000       0.05825873       0.11522331      -0.59780380
Ni       2.50097761       4.42411338       0.07200765        1       1.00000000      -0.03234908       0.03390175       0.41715535
Pt       5.09971196       4.50584874       0.05433706        1       0.00000000      -0.08407882       0.08802140       0.05188889
Ni       7.69428754       4.45488403       0.05529016        1       1.00000000       0.05696747       0.05175008       0.28584728
Ni      10.24957997       4.43726625       0.04130695        0       1.00000000       0.04074905       0.10310472       0.43662427
Ni       3.81006846       6.61392710       0.05234362        1       1.00000000      -0.00969498       0.06477883       0.33173911
Ni       6.41133493       6.62128892       0.04853590        0       1.00000000      -0.01763729       0.06225684       0.31481344
Ni       8.90786499       6.53223293       0.09657060        1       1.00000000      -0.08762172      -0.05407007      -0.12608827
Ni      11.53478995       6.53575574       0.00000000        0       1.00000000       0.02414541      -0.02194089       0.25599140
Ni       1.29592959       0.72459070       2.20949347        4       1.00000000       0.00769406       0.10093800       0.22044988
Ni       3.75560054       0.72705081       2.20331592        4       1.00000000      -0.21736626      -0.04052733       0.10660735
Ni       6.39963583       0.73252784       2.20265041        4       1.00000000       0.10140134      -0.03729672       0.14783319
Pt       8.95292825       0.72615168       2.19451055        4       0.00000000       0.09494486       0.10213949      -0.01196939
Ni       2.50243227       2.93906888       2.24250325        4       1.00000000      -0.02642813       0.03226397       0.20597954
Ni       5.08809269       2.95804651       2.18548294        4       1.00000000      -0.07997519       0.19288265       0.06335440
Ni       7.66949292       2.97388587       2.19174620        4       1.00000000       0.06701371       0.07639575       0.08900714
Ni      10.26037635       2.97121280       2.19450984        4       1.00000000       0.09166312       0.02910721       0.22638116
Ni       3.80212444       5.11414259       2.18728939        4       1.00000000      -0.04250262      -0.03339182       0.18544559
Ni       6.40432516       5.14645638       2.14996162        3       1.00000000       0.03442773       0.07080109       0.05259825
Ni       8.92047523       5.07388428       2.13490150        3       1.00000000      -0.03385042      -0.20281631       0.14885397
Ni      11.51723305       5.07014296       2.12394210        3       1.00000000       0.13330172      -0.23750231       0.21268291
Ni       5.14542816       7.25211545       2.10484753        3       1.00000000       0.01897011      -0.15178152       0.05573786
Ni       7.60283502       7.28248087       2.08616157        3       1.00000000      -0.09733555      -0.09061237       0.08868989
Pt      10.25791967       7.19655307       2.14472080        3       0.00000000       0.07799097      -0.21737236      -0.08974939
Ni      12.78225855       7.25568676       2.06853743        3       1.00000000       0.07780436      -0.18392040       0.04736113
Ni       0.04042332       1.46809730       4.30534626        6       1.00000000       0.15208124       0.04091058      -0.14876830
Ni       2.47053184       1.47690204       4.26626669        6       1.00000000      -0.08654924       0.06706653      -0.21202204
Pt       5.10125917       1.46375591       4.19669797        5       0.00000000      -0.09533185      -0.01644290      -0.13330779
Ni       7.65472095       1.45478733       4.26869820        6       1.00000000       0.03572540      -0.04060968      -0.26093438
Ni       1.26704345       3.63237307       4.30979605        6       1.00000000       0.04131847      -0.01386307      -0.11294247
Ni       3.76618396       3.70088731       4.25061157        6       1.00000000      -0.09155667       0.12985257      -0.28222719
Pt       6.40846938       3.70740583       4.26296089        6       0.00000000       0.03627802      -0.02797417      -0.08946443
Ni       8.97302529       3.68350357       4.22154451        5       1.00000000       0.13089366       0.10607394      -0.26330930
Ni       2.52821603       5.76747710       4.29136882        6       1.00000000      -0.08326189      -0.12550580      -0.20240006
Ni       5.09561788       5.81702959       4.27368483        6       1.00000000       0.03883951      -0.01721803      -0.22659231
Ni       7.63501104       5.81866935       4.23386787        5       1.00000000      -0.01613653       0.05781041      -0.26460703
Ni      10.24586437       5.76314013       4.25729297        6       1.00000000       0.08816140      -0.11943448      -0.07404243
Pt       3.83301311       7.92923195       4.21113291        5       0.00000000      -0.00222038      -0.08683848       0.06423271
Ni       6.36118773       7.99182133       4.19629349        5       1.00000000      -0.11415300      -0.04894761      -0.28100725
Pt       8.85376178       7.97497474       4.16060991        5       0.00000000      -0.12457069       0.05200891      -0.05773520
Ni      11.51045609       7.96791563       4.19929096        5       1.00000000       0.02626165      -0.14758537      -0.13484182
Pt      -0.01428728      -0.08467434       6.50824080        9       0.00000000       0.02672108       0.10884976       0.22694571
Pt       2.50632972      -0.03171962       6.49103152        9       0.00000000       0.00113156       0.10674923       0.30195878
Pt       5.10325291      -0.05058981       6.39301872        8       0.00000000       0.06826137      -0.00698363       1.05012375
Pt       7.63595600      -0.07453616       6.46325129        9       0.00000000      -0.06958747       0.13497346       0.35451518
Ni       1.25015853       2.21622524       6.41768437        8       1.00000000       0.02951645       0.08112696      -0.23125227
Pt       3.77743498       2.28926593       6.36395645        8       0.00000000      -0.06579389       0.14446737       0.53190182
Ni       6.36960313       2.21339444       6.35150500        8       1.00000000       0.00888353       0.03757309       0.23512881
Pt       8.93138464       2.26758089       6.29415334        7       0.00000000      -0.01042625      -0.06684323       0.58194882
Ni       2.50455274       4.40116254       6.39335628        8       1.00000000       0.03332167       0.01985102      -0.40083606
Ni       5.09475702       4.41000895       6.32756765        7       1.00000000      -0.10578931       0.07142015       0.06413430
Ni       7.59929848       4.36120434       6.40558746        8       1.00000000      -0.08378069      -0.02588067      -0.09758823
Ni      10.26551045       4.35816378       6.36772467        8       1.00000000       0.13477191      -0.01914517      -0.33259589
Ni       3.81575430       6.45847438       6.39703501        8       1.00000000       0.00372467      -0.14917646      -0.28875004
Ni       6.34281478       6.48067415       6.37513056        8       1.00000000      -0.02712537      -0.01731809      -0.30985611
Pt       8.92398992       6.41271103       6.40397026        8       0.00000000       0.05109844      -0.09261351       0.12967581
Ni      11.51267455       6.47978106       6.34921475        7       1.00000000       0.01000504       0.03777382      -0.27528597
