64
Lattice="10.374317591169374 0.015752816774730144 0.013848387545522868 5.200801135092765 8.921779379192794 -0.0025876354968968392 0.0 0.0 21.63974174018394" Properties=species:S:1:pos:R:3:tags:I:1:initial_magmoms:R:1:forces:R:3 unique_id=95558712b5134b4ab1c15a6c60d9b32e stress="0.0040562844441183 0.00010834393858458427 0.0004455478742102471 0.00010834393858458427 0.003911753607512626 -2.869112243400168e-06 0.0004455478742102471 -2.869112243400168e-06 -0.004175117347990517" energy=-379.2230823883547 pbc="T T T"
Ni      -0.02249828      -0.00131657       0.16479415        2       1.00000000       0.03900008      -0.00600587      -0.23750903
Ni       2.61646255      -0.00428612       0.09822332        1       1.00000000       0.00394305       0.04267452       0.33119452
Ni       5.19282547      -0.01187627       0.14764727        1       1.00000000       0.04286823       0.08017984      -0.44795163
Ni       7.78944239      -0.04555719       0.18221366        2       1.00000000      -0.08225465      -0.07193426      -0.22235575
Pt       1.23925843       2.23321582       0.15580204        2       0.00000000       0.02461508      -0.01939912      -0.25825180
Pt       3.86740370       2.17859705       0.08288639        1       0.00000000      -0.00990912       0.07253709       0.02775450
Pt       6.54433849       2.14180106       0.07705309        1       0.00000000       0.00090725      -0.00885439      -0.03088287
Ni       9.09679535       2.23496767       0.13484389        1       1.00000000       0.03225016       0.06201206      -0.11921401
Ni       2.58280754       4.49436328       0.10343980        1       1.00000000      -0.02454899      -0.06141998      -0.20219087
Pt       5.17423703       4.48803112       0.12581634        1       0.00000000       0.28983825      -0.10963878      -0.94881282
Pt       7.87605851       4.46815188       0.00000000        0       0.00000000      -0.20720629      -0.02186622      -0.18465433
Ni      10.40608429       4.50680042       0.05717506        1       1.00000000       0.05247602      -0.01169236       0.12163234
Ni       3.85327213       6.73806002       0.07686284        1       1.00000000       0.02549128       0.03085122       0.31580084
Pt       6.50720918       6.79347256       0.17634751        2       0.00000000       0.00816283      -0.10797883      -0.58959973
Ni       9.11849617       6.73230325       0.04585529        0       1.00000000      -0.04207001       0.01110303       0.16208034
Ni      11.70377830       6.71166447       0.04952713        0       1.00000000       0.08971469       0.04045465       0.28053386
Ni       1.33083969       0.75440568       2.20454219        4       1.00000000       0.05991756       0.02403606       0.14047812
Ni       3.84596109       0.76551642       2.20575427        4       1.00000000      -0.11672322       0.05205460       0.12139368
Ni       6.49767551       0.76893233       2.21648967        4       1.00000000      -0.00900866       0.07824720       0.17731284
Pt       9.08666211       0.79672316       2.18647747        4       0.00000000       0.03668197       0.06153307       0.13693645
Ni       2.60303760       2.92419402       2.26045892        5       1.00000000       0.06020979      -0.07703056       0.26952406
Ni       5.19414144       2.95096133       2.21942852        4       1.00000000      -0.02300802      -0.03303610       0.13352493
Ni       7.78605594       2.95815365       2.21886945        4       1.00000000      -0.05153484       0.00763797       0.09891674
Ni      10.38090747       2.96393692       2.27050714        5       1.00000000       0.02488123      -0.02262109       0.25077846
Pt       3.88423837       5.20677501       2.22944965        4       0.00000000       0.00029532       0.01165168       0.11294003
Ni       6.50720936       5.21274725       2.21235389        4       1.00000000      -0.00432844      -0.02467523       0.18229156
Pt       9.03480133       5.17799673       2.24791241        4       0.00000000      -0.00187164      -0.03444389       0.06861815
Pt      11.67931318       5.15824098       2.18754045        4       0.00000000      -0.07995598      -0.08113185       0.08873768
Ni       5.19165774       7.45688877       2.18535873        4       1.00000000      -0.08467932       0.02299128       0.17685148
Ni       7.78979586       7.48214405       2.20329125        4       1.00000000       0.01129072       0.12394833       0.10938846
Pt      10.38370571       7.49090526       2.11230916        3       0.00000000      -0.00622976      -0.03405026       0.06064822
Ni      12.99109042       7.45653950       2.16576422        4       1.00000000       0.01825500       0.00159022       0.09649554
Ni       0.00972348       1.55290964       4.32228214        6       1.00000000      -0.02788116       0.04239906      -0.20633216
Ni       2.58902759       1.54134895       4.31400259        6       1.00000000      -0.01273550       0.05217361      -0.25891646
Pt       5.15609714       1.54791060       4.32182875        6       0.00000000      -0.01467567       0.06609645      -0.15640634
Ni       7.81516618       1.51623256       4.35552538        7       1.00000000       0.05954494      -0.03658746      -0.20639296
Ni       1.32165287       3.66590979       4.31880416        6       1.00000000       0.02038193      -0.07783140      -0.26007098
Ni       3.82918713       3.69791805       4.34497890        6       1.00000000      -0.12754866      -0.02650267      -0.26177117
Pt       6.59977572       3.70839955       4.29789225        6       0.00000000       0.13447054      -0.01877011      -0.25702494
Ni       9.12128730       3.68175499       4.35894284        7       1.00000000       0.10420819      -0.15050665      -0.20387236
Ni       2.60096007       5.91247999       4.37772488        7       1.00000000       0.03484307      -0.06666672      -0.11310260
Pt       5.20377062       5.93128769       4.33750766        6       0.00000000      -0.07931223       0.04648094      -0.14389560
Ni       7.81380637       5.92796112       4.36508561        7       1.00000000       0.00957746       0.00006747      -0.20608296
Pt      10.39310867       5.85451527       4.48150119        8       0.00000000       0.03709884      -0.06682882       0.05373034
Pt       3.89984383       8.19588318       4.33358954        6       0.00000000       0.07593346       0.05293914       0.01847072
Pt       6.50877457       8.26525668       4.27437240        6       0.00000000      -0.11240597       0.27794549      -0.10931931
Pt       9.05041300       8.17691610       4.36196774        7       0.00000000      -0.00262613       0.00859988      -0.06349485
Pt      11.70615614       8.17391832       4.33496222        6       0.00000000      -0.06398639      -0.01928894      -0.09471383
Pt       0.02405642      -0.02435629       6.61011492       11       0.00000000       0.00357161       0.19381499       0.24004000
Ni       2.61151449      -0.00369256       6.54857052       10       1.00000000      -0.05936901       0.01904110      -0.10031789
Pt       5.11850414      -0.01381876       6.63250390       11       0.00000000       0.07777526       0.07811627       0.26341252
Pt       7.75004909      -0.03088333       6.63974174       11       0.00000000      -0.13370762       0.22779574       0.23276525
Pt       1.34977859       2.22783716       6.42316841        9       0.00000000      -0.08096879       0.01932934       0.31605473
Ni       3.88472887       2.21825932       6.45244073       10       1.00000000      -0.08929959       0.01154297       0.08529043
Ni       6.49406721       2.21934077       6.46164680       10       1.00000000       0.02988258      -0.15831457       0.11356089
Pt       9.04926454       2.32040755       6.52374960       10       0.00000000       0.02473799      -0.16631841      -0.05811893
Pt       2.56212410       4.51978828       6.51517422       10       0.00000000       0.06397202      -0.15262425      -0.04120566
Pt       5.20673121       4.37828645       6.47213487       10       0.00000000      -0.08507624      -0.02614778       0.80128308
Ni       7.83480266       4.47752762       6.42520787        9       1.00000000       0.04952765       0.08411694       0.18493444
Ni      10.36283483       4.48672360       6.55957034       11       1.00000000       0.02018385      -0.11487358      -0.07060737
Ni       3.89033475       6.67280777       6.53696402       10       1.00000000       0.06415439      -0.02690448      -0.13206023
Pt       6.59990794       6.66595855       6.49564875       10       0.00000000       0.08190541      -0.16083648       0.56925666
Ni       9.11880321       6.64686599       6.55550249       11       1.00000000      -0.01206467      -0.04594918      -0.07260000
Ni      11.66810901       6.67755397       6.56207318       11       1.00000000      -0.06758111       0.13676807      -0.08490243
