64
Lattice="10.212141965683516 -0.02437181440156916 0.012769986805214897 5.084964372433679 8.84385766959532 0.003934898019157288 0.01042665056495016 -0.0023099720802552924 8.786033562359771" Properties=species:S:1:pos:R:3:tags:I:1:initial_magmoms:R:1:forces:R:3 unique_id=d5cfa953c5d44a1284ffe83e7ba1bb02 stress="-0.0003024710983721701 -3.2481276693516463e-06 1.0018079990564504e-05 -3.2481276693516463e-06 -0.0002955988348898597 2.026253552442021e-05 1.0018079990564504e-05 2.026253552442021e-05 -0.00023995645427817708" energy=-394.7663409496938 pbc="T T T"
Ni       0.05294496       0.04738586       0.15489275        4       1.00000000       0.21582445       0.15496460       0.18510480
Ni       2.57327273       0.03374594       0.21102399        4       1.00000000       0.06052834       0.07876207       0.26439593
Ni       5.05502069      -0.02689621       0.08342188        4       1.00000000      -0.09719916       0.00228990       0.06922247
Pt       7.66738322      -0.06571289       0.00292056        4       0.00000000      -0.00734057      -0.03594921      -0.15719689
Ni       1.27677720       2.23160609       0.11501079        4       1.00000000       0.03564822       0.11102583       0.11243868
Ni       3.77518929       2.21224909       0.20633972        4       1.00000000      -0.10120159       0.03273831       0.24156949
Pt       6.34970220       2.28400069       0.17398037        4       0.00000000      -0.05224627       0.10536639       0.50769437
Ni       8.98448607       2.25427876       0.08111561        4       1.00000000       0.12269578       0.15136398       0.02456505
Ni       2.52620256       4.40740094       0.11044702        4       1.00000000      -0.08331334      -0.08666787       0.12730540
Ni       5.03224190       4.41596251       0.17665759        4       1.00000000      -0.23808506      -0.00648419       0.28562225
Ni       7.72279456       4.40577906       0.08562625        4       1.00000000       0.29394878      -0.00323392       0.02356755
Ni      10.21672331       4.39128793       0.11087302        4       1.00000000       0.09293390      -0.02332008       0.09530568
Ni       3.79745407       6.56936342       0.05803677        4       1.00000000      -0.04554671      -0.21049651       0.03958397
Pt       6.41586462       6.62940061      -0.00493002        4       0.00000000       0.05970575       0.01215904      -0.28365804
Ni       8.93985192       6.59806215       0.15112016        4       1.00000000       0.05260025      -0.10545009       0.16599761
Ni      11.44909103       6.54975498       0.06605569        4       1.00000000      -0.08803513      -0.19772802      -0.03501853
Ni       1.33603931       0.78884741       2.16332812        3       1.00000000       0.01370198       0.14158350      -0.00472742
Ni       3.78362297       0.74532279       2.18491717        3       1.00000000       0.01512602      -0.01913328       0.03417130
Pt       6.29278509       0.74278503       2.28007468        3       0.00000000      -0.01392079       0.06113978      -0.05215167
Pt       9.01511772       0.82699596       2.18743919        3       0.00000000       0.04325173       0.01767088      -0.11507682
Ni       2.54178736       2.96812712       2.16881710        3       1.00000000      -0.11081468       0.10374317      -0.01843468
Ni       5.00560001       2.95677115       2.23880612        3       1.00000000      -0.15996390      -0.04608012       0.18116752
Ni       7.71857849       2.97847862       2.21522972        3       1.00000000       0.13544788       0.03213744       0.02651175
Ni      10.24404544       2.98777385       2.19205929        3       1.00000000       0.08150722       0.03130146      -0.01743983
Ni       3.78724764       5.07651695       2.21196329        3       1.00000000      -0.10004983      -0.07936861       0.10392867
Pt       6.41975162       5.10923943       2.19492067        3       0.00000000       0.07760402      -0.01411581      -0.09593741
Ni       8.95507128       5.08941532       2.21560684        3       1.00000000       0.10789225      -0.12524009       0.05270127
Ni      11.46008688       5.06724855       2.18914150        3       1.00000000      -0.04790022      -0.07418326      -0.08458245
Pt       5.11082136       7.35084273       2.18140961        3       0.00000000       0.02409447      -0.09667667      -0.23934957
Ni       7.66157486       7.38185484       2.20937122        3       1.00000000      -0.03860029      -0.01921194      -0.02572682
Pt      10.10871327       7.29156355       2.23875394        3       0.00000000      -0.11144602      -0.12777665       0.00052443
Pt      12.70982817       7.22773493       2.22483843        3       0.00000000      -0.06728368      -0.12330243      -0.10570983
Ni       0.02051083       1.51263890       4.38143647        2       1.00000000       0.12610777      -0.00216755      -0.04312964
Pt       2.58646834       1.49483526       4.26564305        2       0.00000000       0.10953218       0.04521879       0.09796353
Ni       5.08733043       1.43601278       4.38116677        2       1.00000000      -0.00344597       0.01962299       0.11771613
Pt       7.72080034       1.47628039       4.37995099        2       0.00000000       0.02943734       0.09004035       0.17272527
Pt       1.24073161       3.74779386       4.36344045        2       0.00000000      -0.00691521      -0.02420112      -0.05497062
Ni       3.81670948       3.72793878       4.33280935        2       1.00000000      -0.03870272       0.08427584      -0.05305897
Pt       6.37236791       3.70971837       4.35106975        2       0.00000000      -0.08523194       0.00782561       0.06029734
Ni       8.94770910       3.71291372       4.38652338        2       1.00000000       0.03340787       0.12008591      -0.07844821
Ni       2.52490542       5.86467723       4.40915904        2       1.00000000      -0.06485257      -0.06283956      -0.02903800
Ni       5.05980380       5.86808026       4.36931599        2       1.00000000      -0.05448069      -0.11987130      -0.15599192
Ni       7.71249244       5.86649037       4.36924095        2       1.00000000       0.20549029      -0.03268258      -0.16814446
Ni      10.20265733       5.88494513       4.37727069        2       1.00000000       0.01788810      -0.03684736      -0.07553092
Pt       3.76996797       8.01913812       4.41003785        2       0.00000000       0.05404170       0.00898385       0.00261556
Pt       6.42700746       8.04391040       4.34206100        2       0.00000000       0.06714108       0.05536110      -0.01170442
Ni       8.97189929       8.07707512       4.37227462        2       1.00000000      -0.00311494       0.00962975       0.03459934
Ni      11.41301129       8.04729809       4.43452776        2       1.00000000      -0.06584515      -0.09468088      -0.02990387
Pt      -0.05133791       0.03982804       6.58039323        1       0.00000000      -0.15310254       0.04275241       0.06158380
Pt       2.58419947      -0.03100775       6.59424914        1       0.00000000       0.03547308       0.01384404       0.20532503
Ni       5.15380604      -0.05689591       6.49190246        1       1.00000000       0.01726449      -0.07270729      -0.14243743
Ni       7.61961102      -0.07089458       6.42945475        1       1.00000000      -0.15740516      -0.10671029      -0.28953078
Ni       1.23452686       2.25949646       6.52675557        1       1.00000000      -0.03447087       0.06703275      -0.04977830
Pt       3.78940569       2.25398323       6.55750100        1       0.00000000      -0.18829298       0.09002239       0.14154141
Pt       6.42576174       2.16575263       6.51127706        1       0.00000000       0.08590805      -0.07311855      -0.20119566
Ni       8.97821941       2.24824206       6.52477147        1       1.00000000       0.06566525       0.19854237      -0.13097675
Ni       2.49654733       4.47073699       6.51892021        1       1.00000000      -0.13539478       0.12759391      -0.02267555
Pt       5.07046514       4.52384410       6.55752912        1       0.00000000      -0.04041351       0.18163323       0.16618258
Ni       7.69821770       4.40498942       6.51586607        1       1.00000000       0.05597410      -0.03478809      -0.12859421
Ni      10.22135586       4.37842006       6.53086171        1       1.00000000       0.05170505      -0.03557359      -0.02185194
Ni       3.76205272       6.62453309       6.51966961        1       1.00000000      -0.17622092       0.05205382      -0.06835983
Ni       6.37414346       6.60971783       6.40816215        1       1.00000000       0.04589567      -0.02379734      -0.50593185
Pt       8.99066837       6.54530663       6.51006354        1       0.00000000       0.10177019      -0.07728433       0.07356354
Ni      11.51296147       6.60466562       6.49888806        1       1.00000000       0.03562396      -0.05907691      -0.17922844
