64
Lattice="10.37586967851554 -0.04395688756453437 0.014570143613487425 5.149867057955588 8.999242861818239 -0.021593488453556912 0.0 0.0 21.648043906244933" Properties=species:S:1:pos:R:3:tags:I:1:initial_magmoms:R:1:forces:R:3 unique_id=e9f6aa0ed7e742608cedc1d00c136a88 energy=-381.5226401199521 stress="0.006232122796875878 -0.0003413597857897854 0.00015802793267941 -0.0003413597857897854 0.006252783773314198 -0.00020526246773112805 0.00015802793267941 -0.00020526246773112805 -0.0008231002575034597" pbc="T T T"
Ni       0.04851414      -0.00020652       0.12779815        1       1.00000000       0.19459797      -0.00228260       0.05728455
Ni       2.54806045      -0.00023373       0.15678636        2       1.00000000      -0.14534558       0.05607791       0.17671710
Pt       5.09209218      -0.04069803       0.10201139        1       0.00000000      -0.15557526       0.09934323      -0.84273575
Pt       7.84776259      -0.10164531       0.13535712        1       0.00000000       0.01232600      -0.13746873      -0.79247515
Ni       1.29546273       2.25431528       0.05976180        1       1.00000000      -0.02274507      -0.01137665       0.55192078
Pt       3.78422812       2.29173689       0.08919253        1       0.00000000       0.05013472      -0.02120393       0.20518791
Pt       6.45162677       2.29121364       0.13207079        1       0.00000000       0.00442518       0.13662418      -0.64016506
Pt       9.17263590       2.24838971       0.12619840        1       0.00000000      -0.07881006       0.10792903      -0.39968299
Ni       2.57959291       4.48230459       0.03462755        0       1.00000000       0.06581353      -0.00611112       0.39717923
Ni       5.12846081       4.51337006       0.13414712        1       1.00000000      -0.09776394       0.14529955       0.26369504
Pt       7.80321862       4.54043881       0.08807338        1       0.00000000      -0.04105527       0.07475782       0.08284169
Ni      10.38689935       4.44746872       0.04326090        0       1.00000000       0.09765634      -0.06984305       0.34757920
Ni       3.87730183       6.70663985       0.12761308        1       1.00000000       0.01631076      -0.16262021       0.25977069
Pt       6.42486642       6.78061484       0.15179800        2       0.00000000      -0.04885315       0.03604079      -0.12401548
Ni       9.03277986       6.71150613       0.11297694        1       1.00000000      -0.13579361       0.00326889      -0.12877766
Pt      11.66445375       6.61692932       0.00000000        0       0.00000000       0.14313184       0.09707000      -0.21605951
Ni       1.33333318       0.73447720       2.19723788        3       1.00000000       0.21297422      -0.01215275       0.04539128
Ni       3.83124500       0.76094065       2.22335782        3       1.00000000      -0.14539077       0.07779174       0.20098250
Pt       6.43505292       0.77647657       2.28127330        4       0.00000000      -0.12905129       0.14291170       0.08055241
Pt       9.20788338       0.70274731       2.25682731        4       0.00000000       0.22752666       0.02947956       0.04021221
Ni       2.59142198       2.97554701       2.21075520        3       1.00000000       0.03483591      -0.04774750       0.18853668
Ni       5.12777263       3.03244923       2.23913594        3       1.00000000      -0.24544750       0.18607167       0.24410168
Ni       7.79425241       3.03250784       2.23769718        3       1.00000000       0.10808274       0.17100524       0.23548720
Ni      10.39202892       2.96162920       2.24367503        3       1.00000000       0.14945053      -0.00569514       0.24959260
Ni       3.90807106       5.23337349       2.20732406        3       1.00000000       0.15258628      -0.03404171       0.16579677
Ni       6.44887983       5.24196724       2.23216836        3       1.00000000      -0.10435405       0.10596372       0.24174680
Ni       9.02349978       5.18447522       2.22917183        3       1.00000000      -0.11627201      -0.18992486       0.25917308
Pt      11.70963798       5.12460939       2.20013315        3       0.00000000       0.14904337      -0.16893660       0.04183239
Ni       5.17982985       7.45325609       2.21340895        3       1.00000000       0.07267622      -0.18593582       0.27994036
Ni       7.70144876       7.48075535       2.21084585        3       1.00000000      -0.19168826       0.00431098       0.27671020
Pt      10.27430807       7.40460495       2.19081858        3       0.00000000      -0.04529472      -0.22054200      -0.04208915
Ni      12.98617137       7.40205966       2.21082510        3       1.00000000       0.12533451      -0.23647782       0.22083605
Ni       0.03361273       1.49645495       4.38722223        6       1.00000000       0.11832381      -0.08436076      -0.24593237
Pt       2.58949070       1.50800901       4.34227131        5       0.00000000       0.00645171      -0.04932743      -0.16715121
Ni       5.15282817       1.51103207       4.39473699        6       1.00000000      -0.10691680       0.17772810      -0.27930833
Pt       7.82751153       1.52533258       4.36092162        6       0.00000000       0.12889377       0.04608344      -0.11767597
Pt       1.29620624       3.71864566       4.43901696        6       0.00000000      -0.01477794      -0.01154171      -0.02098318
Ni       3.88390802       3.75083514       4.37761301        6       1.00000000       0.04537742       0.11637712      -0.33216656
Pt       6.45226597       3.80482375       4.29294419        5       0.00000000      -0.06961675       0.11947366      -0.19166024
Ni       9.06102654       3.73074444       4.37761458        6       1.00000000      -0.10539624       0.08115450      -0.39174623
Ni       2.61252045       5.94579964       4.38320364        6       1.00000000       0.18398598      -0.21039613      -0.28791651
Ni       5.16444262       5.96268813       4.33539532        5       1.00000000      -0.00733558      -0.07786110      -0.47573012
Ni       7.73728196       5.95326104       4.35284396        6       1.00000000      -0.11325727       0.02735610      -0.45506461
Pt      10.31950982       5.87733264       4.40552040        6       0.00000000      -0.11837796      -0.05767720      -0.13776241
Pt       3.95549340       8.15788375       4.30308042        5       0.00000000       0.15830633      -0.16395713      -0.06096913
Ni       6.45242857       8.20923304       4.33722052        5       1.00000000      -0.02304012      -0.06548427      -0.41483169
Pt       8.95601619       8.20415306       4.31216258        5       0.00000000      -0.16090045      -0.09677231      -0.14543102
Pt      11.66701000       8.15258579       4.35671686        6       0.00000000       0.10568653      -0.16821388      -0.17798499
Pt       0.03162812       0.03145722       6.60680111        8       0.00000000       0.04782080       0.11120163       0.07314177
Pt       2.59905081       0.04686849       6.64804391        8       0.00000000       0.00283409      -0.08676484       0.10967445
Pt       5.17505153      -0.03025282       6.53637114        7       0.00000000      -0.01329552       0.08527477       0.73108693
Pt       7.79540596      -0.06642890       6.57524290        8       0.00000000       0.03026883       0.19106080       0.85562987
Ni       1.32562207       2.28580503       6.59436659        8       1.00000000       0.07382198       0.07696681      -0.25608258
Ni       3.84863637       2.25640372       6.52802384        7       1.00000000      -0.04474543       0.06534427      -0.13935306
Pt       6.46278453       2.25418438       6.53832829        7       0.00000000       0.00111883      -0.03046356       0.56686778
Pt       9.16326444       2.31945647       6.53011768        7       0.00000000       0.08618477       0.09615195       0.49012074
Ni       2.54034133       4.45638103       6.58523582        8       1.00000000      -0.07355567      -0.03708069      -0.36158850
Pt       5.10437156       4.43698529       6.59039476        8       0.00000000      -0.21071359       0.03483010      -0.12800836
Ni       7.78614285       4.45971756       6.52224393        7       1.00000000       0.01916169       0.04168083      -0.16879188
Ni      10.40988751       4.45445537       6.60506352        8       1.00000000       0.14095809       0.06579817      -0.20736026
Pt       3.79611040       6.66334549       6.58632866        8       0.00000000      -0.03217678      -0.08370164      -0.05092156
Pt       6.47319830       6.68828185       6.48146903        7       0.00000000      -0.09051020       0.01357854       0.17627141
Pt       9.09453565       6.61910686       6.63482680        8       0.00000000      -0.09342967       0.04758973       0.18035118
Ni      11.65228736       6.64178523       6.51772109        7       1.00000000       0.01538510      -0.13563344       0.10420900
