64
Lattice="10.708913255320217 -0.005794460377927487 0.031101594641260038 5.349438477771596 9.263502036737396 0.03751412722074326 0.0 0.0 21.85785592612408" Properties=species:S:1:pos:R:3:tags:I:1:initial_magmoms:R:1:forces:R:3 unique_id=64bb9d8309fb41808a4520c3d565b446 energy=-400.31973519654065 stress="0.003956535744485597 1.8582489142416034e-05 -0.0001311994307085641 1.8582489142416034e-05 0.004069409077995259 -5.167429991784476e-06 -0.0001311994307085641 -5.167429991784476e-06 -0.0016844901377248752" pbc="T T T"
Pt       0.00579689       0.00590210       0.05380730        1       0.00000000       0.15722849       0.10483530      -0.19372257
Pt       2.68337544       0.00986500       0.08273201        1       0.00000000      -0.03304272       0.12230255      -0.08580818
Pt       5.35396852       0.00556755       0.01490670        0       0.00000000      -0.04032807       0.15986265       0.09130572
Pt       8.02251413      -0.00708904       0.10513741        1       0.00000000      -0.08348207      -0.03178027      -0.10365286
Pt       1.33973464       2.30502313       0.06321452        1       0.00000000       0.03222074      -0.10164625      -0.36326108
Pt       4.01621963       2.29654733       0.07436360        1       0.00000000      -0.03375708      -0.05341536      -0.36514873
Pt       6.69812607       2.29574289       0.07645466        1       0.00000000       0.02886160      -0.05329183      -0.32060266
Pt       9.36821337       2.30769071       0.00000000        0       0.00000000      -0.00341118       0.00330679      -0.05645101
Pt       2.67938419       4.63029660       0.06405454        1       0.00000000      -0.02345660      -0.10717547      -0.38582132
Pt       5.34926122       4.62919679       0.06934205        1       0.00000000       0.04517116      -0.05282846      -0.38094176
Pt       8.03331521       4.62788329       0.06282928        1       0.00000000      -0.00571801       0.00216460      -0.36467636
Pt      10.70801114       4.62685051       0.07819712        1       0.00000000       0.01339149      -0.00968085      -0.41605919
Pt       4.00584161       6.95825866       0.01347649        0       0.00000000      -0.06017318       0.09318740       0.01173947
Pt       6.69321297       6.95504624       0.07123957        1       0.00000000       0.05002381       0.00885425      -0.15714738
Pt       9.37206723       6.95471939       0.01002858        0       0.00000000      -0.04100979      -0.02529966       0.10764710
Pt      12.04995668       6.95971027       0.10639817        1       0.00000000       0.08934217       0.01435530      -0.26804712
Ni       1.36490210       0.76961851       2.31173507        2       1.00000000       0.04200997      -0.07631909       0.58520207
Ni       4.01656567       0.77325143       2.31290048        2       1.00000000      -0.01124735      -0.06120601       0.49174501
Ni       6.69481107       0.75829789       2.31175179        2       1.00000000      -0.00471883      -0.06652876       0.45889652
Pt       9.33503451       0.74629936       2.36031792        3       0.00000000      -0.13034456      -0.05273890       0.39649430
Pt       2.68615483       2.99322845       2.35036382        3       0.00000000       0.00751225      -0.27284838       0.45666706
Pt       5.35473482       3.01487308       2.32846739        2       0.00000000      -0.00563385      -0.12824253       0.31378960
Pt       8.02437649       3.03012770       2.36049372        3       0.00000000       0.00738581      -0.11534242       0.42418182
Pt      10.72192872       3.04330659       2.35000832        3       0.00000000      -0.06259616      -0.09631223       0.34515957
Pt       4.00855389       5.44103235       2.33704554        2       0.00000000       0.02670481       0.03979848       0.39989387
Pt       6.70604799       5.41636766       2.35765764        3       0.00000000       0.03168597       0.01798017       0.43193779
Pt       9.36577227       5.43698359       2.37042404        3       0.00000000       0.01081287       0.17902804       0.48574938
Pt      12.06174895       5.43277151       2.35357568        3       0.00000000      -0.03631754       0.04471952       0.44440704
Pt       5.35537479       7.77109496       2.36620230        3       0.00000000       0.01479451       0.15338802       0.38613385
Pt       8.02587600       7.79619636       2.40502410        3       0.00000000       0.00769660       0.14704598       0.46654545
Pt      10.73810299       7.81163771       2.36458228        3       0.00000000      -0.05501348       0.22646126       0.29222753
Ni      13.38448129       7.73688711       2.33554992        2       1.00000000       0.01336520       0.06031225       0.42477048
Pt       0.03800860       1.51065900       4.55068494        4       0.00000000       0.05333138      -0.15839265      -0.35273134
Ni       2.68182934       1.52273256       4.56450091        4       1.00000000      -0.04001775      -0.17657541      -0.51761668
Pt       5.35964561       1.51144957       4.55019903        4       0.00000000      -0.10020490      -0.16705304      -0.39606024
Ni       8.04707971       1.54719501       4.60277513        4       1.00000000       0.06732349       0.00635513      -0.37932365
Pt       1.35603953       3.84244235       4.56495405        4       0.00000000      -0.01450676       0.04092272      -0.38135166
Pt       4.02351059       3.83264309       4.56926790        4       0.00000000       0.05483289      -0.07352043      -0.38419472
Pt       6.72399303       3.86349361       4.59164572        4       0.00000000      -0.06209110      -0.01577884      -0.34155253
Pt       9.35933480       3.82786302       4.61877219        4       0.00000000       0.02361657      -0.29016658      -0.24123618
Pt       2.69609733       6.22040007       4.58847112        4       0.00000000       0.00906445       0.13141746      -0.33144726
Pt       5.41258009       6.23200922       4.61163392        4       0.00000000       0.05219551       0.12863232      -0.27218475
Ni       8.03958367       6.20238116       4.63026101        4       1.00000000       0.00930332       0.08989183      -0.40689006
Pt      10.65671977       6.20400565       4.63571203        4       0.00000000      -0.21063981       0.08154435      -0.30916352
Pt       4.02900452       8.51552855       4.59561007        4       0.00000000      -0.00805918      -0.07497280      -0.21501419
Ni       6.72101445       8.51551128       4.60873252        4       1.00000000       0.04401026       0.10872141      -0.45951602
Pt       9.31760150       8.51188535       4.62201254        4       0.00000000       0.03337597       0.01402094      -0.15406528
Pt      12.06250098       8.54913746       4.58687197        4       0.00000000      -0.03942731       0.11954731      -0.39640602
Pt       0.00368425       0.00089485       6.78941031        5       0.00000000       0.18250276      -0.15724477       0.21383472
Pt       2.72961961      -0.01362221       6.77975699        5       0.00000000      -0.15044000       0.07895462       0.13563730
Ni       5.36709485       0.00130031       6.82181136        5       1.00000000       0.02998489      -0.03676725      -0.42830451
Pt       8.04958890       0.01706705       6.81631127        5       0.00000000      -0.02260085       0.05871010       0.10442629
Pt       1.33411007       2.31509647       6.80176710        5       0.00000000       0.13719508      -0.09574943       0.29471383
Pt       4.04315534       2.28969476       6.81195186        5       0.00000000      -0.08651772      -0.14109452       0.27453074
Pt       6.74002596       2.29348124       6.80899066        5       0.00000000       0.12400369      -0.05260186       0.15805762
Ni       9.38169018       2.32493068       6.83160139        5       1.00000000      -0.05021039      -0.05985654      -0.35800260
Pt       2.69890387       4.67603266       6.83122142        5       0.00000000      -0.11151597       0.03368817       0.53102068
Pt       5.36369298       4.66796784       6.82768199        5       0.00000000       0.03783396      -0.04122817       0.40110683
Pt       8.06967051       4.66387649       6.81723024        5       0.00000000      -0.06211837       0.20384379       0.30065624
Pt      10.69807595       4.64516225       6.84637674        5       0.00000000       0.10839335       0.07127875       0.44237377
Ni       4.02976698       6.96846411       6.83749577        5       1.00000000      -0.03080463       0.03307605      -0.29614136
Pt       6.73247083       6.97272764       6.80158711        5       0.00000000       0.23041164       0.16916853       0.25867243
Ni       9.38468702       6.97131988       6.84185919        5       1.00000000      -0.03151498      -0.00608956      -0.32919655
Pt      12.03341369       6.99904674       6.85785593        6       0.00000000      -0.12466644       0.10437228       0.28221527
