64
Lattice="10.16685211886948 0.027335230399090717 -0.0627279604686729 5.107099063378712 8.753969039572652 -0.04723824281966447 0.0 0.0 21.510916877743885" Properties=species:S:1:pos:R:3:tags:I:1:initial_magmoms:R:1:forces:R:3 unique_id=ce7416ee1a84489eb54686f89aaa7a89 stress="0.00492268578444205 2.245036510449324e-05 -0.0004707590306371501 2.245036510449324e-05 0.004146343466568531 0.00010519589695329624 -0.0004707590306371501 0.00010519589695329624 -0.0017363490108158923" energy=-367.71584074796687 pbc="T T T"
Ni       0.03202376      -0.04739021       0.20226153        2       1.00000000       0.07045890      -0.02285348      -0.40947547
Ni       2.51368999      -0.02582528       0.19847613        2       1.00000000       0.01574141       0.01591026      -0.19824121
Ni       5.09031395       0.00690718       0.16180982        2       1.00000000      -0.08158991       0.09798958      -0.47452135
Ni       7.58079099      -0.02356357       0.13085251        1       1.00000000      -0.07749801      -0.03299485      -0.38427838
Ni       1.27367768       2.20160953       0.11823930        1       1.00000000      -0.01591359       0.02242136       0.27367381
Pt       3.80260775       2.21433634       0.16054428        2       0.00000000      -0.02245002       0.01292048      -0.50539312
Ni       6.34852224       2.21953847       0.08291286        1       1.00000000      -0.00749770       0.03375247       0.18931296
Pt       8.89276813       2.27513279       0.07718465        1       0.00000000      -0.00049344       0.11258293      -0.86492038
Ni       2.52836178       4.41511796       0.08844611        1       1.00000000       0.04804838       0.00857211       0.40156070
Ni       5.10738284       4.42206054       0.07678404        1       1.00000000      -0.09626481       0.02063091       0.34908294
Ni       7.59609794       4.43653942       0.06773959        1       1.00000000       0.02319496       0.05678051       0.28784713
Ni      10.20192531       4.43743247       0.04539796        0       1.00000000      -0.03072549       0.07477995       0.35485595
Ni       3.82796628       6.54587274       0.08161704        1       1.00000000       0.01185513      -0.00653400       0.33676059
Ni       6.35678832       6.56131399       0.06945293        1       1.00000000      -0.02127574       0.02747125       0.33107480
Ni       8.87341762       6.55245562       0.10809342        1       1.00000000      -0.13068116      -0.06796560      -0.28305913
Ni      11.47516125       6.56151243       0.00000000        0       1.00000000       0.03978824      -0.02537556       0.20133988
Ni       1.30600030       0.72645130       2.16182001        4       1.00000000       0.01364961       0.07339022       0.10391273
Ni       3.75905695       0.73303553       2.15972561        4       1.00000000      -0.09963263      -0.02810638       0.05169474
Ni       6.33716896       0.76930134       2.11824390        3       1.00000000      -0.05922677       0.08309039       0.05151417
Pt       8.86501366       0.71604696       2.12724669        3       0.00000000      -0.00968878       0.00385580      -0.15351968
Ni       2.51006389       2.94828001       2.21733185        4       1.00000000       0.04277898       0.03311834       0.08236501
Ni       5.09584608       2.98053058       2.14816768        3       1.00000000      -0.04575462       0.14937423      -0.05513880
Ni       7.59198224       2.98041277       2.15233288        4       1.00000000       0.02921697       0.04358860       0.04760930
Ni      10.20985983       3.00726789       2.13011479        3       1.00000000       0.04237149       0.08180580       0.04311613
Ni       3.81232429       5.10015524       2.15029524        4       1.00000000       0.00092993      -0.06098176       0.03510255
Ni       6.35224951       5.13438840       2.10678261        3       1.00000000      -0.01157411       0.01769788       0.02754502
Ni       8.87705044       5.08633700       2.12591508        3       1.00000000      -0.03745631      -0.07035267       0.05729588
Ni      11.46821435       5.08651868       2.11062321        3       1.00000000       0.09278697      -0.09483645       0.11399141
Ni       5.12564893       7.22849277       2.11753686        3       1.00000000      -0.03050376      -0.11711343       0.06527196
Ni       7.57162986       7.26842571       2.09439029        3       1.00000000      -0.06400987      -0.10739576       0.09275346
Pt      10.21303708       7.25385997       2.08045508        3       0.00000000       0.00971182      -0.10108517      -0.01000908
Ni      12.72211936       7.23813128       2.05799001        3       1.00000000       0.08278207      -0.19691390       0.02726816
Pt       0.06477032       1.50922770       4.26013602        6       0.00000000       0.12263409      -0.03674983       0.10371033
Ni       2.52090507       1.50527429       4.23804818        5       1.00000000       0.12847905       0.05526050      -0.20741871
Pt       5.08093490       1.47681622       4.18077009        5       0.00000000       0.03180439      -0.08168312      -0.01732720
Ni       7.59983273       1.47462455       4.23667015        5       1.00000000       0.05482276      -0.05635085      -0.18584456
Ni       1.28863036       3.69414773       4.29900874        6       1.00000000       0.08178737      -0.01681243      -0.14179476
Ni       3.74921293       3.72783046       4.23217891        5       1.00000000       0.01555378       0.06316157      -0.19671036
Pt       6.36504606       3.72152503       4.25692514        6       0.00000000       0.04941944      -0.03536066       0.03754934
Ni       8.91127118       3.74609132       4.19781295        5       1.00000000       0.08250785       0.09925316      -0.18528128
Ni       2.50675766       5.76980226       4.28839389        6       1.00000000      -0.04886627      -0.00836519      -0.19366575
Ni       5.07090877       5.81358988       4.27163162        6       1.00000000       0.02128565      -0.04641353      -0.18240396
Ni       7.59997487       5.83401625       4.22102879        5       1.00000000      -0.00044750       0.03790166      -0.21620944
Ni      10.20171127       5.78380878       4.23455734        5       1.00000000       0.04132608      -0.00177223      -0.11171751
Pt       3.79577689       7.89866532       4.23122386        5       0.00000000      -0.00785541      -0.03040400       0.09103805
Ni       6.34018950       7.96025287       4.20540570        5       1.00000000      -0.01646355      -0.10544191      -0.20112695
Pt       8.84001237       7.97644967       4.17281375        5       0.00000000      -0.03268645       0.00287931       0.02051623
Ni      11.43905734       7.97067320       4.20539392        5       1.00000000      -0.02165895      -0.11482943      -0.08318321
Pt      -0.02935601      -0.07626513       6.51091688        9       0.00000000      -0.00610222       0.04533893       0.38164555
Pt       2.48736673       0.00350809       6.46318980        9       0.00000000      -0.00469749       0.08012627       0.25643324
Pt       5.06795457      -0.01186275       6.47159324        9       0.00000000       0.02160807      -0.00708175       0.44384724
Pt       7.58762710      -0.03811294       6.42863742        8       0.00000000      -0.06126501       0.10763785       0.32861811
Ni       1.24504603       2.25478079       6.42674455        8       1.00000000       0.06280474       0.03653041      -0.02810048
Pt       3.76648757       2.32617699       6.34725585        7       0.00000000      -0.11971443       0.05173448       0.59763115
Ni       6.32272804       2.25002278       6.40526091        8       1.00000000      -0.00053552      -0.00035032       0.01690084
Pt       8.85235490       2.31472169       6.29449727        7       0.00000000      -0.10143632      -0.03792908       0.88149901
Ni       2.49238991       4.42936311       6.38496129        8       1.00000000       0.07464727      -0.05332925      -0.30246621
Ni       5.07146494       4.43628774       6.39719444        8       1.00000000      -0.07764974      -0.00323637      -0.22132520
Ni       7.54293618       4.39376274       6.39663742        8       1.00000000      -0.03128236      -0.02124802      -0.03420879
Ni      10.22605135       4.38416151       6.33932601        7       1.00000000       0.06319919      -0.01894416      -0.25398628
Ni       3.79289996       6.45457111       6.40423585        8       1.00000000       0.00382766      -0.04767161      -0.21662814
Ni       6.31119352       6.48722447       6.36939188        8       1.00000000      -0.00138201       0.07321093      -0.25961034
Pt       8.88475049       6.42753287       6.40609130        8       0.00000000       0.01788370      -0.05622416       0.11274388
Ni      11.45836356       6.49863065       6.32906138        7       1.00000000      -0.02262602       0.08993877      -0.21951652
