64
Lattice="10.172199606575903 0.038794223642413944 -0.04393853723223706 5.119696586482433 8.798200118660189 -0.06003301505598717 -0.03587566542108747 -0.035886844299995335 8.70471594130651" Properties=species:S:1:pos:R:3:tags:I:1:initial_magmoms:R:1:forces:R:3 unique_id=e76d6a7369d24f1aa09e9cb7dc4ad7e9 stress="8.118770605663322e-05 7.705799042629095e-07 -2.681596595186189e-06 7.705799042629095e-07 9.804916262103058e-05 1.3985174694344945e-05 -2.681596595186189e-06 1.3985174694344945e-05 0.00011035115903760412" energy=-390.2401780677437 pbc="T T T"
Ni       0.03115673      -0.04732633       0.18805096        4       1.00000000       0.07251913      -0.06899300       0.25897895
Ni       2.49222534      -0.01890123       0.19713608        4       1.00000000      -0.07909171      -0.01375364       0.23071850
Pt       5.10943816       0.00197029       0.13975719        4       0.00000000      -0.01752926      -0.08506226       0.34827042
Ni       7.64493595      -0.01377243       0.14829209        4       1.00000000       0.06153087      -0.08076870       0.26977302
Ni       1.27134779       2.21117314       0.10684400        4       1.00000000      -0.04478477       0.04838176       0.21066299
Pt       3.78147983       2.28003191       0.16263870        4       0.00000000      -0.10980699       0.10932388       0.20407176
Ni       6.37014734       2.26354926       0.08065397        4       1.00000000      -0.01924213       0.13786123       0.21389603
Pt       8.91103473       2.28377704       0.07771536        4       0.00000000      -0.01553317       0.04717826       0.15748174
Ni       2.53308522       4.44090583       0.07652079        4       1.00000000      -0.02975981       0.07304968       0.13502532
Ni       5.12077727       4.45199848       0.06821108        4       1.00000000      -0.03293935       0.11661003       0.11067905
Ni       7.61280967       4.45551183       0.06297896        4       1.00000000      -0.09858309       0.08925371       0.16116889
Ni      10.21326414       4.45696465       0.04743174        4       1.00000000       0.04811995       0.09890486       0.15102912
Ni       3.84389938       6.57561977       0.06635675        4       1.00000000       0.04116962      -0.06432189       0.11605390
Ni       6.36797629       6.59308686       0.06257884        4       1.00000000      -0.07692239      -0.02325380       0.04251092
Ni       8.88388100       6.56288786       0.12561178        4       1.00000000      -0.13242156      -0.07948912       0.25932235
Ni      11.50648880       6.57150074       0.00694216        4       1.00000000       0.06622438      -0.07449118       0.00429125
Ni       1.29250646       0.74158411       2.19465566        3       1.00000000      -0.00092003       0.07926685       0.11023306
Ni       3.74329131       0.75752487       2.17451803        3       1.00000000      -0.11833844       0.02109400      -0.13835560
Ni       6.38004400       0.78193255       2.16943262        3       1.00000000       0.07345833      -0.02141479      -0.04394734
Pt       8.91839542       0.75646697       2.17832834        3       0.00000000       0.10623509       0.16368314      -0.07966827
Ni       2.50521789       2.95731364       2.22931681        3       1.00000000       0.02783142       0.03669784       0.06723801
Ni       5.10045067       2.99250269       2.14696594        3       1.00000000      -0.07120928       0.18116581      -0.11284923
Ni       7.60978029       2.99128647       2.15676869        3       1.00000000       0.04805349       0.03884931      -0.00676418
Ni      10.22290537       2.99714753       2.17660957        3       1.00000000       0.05833723       0.00204015       0.02990098
Ni       3.82042730       5.12171040       2.14704275        3       1.00000000      -0.00446586      -0.03601309       0.01178193
Ni       6.34695613       5.14470327       2.08346895        3       1.00000000      -0.07778810       0.01240568      -0.06137228
Ni       8.90614161       5.08977696       2.10528116        3       1.00000000       0.01265582      -0.19176208      -0.00350683
Ni      11.48895721       5.10134451       2.12327534        3       1.00000000       0.13712495      -0.18548602       0.08975991
Ni       5.13391595       7.27182257       2.10649530        3       1.00000000      -0.01587823      -0.14393607       0.01882540
Ni       7.58414398       7.32619087       2.07287813        3       1.00000000      -0.09157304      -0.06051938      -0.03554333
Pt      10.24177169       7.23941361       2.14190204        3       0.00000000       0.06553433      -0.05966766      -0.10078344
Ni      12.75417171       7.29034727       2.07187123        3       1.00000000       0.11830103      -0.20298254      -0.04187144
Ni       0.04239463       1.48500594       4.28772219        2       1.00000000       0.05518487       0.04646885      -0.02828381
Ni       2.45937568       1.51154632       4.25067143        2       1.00000000      -0.02204296       0.11875697      -0.07823773
Pt       5.08068240       1.48337891       4.17813863        2       0.00000000      -0.11900233       0.02248694      -0.01881847
Ni       7.63190126       1.47765958       4.25517586        2       1.00000000       0.03495686      -0.03290210      -0.04712134
Ni       1.27287639       3.65231862       4.29952916        2       1.00000000       0.03400206       0.00766392      -0.08165508
Ni       3.74837973       3.73070319       4.24093371        2       1.00000000      -0.06231002       0.06125469      -0.18298678
Pt       6.34610096       3.67405519       4.27425271        2       0.00000000      -0.00545293      -0.02991182      -0.00677739
Ni       8.96465616       3.68922387       4.20412218        2       1.00000000       0.09367285       0.00480786      -0.21571326
Ni       2.52905335       5.79183070       4.28877778        2       1.00000000      -0.07289691      -0.08910550      -0.19283437
Ni       5.04766457       5.83067927       4.27718271        2       1.00000000      -0.03151317      -0.13150114      -0.16198933
Pt       7.61049194       5.85355509       4.19701890        2       0.00000000       0.02804733       0.02015274      -0.05303494
Ni      10.24338783       5.80661606       4.26031937        2       1.00000000       0.03062097      -0.11880216      -0.00175943
Pt       3.82837233       7.95790936       4.22251478        2       0.00000000      -0.01833452      -0.09939774       0.13371621
Ni       6.34217062       8.06896770       4.19916997        2       1.00000000      -0.09807520       0.06005330      -0.14493364
Pt       8.86398011       8.07105285       4.16689804        2       0.00000000      -0.08379575       0.03391129       0.03386867
Ni      11.48581683       8.01049785       4.20841653        2       1.00000000       0.01162869      -0.09359422      -0.01674680
Pt      -0.01631585      -0.06560750       6.49114392        1       0.00000000       0.15540481      -0.05730784       0.11378506
Pt       2.49783170      -0.00154660       6.47715108        1       0.00000000      -0.10730180       0.02300453       0.16339852
Pt       5.08681697      -0.01003918       6.38153686        1       0.00000000       0.12928733       0.02923388      -0.33068796
Pt       7.60673005      -0.03790763       6.45391962        1       0.00000000      -0.08649880      -0.04388861       0.11015157
Ni       1.24759164       2.24482809       6.40122413        1       1.00000000       0.04061312       0.07524485      -0.16309357
Pt       3.77188382       2.32649221       6.35482708        1       0.00000000       0.02076729       0.23347692      -0.27926156
Ni       6.34584545       2.25065170       6.42364167        1       1.00000000      -0.02038983       0.04607063      -0.05874951
Pt       8.89675738       2.30659781       6.28607873        1       0.00000000       0.02741198       0.14097523      -0.41865068
Ni       2.50480867       4.43635130       6.39136826        1       1.00000000       0.00118113       0.08778971      -0.15494975
Ni       5.08347916       4.44508362       6.41185384        1       1.00000000      -0.02946531       0.11009078      -0.06851972
Ni       7.56926981       4.39619922       6.42310395        1       1.00000000      -0.11568809       0.02021970      -0.02191466
Ni      10.24059153       4.39879639       6.36072187        1       1.00000000       0.21030423      -0.02161616      -0.16048857
Ni       3.81229672       6.48706086       6.40511874        1       1.00000000      -0.00635425      -0.13050322      -0.06846811
Ni       6.32048751       6.52164915       6.40245974        1       1.00000000       0.00113009      -0.01129349      -0.12998776
Pt       8.92620952       6.46685183       6.45678515        1       0.00000000       0.04106039      -0.14847640       0.14611199
Ni      11.48866551       6.52887267       6.34942371        1       1.00000000       0.06353947       0.00278669      -0.19237935
