64
Lattice="10.182298273783827 -0.005848452802639968 0.007365847978660105 5.086084228191992 8.775804380797034 -0.031360060754006526 0.0 0.0 21.51340109116831" Properties=species:S:1:pos:R:3:tags:I:1:initial_magmoms:R:1:forces:R:3 unique_id=3630ec1ddeb34f47a56fb0d8ba651d6c stress="0.004357868236649366 5.4360357334981023e-05 8.037543441178327e-05 5.4360357334981023e-05 0.0040235102053252925 -0.00017745130903812624 8.037543441178327e-05 -0.00017745130903812624 -0.0026096435854339912" energy=-369.7992812207179 pbc="T T T"
Ni       0.01071524       0.01854643       0.14754450        1       1.00000000       0.11450385      -0.03082939      -0.38041363
Ni       2.50293954       0.01181090       0.19202916        2       1.00000000      -0.08300147       0.03571883      -0.32699907
Pt       5.06668327      -0.06299974       0.09364025        1       0.00000000      -0.11215936       0.21372408      -1.39968423
Ni       7.68867828      -0.05659535       0.05587431        1       1.00000000      -0.01727306      -0.03655069       0.08262970
Ni       1.22684290       2.19974461       0.07807676        1       1.00000000      -0.06109198       0.02144085       0.31231995
Pt       3.73006382       2.25021547       0.05302432        1       0.00000000       0.07840276      -0.10201379      -0.08262903
Pt       6.40400598       2.20581167       0.00000000        0       0.00000000      -0.01704005      -0.00990112      -0.29260581
Ni       8.96855614       2.18445732       0.12357120        1       1.00000000      -0.00115215       0.13327960      -0.20206228
Ni       2.53664525       4.42321167       0.01790328        0       1.00000000       0.01980165       0.01871569       0.22463197
Ni       5.04633420       4.42407771       0.06036885        1       1.00000000      -0.02838404       0.05735807       0.21369528
Pt       7.71705694       4.40966396       0.04416127        0       0.00000000       0.04985839      -0.02822991      -0.03998058
Ni      10.22860275       4.36859756       0.03563901        0       1.00000000       0.05717438      -0.05572170       0.25663706
Ni       3.77833302       6.56996011       0.05009654        1       1.00000000       0.01175118      -0.02055338       0.27636781
Pt       6.31499671       6.62167853       0.03448069        0       0.00000000      -0.03853078       0.07689926       0.04315280
Ni       8.91704412       6.55108512       0.01539614        0       1.00000000      -0.02004071       0.01680351      -0.04071969
Ni      11.49359151       6.53276644       0.01746744        0       1.00000000       0.02697369       0.02881148       0.13315574
Ni       1.30007235       0.72601110       2.15583517        4       1.00000000       0.00116045       0.00632857       0.14506061
Ni       3.76762096       0.74802704       2.18051076        4       1.00000000       0.02214587       0.01696065       0.18575890
Pt       6.36448094       0.78554880       2.24382342        4       0.00000000      -0.07314123       0.13227277       0.02731447
Pt       8.98107441       0.74313271       2.16468168        4       0.00000000       0.01825970       0.03734459       0.02364035
Ni       2.54246681       2.90872082       2.17635865        4       1.00000000       0.09403302      -0.05904922       0.07183039
Ni       5.05312376       2.97966863       2.18379501        4       1.00000000      -0.07711764       0.08234174       0.03386511
Ni       7.67437940       2.97075611       2.20166886        4       1.00000000       0.01101539       0.08909565       0.13621402
Ni      10.19289935       2.91658757       2.17511735        4       1.00000000       0.07145729      -0.01129332       0.17913172
Ni       3.85583656       5.10831707       2.15441236        4       1.00000000       0.09320253      -0.02339646       0.05918160
Ni       6.34423905       5.11931081       2.17860193        4       1.00000000      -0.01177842       0.02102505       0.03719912
Ni       8.87958705       5.06154830       2.20767842        4       1.00000000      -0.09814650      -0.16991072       0.21705933
Pt      11.50586414       5.02702913       2.16853189        4       0.00000000       0.14658043      -0.09957408       0.04714416
Ni       5.10263591       7.26355482       2.15967292        4       1.00000000       0.09732480      -0.13911189       0.05799847
Ni       7.57072854       7.28968689       2.15334876        4       1.00000000      -0.10600921      -0.11102181       0.12125486
Pt      10.12914012       7.19759789       2.13963912        3       0.00000000      -0.10422653      -0.08594473      -0.15250723
Ni      12.77537783       7.25816974       2.10047189        3       1.00000000       0.07788259      -0.04222186      -0.00460060
Ni       0.00417576       1.49836641       4.29072707        6       1.00000000      -0.03432530       0.07291546      -0.04660697
Pt       2.50685608       1.52726093       4.26160603        6       0.00000000      -0.08374214       0.01871402       0.08908063
Ni       5.07412005       1.49580543       4.30500373        6       1.00000000      -0.12264512       0.07253389      -0.18921836
Ni       7.66152319       1.47544696       4.32347454        6       1.00000000       0.07893449      -0.01373524      -0.09257494
Ni       1.24970575       3.67636707       4.33123845        6       1.00000000      -0.04290822      -0.00560148       0.02595679
Ni       3.80740503       3.69448074       4.30107908        6       1.00000000      -0.02849246       0.07597968      -0.16188873
Pt       6.35523242       3.66787352       4.27710855        6       0.00000000       0.00666209      -0.02911972      -0.14778471
Ni       8.94196652       3.66567943       4.27099188        6       1.00000000       0.01609080      -0.03325785      -0.15681936
Ni       2.56622153       5.75292960       4.32314464        6       1.00000000       0.09315487      -0.16854729      -0.00504686
Ni       5.09302242       5.80989592       4.28577673        6       1.00000000       0.03392696      -0.07271872      -0.18770041
Ni       7.62572638       5.80343164       4.28492254        6       1.00000000      -0.02152717      -0.01360060      -0.20958236
Ni      10.17149350       5.74882492       4.34270606        6       1.00000000      -0.05957874      -0.07158967      -0.02160377
Pt       3.87611097       7.96477008       4.25292957        6       0.00000000       0.08654907      -0.02458125       0.11078143
Ni       6.35109356       7.98544888       4.23726140        5       1.00000000      -0.03637098       0.00008040      -0.19473643
Pt       8.83572453       7.96316227       4.24429319        5       0.00000000      -0.09421460      -0.03064137      -0.04599177
Pt      11.50475241       7.94757832       4.28875570        6       0.00000000       0.01131377      -0.16961478       0.04991227
Pt      -0.02747313      -0.06025837       6.49577624        9       0.00000000       0.11558907       0.03220391       0.35090869
Pt       2.53672084      -0.03077132       6.51340109        9       0.00000000       0.00095058      -0.01214743       0.44722235
Pt       5.13828448       0.00844301       6.38923738        8       0.00000000      -0.06568075       0.17189487       1.41952774
Ni       7.64139787      -0.04867315       6.45376533        9       1.00000000       0.00650278       0.03774859       0.01658869
Ni       1.28309882       2.25134293       6.42377909        8       1.00000000      -0.03235535       0.06747349      -0.15379886
Ni       3.82493221       2.25282917       6.33970524        7       1.00000000       0.06084143       0.05658124       0.12010464
Ni       6.34949267       2.21070744       6.32299367        7       1.00000000      -0.01456353       0.07006567       0.38367880
Pt       8.89330495       2.24568787       6.42081932        8       0.00000000      -0.03449310       0.14590622       0.06240823
Ni       2.54534008       4.37537195       6.39004428        8       1.00000000       0.03508188      -0.02735196      -0.32983772
Ni       5.06478350       4.38057636       6.40675835        8       1.00000000      -0.05200513       0.03831846      -0.31125849
Ni       7.63264494       4.41405977       6.33468126        7       1.00000000       0.04032369       0.02114479       0.10038303
Ni      10.21184343       4.40151608       6.39432584        8       1.00000000       0.00202068      -0.00640326      -0.26082576
Ni       3.79007681       6.48983171       6.40774421        8       1.00000000       0.04080266      -0.12802168      -0.29125638
Ni       6.35550410       6.49157878       6.30503138        7       1.00000000      -0.03802237       0.01680871       0.01198289
Ni       8.91686653       6.48180596       6.39904052        8       1.00000000       0.01644143       0.00484858      -0.17118514
Ni      11.47729244       6.49215742       6.41687627        8       1.00000000      -0.02669613      -0.05908201      -0.17386044
