64
Lattice="10.453234891321951 0.0022268462688789744 0.0641566393751382 5.2285459511001475 9.095037410471749 0.002742289998229774 0.052383676693613684 -0.027658274035229063 9.022365741541693" Properties=species:S:1:pos:R:3:tags:I:1:initial_magmoms:R:1:forces:R:3 unique_id=59ad0fdc60b7432f8eca75554c79717a stress="-0.0033636172618228682 -2.476004294711399e-05 -1.109396045540951e-05 -2.476004294711399e-05 -0.003420372024732929 2.424797116727976e-06 -1.109396045540951e-05 2.424797116727976e-06 -0.0028138820062295553" energy=-408.5375107496287 pbc="T T T"
Pt      -0.10405209      -0.02500321       0.15951291        4       0.00000000      -0.16682666      -0.03290715      -0.06535750
Ni       2.65131771      -0.03233763       0.09282508        4       1.00000000       0.11078152      -0.07637841       0.09430847
Ni       5.25145778      -0.04210621       0.17717949        4       1.00000000       0.11569970      -0.06067422       0.14676179
Ni       7.82462115      -0.03858413       0.16110373        4       1.00000000      -0.12728015      -0.16171986       0.17736987
Pt       1.28453041       2.30694396       0.11026898        4       0.00000000       0.01749832      -0.01885226      -0.13026630
Pt       3.95899346       2.27380676       0.13692784        4       0.00000000       0.08967668       0.01191686      -0.08608910
Pt       6.58467299       2.19896456       0.18053172        4       0.00000000       0.10321832      -0.11727378      -0.04089497
Ni       9.13964373       2.26780313       0.12769013        4       1.00000000      -0.01732930      -0.04078499       0.11091948
Ni       2.62764488       4.58447259       0.14674441        4       1.00000000       0.08743559       0.05047500       0.10623049
Ni       5.23793434       4.54900428       0.16989472        4       1.00000000       0.21209364      -0.07670861       0.14647050
Pt       7.91687373       4.55577647       0.18784126        4       0.00000000       0.11561709      -0.03668544       0.01324172
Ni      10.46632171       4.58619229       0.11214194        4       1.00000000       0.06753122       0.13638518       0.01931304
Ni       3.88995865       6.82378883       0.17201159        4       1.00000000      -0.07664779       0.03648982       0.12252438
Pt       6.55719863       6.82624950       0.22798107        4       0.00000000       0.03212452      -0.00724258       0.06601330
Ni       9.18040810       6.83255418       0.11733005        4       1.00000000       0.06389710      -0.00564857       0.06520454
Ni      11.78177361       6.83941678       0.19278211        4       1.00000000       0.13824130       0.07920345       0.06715293
Pt       1.30823516       0.66899494       2.25472028        3       0.00000000       0.01332525      -0.02811367      -0.03753832
Pt       4.00883732       0.73513168       2.28979585        3       0.00000000       0.05282182       0.03343106       0.08035888
Ni       6.58564692       0.73440774       2.31405970        3       1.00000000       0.05833296      -0.05872863       0.01719895
Ni       9.09031328       0.73311116       2.31327142        3       1.00000000      -0.18087173       0.05446366      -0.00258001
Pt       2.64694220       3.05820187       2.27674445        3       0.00000000      -0.03900448       0.02098807       0.05566532
Ni       5.27678276       3.03017625       2.30832379        3       1.00000000       0.03576835       0.00738450       0.01266018
Pt       7.78674657       3.01628906       2.42235240        3       0.00000000      -0.08596720       0.01080120       0.02324058
Pt      10.36693064       3.05545899       2.29806779        3       0.00000000      -0.11762691       0.05679946      -0.07309889
Pt       4.00876533       5.36234829       2.18411672        3       0.00000000       0.05318443       0.01018741       0.06860736
Ni       6.58944935       5.30232997       2.30907224        3       1.00000000       0.15250083      -0.02665245       0.05670477
Ni       9.12543265       5.33503124       2.34435252        3       1.00000000      -0.07406947       0.06276941       0.12055028
Pt      11.73949664       5.34585723       2.24241407        3       0.00000000      -0.01104392      -0.00703352       0.02515452
Ni       5.22469135       7.56571455       2.26453488        3       1.00000000      -0.00842609       0.02673524       0.02752679
Ni       7.86868966       7.51442382       2.29529615        3       1.00000000       0.07102582      -0.11143264       0.08212679
Pt      10.45681864       7.55475429       2.22651211        3       0.00000000      -0.02372997      -0.01861599       0.05032457
Ni      13.09665158       7.63003030       2.26730921        3       1.00000000      -0.01934592       0.09514812      -0.08373727
Pt      -0.10811678       1.56269225       4.45666680        2       0.00000000      -0.13100270       0.06900328      -0.13222019
Pt       2.65753252       1.47053876       4.49146124        2       0.00000000      -0.07436507      -0.02948808      -0.06793841
Ni       5.31000541       1.51426470       4.47326214        2       1.00000000       0.08712167       0.03903233      -0.16892037
Ni       7.83571939       1.53532055       4.50052579        2       1.00000000      -0.08888662       0.00037575      -0.13076747
Pt       1.23445537       3.84618809       4.49338178        2       0.00000000      -0.04677770       0.06867865      -0.05726805
Pt       4.03872648       3.74434015       4.44369430        2       0.00000000       0.03061833       0.03026941      -0.02091755
Ni       6.60809917       3.75926260       4.50272216        2       1.00000000       0.04533480       0.02001034       0.04681522
Ni       9.12705438       3.81735527       4.51197110        2       1.00000000      -0.08136823       0.10053534      -0.16929801
Pt       2.60641350       6.07301364       4.43545900        2       0.00000000      -0.00190699       0.03615438      -0.02150961
Pt       5.35295174       6.00871329       4.41970713        2       0.00000000       0.07922883      -0.06042541       0.02021114
Ni       7.92367263       5.99364103       4.46511834        2       1.00000000       0.06871264      -0.13783820      -0.19695469
Ni      10.41238712       6.03017861       4.55030791        2       1.00000000      -0.08598791      -0.03889494      -0.05203436
Pt       3.91700574       8.35258453       4.38347118        2       0.00000000       0.00143193      -0.04799073      -0.12749700
Pt       6.58260537       8.28123725       4.44798254        2       0.00000000      -0.00757851       0.00865301      -0.06215373
Pt       9.18374033       8.22648568       4.53007881        2       0.00000000      -0.03830103      -0.05213477      -0.01329178
Pt      11.77815788       8.40415042       4.47793267        2       0.00000000      -0.02507408       0.01340142      -0.00659474
Pt      -0.01101218       0.01833986       6.66902813        1       0.00000000      -0.09077215       0.01960332      -0.03518601
Ni       2.65626175      -0.03647710       6.72563879        1       1.00000000      -0.05259836       0.04193832      -0.08596664
Pt       5.22738125      -0.05096855       6.79081210        1       0.00000000      -0.07467173      -0.00165073       0.12329153
Ni       7.86859404      -0.00468989       6.74706148        1       1.00000000      -0.06302781      -0.04455218      -0.12050524
Pt       1.26686606       2.27236576       6.65393923        1       0.00000000      -0.09402362       0.05393862      -0.01080252
Pt       3.95760238       2.21510270       6.65828654        1       0.00000000       0.01510527       0.01765878      -0.00266262
Pt       6.65188394       2.20977917       6.61822832        1       0.00000000       0.00733637      -0.03161570      -0.03691177
Ni       9.17473156       2.26474620       6.74638367        1       1.00000000      -0.04105042       0.03232614      -0.07474079
Pt       2.60510213       4.53302310       6.77528172        1       0.00000000       0.01326840       0.00528468       0.09295020
Pt       5.30401508       4.52706173       6.74925665        1       0.00000000       0.07185375       0.03082417       0.09462282
Pt       7.99068500       4.53134935       6.61916643        1       0.00000000       0.03413376       0.02697397      -0.00098860
Ni      10.45966047       4.54260027       6.74321154        1       1.00000000      -0.02273044       0.03296742      -0.10445610
Pt       3.92642457       6.84210474       6.77031939        1       0.00000000      -0.04329661       0.01590831       0.08518472
Pt       6.66854924       6.83524792       6.69035078        1       0.00000000       0.04686032       0.04408595       0.06091959
Ni       9.18813505       6.79391910       6.72423309        1       1.00000000      -0.00568333      -0.03302625      -0.10345215
Pt      11.70911283       6.78801854       6.80466987        1       0.00000000      -0.07450765      -0.03773232       0.04297603
