64
Lattice="10.25630676886082 -0.019257541460327682 0.041242020011717874 5.111475864311339 8.792237634309577 -0.01650167786543618 0.033673968330120534 -0.03499960577288598 8.753451657016628" Properties=species:S:1:pos:R:3:tags:I:1:initial_magmoms:R:1:forces:R:3 unique_id=70b6621d9932431b94ac993f2e0b194c stress="-7.222986001401838e-05 4.8338574156251186e-06 -1.8188481560651896e-05 4.8338574156251186e-06 -6.75950743064535e-05 1.4382381451413891e-06 -1.8188481560651896e-05 1.4382381451413891e-06 -2.6842195820844794e-05" energy=-393.7759097500276 pbc="T T T"
Ni       0.03867890      -0.04420570       0.18240200        4       1.00000000       0.10667310      -0.13590553       0.29381370
Ni       2.51526645      -0.03578507       0.22087150        4       1.00000000      -0.06203798      -0.09047168       0.37850399
Pt       5.12544251      -0.04761802       0.16191070        4       0.00000000      -0.00279646      -0.10449808       0.32080085
Ni       7.72021999      -0.06792026       0.21509737        4       1.00000000       0.05946062      -0.04305663       0.34412097
Ni       1.28168581       2.20071811       0.10517376        4       1.00000000       0.02664664       0.01580058       0.25060844
Pt       3.77110427       2.25022446       0.19271594        4       0.00000000      -0.03562216       0.10381911       0.20085142
Pt       6.42527811       2.25929676       0.12674006        4       0.00000000       0.06160865       0.19896017      -0.00394352
Pt       9.04433192       2.23151313       0.15299017        4       0.00000000       0.10263096       0.04856361       0.13213406
Ni       2.55288933       4.43072361       0.05888602        4       1.00000000       0.07781907       0.10952181       0.00738658
Ni       5.12341681       4.46108845       0.11053751        4       1.00000000       0.02478916       0.21787665       0.22179022
Ni       7.68701538       4.44911340       0.12451038        4       1.00000000      -0.00027053       0.16743534       0.22851849
Ni      10.26921498       4.41256836       0.10018830        4       1.00000000       0.07532857       0.15477152       0.10233063
Ni       3.84326768       6.57969054       0.09683963        4       1.00000000       0.10095038      -0.03227077       0.17021905
Ni       6.39468738       6.57874335       0.18834360        4       1.00000000      -0.01535482      -0.03564734       0.17182835
Ni       8.92509524       6.53237302       0.17469956        4       1.00000000      -0.17560783      -0.09575420       0.20841372
Ni      11.56816608       6.53944390       0.09040040        4       1.00000000       0.14009680      -0.04648768       0.02532069
Ni       1.29941647       0.71309280       2.18347859        3       1.00000000      -0.04564991      -0.03270807       0.04726012
Ni       3.82689166       0.73754462       2.23023022        3       1.00000000       0.04921004      -0.01996249      -0.01632824
Ni       6.41887665       0.75819574       2.25817989        3       1.00000000      -0.06259446       0.12803208       0.04970750
Pt       8.99905608       0.70360507       2.26362902        3       0.00000000       0.01011852       0.14320496      -0.05984027
Ni       2.55414422       2.92845198       2.22986812        3       1.00000000       0.04138482       0.05539391      -0.00777676
Ni       5.12242945       2.94927090       2.25465873        3       1.00000000      -0.09674968       0.09287107       0.03804982
Ni       7.69684912       2.95933536       2.25851269        3       1.00000000       0.09746982       0.04773031      -0.00769259
Ni      10.27780727       2.91203234       2.27874596        3       1.00000000       0.01362464      -0.04170998       0.14684913
Ni       3.88639760       5.11616530       2.19466927        3       1.00000000       0.12865060      -0.01547574       0.03567872
Ni       6.40688493       5.12824116       2.18851419        3       1.00000000      -0.01930805      -0.00517951       0.00445830
Ni       8.92140904       5.06887531       2.21871027        3       1.00000000      -0.11236497      -0.17886234       0.07842846
Pt      11.57958597       5.03874634       2.23456318        3       0.00000000       0.12397746      -0.08845399       0.05058037
Ni       5.15740485       7.26783397       2.16468078        3       1.00000000       0.03886160      -0.16198412       0.01872415
Ni       7.62094749       7.28725759       2.17517619        3       1.00000000      -0.14059792      -0.13385780       0.07494467
Pt      10.22185204       7.23393659       2.20121315        3       0.00000000      -0.09633757      -0.07601292      -0.21665388
Ni      12.85380075       7.26282341       2.17175842        3       1.00000000       0.13965845      -0.21097599      -0.07242901
Ni       0.01869131       1.49587968       4.31119481        2       1.00000000      -0.05790638       0.08697788      -0.09299878
Pt       2.51405654       1.51883935       4.25469966        2       0.00000000      -0.00656708       0.03601285       0.13519258
Ni       5.15454419       1.47325452       4.31041176        2       1.00000000      -0.08574415       0.03144472      -0.21600100
Ni       7.70355220       1.46570976       4.34899262        2       1.00000000       0.00845602       0.01818346      -0.10584668
Ni       1.26790994       3.68051740       4.36781444        2       1.00000000      -0.05054088       0.03135391       0.00892810
Ni       3.84568272       3.71486258       4.30704866        2       1.00000000      -0.05878321       0.11356897      -0.23531197
Pt       6.41916788       3.65949382       4.33119016        2       0.00000000      -0.01314198       0.01216998      -0.06875113
Ni       9.00964772       3.67352875       4.31685080        2       1.00000000       0.01954149       0.08553474      -0.26957555
Ni       2.58405765       5.77731902       4.36402598        2       1.00000000       0.02863440      -0.11639115      -0.09282273
Ni       5.12021170       5.80770969       4.31383425        2       1.00000000       0.04217897      -0.12763239      -0.22304946
Ni       7.68988135       5.80108457       4.30943930        2       1.00000000      -0.01863556      -0.04745049      -0.21647475
Ni      10.27458708       5.75216406       4.37594869        2       1.00000000       0.00280321      -0.08259338      -0.05850025
Pt       3.91569157       7.96836730       4.28731425        2       0.00000000       0.07681554      -0.16429866       0.15055729
Ni       6.40196804       8.00293618       4.28176094        2       1.00000000      -0.04888858      -0.11268666      -0.17443751
Pt       8.89677487       7.99600834       4.28507464        2       0.00000000      -0.06405321      -0.04590707       0.05951493
Pt      11.57646813       7.99413897       4.28910250        2       0.00000000       0.00929207      -0.04272247       0.02764361
Pt       0.02356021      -0.00624541       6.52770378        1       0.00000000       0.03116410       0.06214786       0.12800609
Pt       2.56805766      -0.00243920       6.56254709        1       0.00000000      -0.05941989       0.04166957       0.25294285
Pt       5.16085394      -0.00703936       6.45334127        1       0.00000000       0.06098694       0.05598537      -0.46335473
Pt       7.71624729      -0.07510269       6.57929791        1       0.00000000      -0.09613495      -0.06349955       0.13095638
Ni       1.29424084       2.25237692       6.47423149        1       1.00000000       0.01631965       0.18886657      -0.14467850
Pt       3.86531706       2.30697154       6.42462403        1       0.00000000      -0.10672858       0.17303745      -0.26422656
Ni       6.43636366       2.21330799       6.42154783        1       1.00000000      -0.00906099       0.04294768      -0.25509536
Pt       8.99961859       2.26936707       6.39654944        1       0.00000000      -0.01468380       0.12775078      -0.37906763
Ni       2.54824937       4.42304394       6.45351901        1       1.00000000      -0.07933615       0.08954618      -0.22937434
Ni       5.12128721       4.37722416       6.48501584        1       1.00000000      -0.10899535       0.08394606      -0.14066541
Ni       7.68271867       4.33643925       6.49582237        1       1.00000000      -0.13901715      -0.03861203      -0.12555281
Ni      10.33932741       4.35394519       6.48450974        1       1.00000000       0.23542292      -0.00221286      -0.21702975
Ni       3.81799560       6.49001312       6.47554036        1       1.00000000      -0.08008968      -0.18167664      -0.10606761
Pt       6.36856758       6.46385151       6.48811788        1       0.00000000      -0.05236539       0.02723548       0.07966277
Pt       9.03322027       6.42634864       6.52217596        1       0.00000000       0.03280638      -0.14803932       0.10003771
Ni      11.58282919       6.48122905       6.50245823        1       1.00000000       0.03200370      -0.06936311      -0.21121795
