64
Lattice="10.37396672173528 -0.04319251887208736 0.02345566303384436 5.1495775422709755 8.958054258085877 -0.0016845567106338686 0.0 0.0 21.610495521815274" Properties=species:S:1:pos:R:3:tags:I:1:initial_magmoms:R:1:forces:R:3 unique_id=26389b72da384ffc92097bf008a0ebfe stress="0.005834316516519095 -0.0002658728195677157 0.00012127566545367097 -0.0002658728195677157 0.006000310747940918 -0.00020132220557196777 0.00012127566545367097 -0.00020132220557196777 -0.0011713700562372975" energy=-378.8814571422645 pbc="T T T"
Ni       0.04325159       0.01933704       0.09364228        1       1.00000000       0.15565545      -0.03499703      -0.06580213
Ni       2.55615151       0.00042108       0.12494209        1       1.00000000      -0.10669225       0.05794492       0.01631532
Pt       5.11673332      -0.06305805       0.05917030        1       0.00000000      -0.13983769       0.19524473      -0.94768337
Pt       7.83986461      -0.11580273       0.09918389        1       0.00000000      -0.02487922      -0.17687442      -0.87396498
Ni       1.25569696       2.24650954       0.02853449        0       1.00000000      -0.12295065       0.03229770       0.59860989
Pt       3.78454371       2.28425956       0.05203914        1       0.00000000      -0.00093200       0.01830789       0.12841741
Pt       6.48359090       2.27294352       0.09778212        1       0.00000000      -0.03171514       0.07088988      -0.70316861
Ni       9.12199041       2.22488794       0.10514967        1       1.00000000       0.06388722       0.13818005       0.02405578
Ni       2.56637961       4.49385187       0.00000000        0       1.00000000       0.05502369       0.01395584       0.35696680
Ni       5.13383799       4.49274757       0.10654868        1       1.00000000      -0.06661685       0.11871281       0.19580801
Pt       7.84852107       4.49036197       0.05090092        1       0.00000000       0.03847387       0.04000539       0.10937591
Ni      10.38604476       4.43448753       0.01627639        0       1.00000000       0.06815943      -0.10474563       0.41924888
Ni       3.85402643       6.67633582       0.10856623        1       1.00000000       0.00046338      -0.15350609       0.21001476
Pt       6.43430024       6.74197249       0.12869192        1       0.00000000      -0.07226343       0.00972232      -0.34081980
Ni       9.05694548       6.67238111       0.01173757        0       1.00000000      -0.05780133      -0.00298764       0.19505508
Ni      11.64970704       6.63060896       0.01301029        0       1.00000000       0.07206827      -0.02189624       0.23494448
Ni       1.33213661       0.75542275       2.12661158        2       1.00000000       0.19991246       0.11720648      -0.03541754
Ni       3.83853944       0.75854825       2.17289294        3       1.00000000      -0.09420794       0.06576645       0.18091148
Pt       6.43804740       0.77438884       2.24157814        3       0.00000000      -0.12756205       0.14986911       0.14678108
Pt       9.19931404       0.74948332       2.16934624        3       0.00000000       0.16689463       0.13142590       0.06683474
Ni       2.58839428       2.97266039       2.16694268        3       1.00000000       0.01376878       0.00991117       0.15773984
Ni       5.13117788       3.02366168       2.19669489        3       1.00000000      -0.22010326       0.16950585       0.20668730
Ni       7.81088882       3.02036736       2.18807433        3       1.00000000       0.13068374       0.16588666       0.19435947
Ni      10.37652529       2.95268934       2.16365067        3       1.00000000       0.16566471       0.09811117       0.05515587
Ni       3.90538949       5.21426386       2.16781588        3       1.00000000       0.13471187      -0.07667644       0.15803028
Ni       6.45165542       5.21427310       2.18867279        3       1.00000000      -0.08912389       0.06806674       0.17990924
Ni       9.03031084       5.16238495       2.19782551        3       1.00000000      -0.08617606      -0.19396835       0.24457988
Pt      11.70679712       5.12625630       2.11390835        2       0.00000000       0.12316645      -0.18773566       0.02788712
Ni       5.15526456       7.41780110       2.15561491        3       1.00000000      -0.10488253      -0.18815675       0.12175452
Ni       7.73295333       7.44072754       2.15795086        3       1.00000000       0.01310881      -0.07005797       0.06183629
Pt      10.28993359       7.34932552       2.13733440        2       0.00000000       0.00070172      -0.24141821      -0.18135506
Ni      12.98017443       7.36777048       2.17014917        3       1.00000000       0.08882544      -0.20250292       0.13346549
Ni       0.02235223       1.51638750       4.33630637        5       1.00000000       0.09346473      -0.05222247      -0.18543920
Pt       2.62403318       1.53552630       4.29729519        5       0.00000000      -0.01050968      -0.04110211      -0.16770192
Ni       5.16185544       1.51451249       4.34973158        5       1.00000000      -0.02548910       0.18038631      -0.26025072
Pt       7.84253662       1.53581337       4.31938050        5       0.00000000       0.14044322       0.01173644      -0.06439602
Pt       1.29332043       3.72306484       4.38777829        6       0.00000000      -0.03728816      -0.02403430      -0.06895362
Ni       3.88873229       3.74839203       4.32839753        5       1.00000000       0.03700025       0.13724441      -0.31093066
Pt       6.45590211       3.79312802       4.24784237        4       0.00000000      -0.07023580       0.07946887      -0.17467158
Ni       9.06588613       3.71707023       4.34302347        5       1.00000000      -0.04010586       0.02328107      -0.31198362
Ni       2.60481633       5.91743755       4.33857275        5       1.00000000       0.10966767      -0.22910654      -0.24047505
Ni       5.14872427       5.92258693       4.29997165        5       1.00000000      -0.11038752      -0.06761355      -0.41711331
Ni       7.76873109       5.91106997       4.32744046        5       1.00000000      -0.06064389      -0.01502213      -0.36621594
Pt      10.30657800       5.86582408       4.43127032        6       0.00000000      -0.05979634      -0.04350490      -0.06853885
Pt       3.88980102       8.12976972       4.26061466        5       0.00000000       0.05125072      -0.12429308      -0.12557000
Pt       6.44683803       8.16298963       4.22372450        4       0.00000000      -0.08358603      -0.00454480      -0.25911199
Pt       9.01342132       8.16916047       4.29579595        5       0.00000000      -0.07511325      -0.04381745      -0.14929215
Pt      11.66446310       8.11306847       4.32331476        5       0.00000000       0.09777065      -0.16770202      -0.12614079
Pt       0.03653086       0.03853590       6.57308058        8       0.00000000       0.02358037       0.05769013       0.11287923
Pt       2.61544621       0.03609787       6.61049552        8       0.00000000       0.01339392       0.03506449       0.18759709
Pt       5.17701415      -0.07251599       6.48875660        7       0.00000000       0.00442220       0.13407105       0.95396909
Pt       7.78737442      -0.06043996       6.52914577        7       0.00000000       0.04043702       0.18143815       0.99929643
Ni       1.32706465       2.28815903       6.54178162        7       1.00000000       0.06196363       0.05322741      -0.21731626
Ni       3.85564483       2.25139803       6.46936964        7       1.00000000      -0.02771603      -0.01341258      -0.02310478
Pt       6.46482571       2.24737511       6.48634837        7       0.00000000      -0.02895376      -0.05491833       0.66498030
Pt       9.16136764       2.32700867       6.57082033        8       0.00000000       0.02496045       0.11090259       0.09562835
Ni       2.53766883       4.44633675       6.53298188        7       1.00000000      -0.07724966      -0.03919921      -0.30954340
Pt       5.10783126       4.42440836       6.54080255        7       0.00000000      -0.14572507       0.07103978      -0.02851777
Ni       7.82043352       4.47514297       6.46868263        7       1.00000000       0.10084226       0.09042768      -0.15633540
Ni      10.39006169       4.47451424       6.56873942        8       1.00000000       0.04887139       0.04877292      -0.20211757
Pt       3.79833706       6.63867758       6.54963076        7       0.00000000       0.04792458      -0.08789751       0.01104797
Pt       6.53275810       6.64274132       6.47339332        7       0.00000000      -0.11330985      -0.08007421       0.26373321
Ni       9.08783324       6.63677502       6.55442074        8       1.00000000      -0.07823652      -0.05495153      -0.16657717
Ni      11.62573583       6.61312458       6.56139841        8       1.00000000       0.00292787      -0.08682228      -0.16536734
