64
Lattice="10.28048311212009 0.005709827500868289 0.02047138531460045 5.145186411727024 8.853171969334207 -0.015314712423151492 0.0 0.0 21.556442282996787" Properties=species:S:1:pos:R:3:tags:I:1:initial_magmoms:R:1:forces:R:3 unique_id=18e4255551e0431d895ecc927ac4ad56 energy=-374.53400957096903 stress="0.005788585134632415 1.3518848873681449e-05 0.00017441947543935153 1.3518848873681449e-05 0.005647942051315882 -0.00012979590770343004 0.00017441947543935153 -0.00012979590770343004 -0.0013673045033420206" pbc="T T T"
Ni       0.01303865      -0.00108314       0.14719412        1       1.00000000       0.10307916       0.04789907      -0.08245237
Ni       2.54246501       0.01549505       0.17417807        2       1.00000000      -0.06394271       0.08049537      -0.02543995
Pt       5.13437579      -0.04744395       0.11190066        1       0.00000000      -0.02565712       0.17952726      -0.99298459
Ni       7.73786474      -0.05556776       0.17093208        2       1.00000000      -0.07583213      -0.05082290      -0.20399994
Ni       1.28813500       2.21819051       0.07395370        1       1.00000000      -0.00874775       0.01829476       0.38495195
Pt       3.74858801       2.21714980       0.14980392        1       0.00000000       0.05922231       0.00840049      -0.33349851
Pt       6.44715577       2.18989219       0.08270210        1       0.00000000       0.00471753      -0.03687158      -0.14287403
Pt       9.10089898       2.21172277       0.10397758        1       0.00000000       0.00179620       0.13124606      -0.49385857
Ni       2.53002441       4.45489855       0.02238688        0       1.00000000      -0.01638017      -0.01183898       0.21570745
Pt       5.05950745       4.48876550       0.06630584        1       0.00000000      -0.02767327       0.09330916      -0.00358059
Pt       7.76257228       4.47414503       0.00000000        0       0.00000000      -0.10873237       0.00686054      -0.25286931
Ni      10.34685806       4.45534521       0.03783100        0       1.00000000       0.07390408      -0.02599121       0.26655952
Ni       3.80380758       6.67265116       0.06295023        1       1.00000000      -0.01564172       0.04571355       0.35914820
Pt       6.42341109       6.73811705       0.13997277        1       0.00000000      -0.04751859       0.01044629      -0.37571905
Ni       9.02896857       6.63820196       0.03876858        0       1.00000000      -0.01158467       0.00616467       0.10659054
Ni      11.60631007       6.60894683       0.04188904        0       1.00000000       0.07756666       0.05421586       0.25462945
Ni       1.32025832       0.74220118       2.19977316        4       1.00000000       0.05544409       0.05278342       0.24223243
Ni       3.81802301       0.76769550       2.23488508        4       1.00000000      -0.04908525       0.11521572       0.29787118
Ni       6.43220489       0.77220718       2.23576235        4       1.00000000      -0.05201967       0.14353005       0.29512639
Pt       9.02102009       0.72663298       2.24108866        4       0.00000000       0.06371438       0.11028390       0.04548703
Ni       2.56679711       2.91689742       2.25112216        5       1.00000000       0.05460351      -0.12113375       0.29337991
Ni       5.12343002       2.94819031       2.23868981        4       1.00000000      -0.11378132      -0.02520056       0.17331331
Ni       7.69422488       2.93464860       2.23626680        4       1.00000000      -0.05199182      -0.04120788       0.16015634
Ni      10.33774455       2.92544767       2.24397782        4       1.00000000       0.14803154      -0.12292219       0.28756605
Ni       3.88382149       5.16588855       2.22279528        4       1.00000000       0.12210967      -0.06994338       0.23297330
Ni       6.39277061       5.17037646       2.22450561        4       1.00000000      -0.05287058      -0.00072999       0.13186667
Pt       8.96733546       5.11890829       2.26566585        5       0.00000000      -0.12088957      -0.22316792      -0.07576433
Pt      11.65716480       5.10229011       2.20445014        4       0.00000000       0.12227479      -0.17389793       0.11112352
Ni       5.15475123       7.34582916       2.19914685        4       1.00000000       0.06088860      -0.12859456       0.16154186
Ni       7.67388324       7.40831582       2.20133824        4       1.00000000      -0.12409957       0.02894481       0.17972836
Pt      10.29179504       7.35107307       2.18241861        4       0.00000000       0.02304521      -0.05623974      -0.21643530
Ni      12.89927144       7.34669959       2.14481511        3       1.00000000       0.10720241      -0.11215058       0.04330944
Ni       0.06706195       1.50726764       4.30052161        6       1.00000000       0.18118838       0.02966721      -0.13772261
Ni       2.53862370       1.51157227       4.28214879        6       1.00000000      -0.07147669       0.05909738      -0.22285354
Ni       5.13733867       1.49855752       4.28781710        6       1.00000000      -0.10840839      -0.00456710      -0.40313976
Ni       7.71530096       1.49628129       4.32322115        6       1.00000000      -0.01707570      -0.03477691      -0.24831777
Ni       1.30053037       3.66556310       4.35548395        7       1.00000000       0.04394959      -0.05830388      -0.02102478
Ni       3.83061904       3.71361774       4.28245262        6       1.00000000      -0.11926326       0.01876945      -0.29705747
Pt       6.42467015       3.68814370       4.30893127        6       0.00000000      -0.03955829      -0.00034052      -0.12757151
Ni       9.04101784       3.70177796       4.32385504        6       1.00000000       0.12317359      -0.08788932      -0.14112203
Ni       2.59561155       5.82039277       4.35778321        7       1.00000000       0.02928633      -0.18835747      -0.02012352
Ni       5.13097305       5.85433677       4.28783750        6       1.00000000      -0.00780996      -0.15258604      -0.30404757
Ni       7.72454688       5.87139453       4.32076735        6       1.00000000      -0.09741315      -0.00090859      -0.17542592
Ni      10.29854558       5.83253952       4.40279398        7       1.00000000       0.06285052      -0.05688822       0.07081572
Pt       3.93368284       8.03139450       4.28761078        6       0.00000000       0.11210695      -0.09159748       0.12373393
Ni       6.43395421       8.10860640       4.26113822        6       1.00000000      -0.04719116       0.05249759      -0.31179592
Pt       8.91965170       8.09720895       4.27376180        6       0.00000000      -0.07558651       0.06506916       0.07006162
Pt      11.61287907       8.07523353       4.27731480        6       0.00000000       0.04336814      -0.08026232       0.03131045
Pt       0.01895418      -0.00190592       6.50915125        9       0.00000000       0.06834972       0.08230520       0.28442760
Pt       2.56569033       0.00092303       6.52116554        9       0.00000000      -0.03651304       0.06564998       0.24933670
Pt       5.14827399      -0.03949141       6.43814647        8       0.00000000      -0.01337041       0.21494575       1.04528288
Pt       7.71634758      -0.05100123       6.55644228       10       0.00000000      -0.03304876       0.16009801       0.36813250
Ni       1.29453455       2.26989509       6.44404106        8       1.00000000      -0.01372443       0.21098942      -0.33569704
Pt       3.84803390       2.30881606       6.37333612        8       0.00000000      -0.02146361       0.00738877       0.28009353
Ni       6.43717413       2.23887051       6.40183472        8       1.00000000      -0.00823071      -0.00957797       0.08982851
Pt       9.02073159       2.30609169       6.37297265        8       0.00000000       0.00866172       0.00554478       0.50212903
Ni       2.54732488       4.45094665       6.43822270        8       1.00000000      -0.04270892       0.00552233      -0.44152198
Ni       5.12940158       4.42058498       6.39116510        8       1.00000000      -0.11372955       0.06666830      -0.03949914
Ni       7.74341783       4.42295993       6.37498527        8       1.00000000       0.07765007       0.04486886       0.08869071
Ni      10.32635314       4.45579402       6.45409664        9       1.00000000       0.04885577      -0.01514427      -0.41861608
Ni       3.83610310       6.54473719       6.45930117        9       1.00000000      -0.04049622      -0.19079108      -0.29706927
Pt       6.43483014       6.52949474       6.37409296        8       0.00000000      -0.00514255       0.05298843       0.30912028
Ni       9.03779740       6.54807691       6.46262367        9       1.00000000       0.01007481      -0.10794672      -0.28864460
Ni      11.57951628       6.54630224       6.47960408        9       1.00000000      -0.00845617       0.00524941      -0.32549931
