64
Lattice="10.604384649564892 0.003256693664106405 0.014981534385176014 5.305012704227902 9.213885854668082 -0.018532164514794003 0.0 0.0 21.851132234154946" Properties=species:S:1:pos:R:3:tags:I:1:initial_magmoms:R:1:forces:R:3 unique_id=ef8e1dc87caa40e2aa09d2b1f11651b0 stress="0.004930908074859431 7.744966055382074e-05 -2.0555296327194864e-05 7.744966055382074e-05 0.005163696197429226 -7.122272220334548e-05 -2.0555296327194864e-05 -7.122272220334548e-05 -0.001038318469189517" energy=-393.9435451606548 pbc="T T T"
Pt       0.03828966       0.00373745       0.00000000        0       0.00000000      -0.03538416      -0.04619986      -0.11379087
Ni       2.66933891       0.01261444       0.10806533        1       1.00000000       0.05856589       0.02958872       0.22099499
Pt       5.23736682       0.01298715       0.04531561        0       0.00000000      -0.08996378       0.13662199       0.19219653
Pt       7.92477790      -0.02074922       0.09023315        1       0.00000000      -0.10709773       0.07244843      -0.35441457
Pt       1.37645874       2.27837385       0.00911465        0       0.00000000       0.01901190       0.03706380       0.06521609
Ni       3.96778414       2.28194666       0.11331707        1       1.00000000      -0.01603217      -0.04795136       0.22623256
Pt       6.60459009       2.29275399       0.08584698        1       0.00000000       0.05348476      -0.09740586      -0.33804730
Pt       9.30155267       2.31374523       0.03285134        0       0.00000000       0.04418056      -0.04385798       0.11741047
Pt       2.63360507       4.60845945       0.10335765        1       0.00000000      -0.05139091       0.08476758      -0.46845713
Pt       5.29483904       4.58593676       0.10557460        1       0.00000000       0.08936414       0.07050212      -0.50724349
Pt       7.96956965       4.62114570       0.12883728        1       0.00000000      -0.03532822       0.11777886      -0.17628542
Pt      10.62703493       4.63581652       0.08432090        1       0.00000000       0.04832517      -0.02614004       0.25027224
Pt       3.95157338       6.90550210       0.06783719        1       0.00000000       0.05215014      -0.02335731      -0.77915880
Pt       6.65539713       6.92806396       0.09549722        1       0.00000000      -0.01522164      -0.14798667      -0.61685782
Pt       9.31188877       6.92871114       0.01158028        0       0.00000000       0.00183709      -0.06047632      -0.01460783
Ni      11.91918852       6.90885727       0.09605349        1       1.00000000      -0.00446985       0.00943976       0.16075105
Pt       1.35192212       0.78513902       2.30370654        2       0.00000000       0.05173197      -0.02530541       0.16210269
Ni       3.97420146       0.76138519       2.27545100        2       1.00000000      -0.01691907      -0.01741212       0.21641355
Pt       6.60908871       0.75579520       2.37227585        3       0.00000000       0.07601368      -0.00725593       0.33974766
Pt       9.30302957       0.83226227       2.38246266        3       0.00000000       0.07672795       0.27883246       0.35659218
Pt       2.62082575       3.05949371       2.28974414        2       0.00000000      -0.10512602       0.00149417       0.20307429
Pt       5.31297864       3.05774698       2.32000210        2       0.00000000       0.06725854      -0.09655268       0.29063669
Pt       8.00685330       3.14175568       2.42522648        3       0.00000000       0.09929591       0.15464102       0.51912994
Ni      10.60481059       3.10307771       2.32702254        2       1.00000000      -0.00288196       0.19440352       0.27914509
Pt       3.97021017       5.35828525       2.31679015        2       0.00000000      -0.05607764      -0.04040213       0.30609077
Ni       6.65672285       5.35750939       2.30020815        2       1.00000000       0.09250502      -0.04927428       0.41972547
Ni       9.30150981       5.35357206       2.31093621        2       1.00000000       0.15254660      -0.05372023       0.30945234
Ni      11.89583021       5.35429901       2.29084816        2       1.00000000      -0.20414533      -0.12953895       0.34519106
Pt       5.31854498       7.66683655       2.31319441        2       0.00000000      -0.06397161       0.14883380       0.27954571
Pt       7.99733135       7.65260470       2.29586524        2       0.00000000       0.14391393       0.00815900       0.25275193
Pt      10.60357618       7.62932906       2.30749390        2       0.00000000      -0.03528957      -0.16453567       0.18247191
Pt      13.20920246       7.64750547       2.30998272        2       0.00000000      -0.06046907      -0.03066444       0.25801130
Ni      -0.03133242       1.55557027       4.59562617        5       1.00000000      -0.22869390       0.13009207      -0.02838581
Pt       2.62748737       1.53267036       4.55873735        5       0.00000000      -0.01074416       0.05312944      -0.23468483
Pt       5.37127363       1.49790119       4.56091852        5       0.00000000       0.03608500      -0.08882005      -0.14176541
Ni       7.99058920       1.56066910       4.58096220        5       1.00000000       0.17696716       0.27634788      -0.28490364
Pt       1.21171106       3.77673936       4.54777662        4       0.00000000      -0.30689863      -0.19480951      -0.27777083
Pt       4.00173946       3.80155262       4.54236795        4       0.00000000      -0.05070082      -0.08661720      -0.23247976
Ni       6.67673002       3.81123977       4.54849538        4       1.00000000       0.12296434      -0.12505944      -0.37993409
Ni       9.28161903       3.78749947       4.56196854        5       1.00000000      -0.03376999      -0.27479121      -0.19752469
Pt       2.61133989       6.15289905       4.51623649        4       0.00000000      -0.13831021       0.01516134      -0.31897325
Pt       5.34834954       6.10101074       4.50184747        4       0.00000000       0.04779159      -0.05721327      -0.35132856
Pt       7.98656312       6.05478265       4.49232286        4       0.00000000       0.05242802      -0.13945338      -0.52058398
Pt      10.58925212       6.09507559       4.54556331        4       0.00000000      -0.12391534      -0.18215930      -0.25106959
Pt       3.96313159       8.52547367       4.54352310        4       0.00000000      -0.03428843       0.14934722      -0.23121463
Pt       6.61325129       8.47743099       4.55930551        5       0.00000000      -0.03080305       0.07760041      -0.21572374
Pt       9.33195762       8.42998533       4.58238535        5       0.00000000       0.02049095      -0.11244771      -0.14896331
Ni      11.93803176       8.44533965       4.56965894        5       1.00000000      -0.00428246      -0.00964885      -0.27145332
Ni       0.01256449       0.02236593       6.74450819        6       1.00000000       0.01927135       0.21679756      -0.24203684
Pt       2.65847740      -0.00845938       6.85113223        8       0.00000000      -0.06920563       0.02569954       0.14485232
Ni       5.30832345      -0.02449676       6.76848928        7       1.00000000       0.03885530       0.01062189      -0.13247807
Pt       7.96056957       0.02951083       6.73117701        6       0.00000000      -0.10051331       0.15760880       0.38143652
Ni       1.29246463       2.27745043       6.74617534        6       1.00000000      -0.23062436      -0.08157859      -0.33562933
Pt       3.97063897       2.24803224       6.84442561        7       0.00000000      -0.02098124      -0.03319805       0.14207409
Pt       6.68136643       2.27559793       6.72100965        6       0.00000000       0.30026573       0.19169965       0.42536351
Ni       9.32050010       2.28586995       6.72650582        6       1.00000000       0.18728242      -0.01699720      -0.57117942
Pt       2.58757219       4.56195968       6.75516164        7       0.00000000      -0.21601187       0.00015751       0.44358755
Pt       5.33635852       4.57984689       6.74706816        6       0.00000000       0.23223567      -0.04994485       0.56856512
Pt       8.06241447       4.56948838       6.71901759        6       0.00000000       0.23306907      -0.12895093       0.14406386
Ni      10.60299426       4.57803745       6.75971938        7       1.00000000      -0.05310481      -0.09243290      -0.34265066
Pt       3.98604899       6.93017398       6.74239518        6       0.00000000      -0.04713377       0.06608593       0.58460946
Pt       6.67429104       6.91935787       6.75580687        7       0.00000000       0.17619466      -0.03617774       0.53858549
Ni       9.30009306       6.89458605       6.75367625        7       1.00000000      -0.07872543      -0.02563289      -0.16971376
Pt      11.85289880       6.91847191       6.81456640        7       0.00000000      -0.09233835       0.12904586      -0.07698367
