64
Lattice="10.40662155776029 0.01761626401820341 0.022765942052023435 5.2185669110396855 8.984282201690135 0.016940173896078766 0.0 0.0 21.57634940320476" Properties=species:S:1:pos:R:3:tags:I:1:initial_magmoms:R:1:forces:R:3 unique_id=8ce3bb80b5f14d0a84de3a840129bcc5 stress="0.006261496481735318 0.0003171527251020931 0.0004139410514972104 0.0003171527251020931 0.0062451928162466685 0.00019434309665845756 0.0004139410514972104 0.00019434309665845756 -0.001776412294758712" energy=-379.1902422560061 pbc="T T T"
Ni      -0.01377203       0.02080370       0.11037995        1       1.00000000      -0.02279893       0.06427672       0.13249306
Ni       2.60497789       0.00763014       0.12064476        1       1.00000000      -0.00487436       0.01992071       0.05779359
Ni       5.20662493      -0.00853780       0.08490379        1       1.00000000       0.00251634       0.18190901      -0.23605182
Ni       7.83053099      -0.02407259       0.03908323        0       1.00000000       0.03897599      -0.06154394       0.52175513
Ni       1.29835455       2.23303621       0.08752941        1       1.00000000       0.08205787      -0.13319291      -0.10062671
Pt       3.85291149       2.24512667       0.12005116        1       0.00000000      -0.03389977      -0.02861094      -0.48158559
Pt       6.51663546       2.18269458       0.08244634        1       0.00000000      -0.08709872      -0.14849852      -0.61956346
Ni       9.13882403       2.22698805       0.07275575        1       1.00000000       0.00139593      -0.16645465      -0.03090667
Ni       2.60332426       4.50300805       0.06637813        1       1.00000000      -0.03010104      -0.06728303      -0.17487811
Ni       5.20755192       4.50127135       0.08962773        1       1.00000000       0.16933881      -0.08503344      -0.17413199
Pt       7.88655439       4.53138003       0.00466836        0       0.00000000      -0.00381020       0.04178113      -0.03876260
Ni      10.44094072       4.51959018       0.00000000        0       1.00000000       0.06193601       0.02544507       0.26168878
Ni       3.89117722       6.76657934       0.10160962        1       1.00000000      -0.05343953       0.19798080      -0.00252801
Pt       6.50135389       6.80138653       0.13682288        1       0.00000000      -0.06561672       0.09914778      -0.46659505
Ni       9.14458138       6.76321365       0.01724846        0       1.00000000      -0.04697596       0.00179716       0.26981977
Ni      11.73175372       6.76495278       0.00882986        0       1.00000000       0.13976308       0.07317399       0.29429421
Ni       1.30722168       0.72805407       2.09657255        2       1.00000000       0.02111405      -0.09862522      -0.01925511
Ni       3.90376934       0.75842626       2.14955203        2       1.00000000       0.06238788      -0.02363022       0.19212834
Ni       6.51523509       0.74037818       2.17738492        3       1.00000000       0.04673877      -0.00508221       0.20275233
Ni       9.11102198       0.72914395       2.13119283        2       1.00000000      -0.04449789      -0.09630988      -0.04489454
Ni       2.61683790       2.98801663       2.15055919        3       1.00000000      -0.01288537       0.08877135       0.18317541
Ni       5.19289675       2.98112069       2.19199745        3       1.00000000      -0.02302953      -0.10224155       0.36675534
Pt       7.82892158       2.97280640       2.20980582        3       0.00000000       0.03638002      -0.06849345       0.06924133
Pt      10.43017895       2.94558517       2.13757109        2       0.00000000       0.09653604       0.01393696       0.08094475
Pt       3.93978099       5.23350559       2.10987999        2       0.00000000       0.02839507      -0.03351334       0.07638262
Ni       6.54177619       5.25873717       2.16686559        3       1.00000000       0.14536348      -0.05548776       0.22550661
Ni       9.09927502       5.27644144       2.19512868        3       1.00000000      -0.09405488       0.02265070       0.23900291
Pt      11.71307806       5.28442868       2.12338569        2       0.00000000      -0.07505304       0.03196891       0.03089123
Ni       5.20332897       7.53127418       2.13303045        2       1.00000000      -0.10703502       0.10794017       0.05145407
Ni       7.82397669       7.49597857       2.15829943        3       1.00000000       0.07788925      -0.03477938       0.12429282
Pt      10.39604896       7.52352566       2.08244966        2       0.00000000      -0.05216473       0.00825863      -0.04329567
Ni      13.04258754       7.53834292       2.13666379        2       1.00000000      -0.02073693       0.11377311      -0.08080561
Ni      -0.02064567       1.52349503       4.29728269        5       1.00000000      -0.01699821       0.07302572      -0.22123341
Pt       2.63489744       1.54109247       4.19569995        4       0.00000000       0.01805933       0.03557369      -0.16345704
Ni       5.23198307       1.51256584       4.27792554        5       1.00000000      -0.00989646       0.00450797      -0.44861074
Ni       7.83615051       1.51200390       4.31240583        5       1.00000000       0.02666680       0.00267752      -0.26270758
Pt       1.26334263       3.80176030       4.31260787        5       0.00000000      -0.06097178       0.01250306       0.04837983
Ni       3.92086366       3.75068302       4.29852889        5       1.00000000      -0.00905923      -0.02112864      -0.31039772
Pt       6.54643839       3.74394128       4.28969794        5       0.00000000      -0.06855883       0.02795466       0.01225832
Ni       9.12330215       3.78979406       4.35552544        6       1.00000000       0.00157522       0.07650505      -0.21887630
Ni       2.59773694       5.99173130       4.32624764        5       1.00000000      -0.02569271       0.02381544      -0.23580250
Pt       5.20462187       5.97622102       4.26266311        5       0.00000000      -0.06730888       0.08541969      -0.08011045
Ni       7.88480974       5.95622867       4.31930930        5       1.00000000       0.11291656      -0.08750413      -0.30762006
Ni      10.39795774       5.98238644       4.38787961        6       1.00000000      -0.04933518       0.02837514      -0.08225526
Pt       3.89882819       8.29627190       4.23682999        4       0.00000000       0.03704933       0.08927076      -0.12722287
Pt       6.52421822       8.25344949       4.21634544        4       0.00000000      -0.01164757       0.09335839      -0.19157165
Pt       9.13750642       8.18078063       4.30782463        5       0.00000000      -0.07168929      -0.03626674      -0.03468842
Pt      11.75021980       8.24221789       4.32116572        5       0.00000000      -0.04918482      -0.02742711      -0.06472248
Pt      -0.03477034       0.01171094       6.54794150        8       0.00000000       0.15644584       0.10725961       0.11063992
Pt       2.63941560      -0.03184258       6.57634940        9       0.00000000       0.01383113      -0.07300691       0.30310447
Pt       5.26809596      -0.09029900       6.56687770        9       0.00000000      -0.08074998       0.06102897       0.22564994
Ni       7.80459576       0.01114908       6.51937493        8       1.00000000       0.00398794       0.05148629      -0.20394850
Pt       1.27650652       2.28374862       6.55064525        9       0.00000000      -0.07915959      -0.10514059       0.18547331
Pt       3.92901005       2.25480460       6.44176712        7       0.00000000       0.12579253      -0.04858910       0.50764192
Pt       6.55868932       2.20973754       6.43919904        7       0.00000000      -0.06634383      -0.15338670       0.65335614
Pt       9.10448899       2.33307075       6.49352634        8       0.00000000       0.01411558       0.09425633      -0.09106950
Pt       2.53803778       4.55973246       6.53027346        8       0.00000000       0.10245014       0.03899859       0.17247342
Pt       5.24137719       4.50043245       6.55110712        9       0.00000000      -0.06688924      -0.01591667       0.36370166
Ni       7.88198225       4.52359050       6.42443440        7       1.00000000       0.07010866       0.07291537       0.02723859
Ni      10.37562246       4.57369560       6.50737173        8       1.00000000      -0.14687196       0.10356084      -0.31471471
Pt       3.83188883       6.78769449       6.55846511        9       0.00000000       0.01023648      -0.09775803       0.06132650
Pt       6.60906240       6.69321885       6.47063995        8       0.00000000       0.08085132      -0.06144019       0.39402708
Ni       9.17170062       6.67790939       6.51104366        8       1.00000000       0.00323698      -0.11483537      -0.29188462
Ni      11.68871540       6.73464380       6.52399901        8       1.00000000      -0.12968223      -0.12404464      -0.28086863
