64
Lattice="10.27412462458165 0.005502258039570384 -0.04282629773392694 5.14182740753127 8.866554818747064 -0.09184989922192013 -0.03496752567354413 -0.06640840509431169 8.778251669648212" Properties=species:S:1:pos:R:3:tags:I:1:initial_magmoms:R:1:forces:R:3 unique_id=08a8b7108f374d238cd7ca5851155157 stress="-0.0002885220601731506 -1.647120898165983e-06 1.3005694197508863e-05 -1.647120898165983e-06 -0.0002789108951903388 1.6081151846805204e-05 1.3005694197508863e-05 1.6081151846805204e-05 -0.00023878794486227595" energy=-396.20613183954515 pbc="T T T"
Ni      -0.00092223       0.00836794       0.18545048        4       1.00000000       0.02463044       0.05725635       0.23846206
Ni       2.58385683       0.03198246       0.20414060        4       1.00000000       0.06154796       0.06852836       0.25982615
Ni       5.11836966       0.00303394       0.14264956        4       1.00000000      -0.09537858       0.10156830       0.17772041
Ni       7.69841119      -0.04649483       0.04462940        4       1.00000000      -0.10666478      -0.14038859       0.03566304
Ni       1.30564357       2.20181009       0.15023571        4       1.00000000       0.01142086      -0.08723485       0.18910761
Ni       3.81862331       2.20497168       0.08415545        4       1.00000000      -0.07384789      -0.04975388       0.12021011
Pt       6.41160830       2.20001205       0.14456433        4       0.00000000      -0.01440171      -0.06887238       0.32766500
Ni       8.99619889       2.22054324       0.07873525        4       1.00000000      -0.00592794      -0.04062042       0.08338521
Ni       2.55898315       4.40827156       0.00446670        4       1.00000000      -0.08910749      -0.14438052      -0.07955803
Ni       5.11065589       4.40418487       0.09455051        4       1.00000000      -0.02052031      -0.15669144       0.22694094
Ni       7.75685951       4.42147473       0.01017664        4       1.00000000       0.14813066      -0.07605566       0.04378546
Ni      10.26612767       4.43470182      -0.01746461        4       1.00000000      -0.02667981      -0.06146747      -0.01599803
Ni       3.81711553       6.66087332       0.00972924        4       1.00000000      -0.08258228       0.00836238       0.05109715
Pt       6.42449322       6.68451146      -0.02774637        4       0.00000000      -0.03410689      -0.00795720      -0.20242403
Ni       8.99751772       6.62936911       0.06713535        4       1.00000000      -0.05725838      -0.10160939       0.15311138
Ni      11.58006200       6.65092556      -0.04647126        4       1.00000000       0.01557484      -0.06454964      -0.09241465
Ni       1.30393682       0.71626692       2.15155962        3       1.00000000      -0.01473715       0.02333083       0.00939401
Ni       3.84132598       0.76740740       2.15101874        3       1.00000000       0.05424600       0.05382008       0.03511791
Ni       6.39453562       0.73499275       2.21773888        3       1.00000000      -0.03857647       0.08875297       0.14687851
Pt       8.93579037       0.70382413       2.13307745        3       0.00000000      -0.07524206      -0.00849064      -0.00389720
Ni       2.58928597       2.90649937       2.13511694        3       1.00000000       0.00683000       0.03556710      -0.08455760
Ni       5.08631361       2.88405408       2.18392422        3       1.00000000      -0.06966524      -0.09917591       0.05240616
Ni       7.71962311       2.93397927       2.16659688        3       1.00000000       0.05558009      -0.01928353      -0.00643158
Pt      10.26570023       2.93601096       2.15766874        3       0.00000000       0.06204621      -0.03637092       0.05677700
Pt       3.83635401       5.13738920       2.10328332        3       0.00000000      -0.03973768      -0.03278123      -0.06076411
Pt       6.49602553       5.14570610       2.11337177        3       0.00000000       0.07909510       0.08604810      -0.16804344
Ni       8.98528402       5.15859719       2.12877251        3       1.00000000       0.07931843       0.02715339       0.06250613
Pt      11.54235131       5.16438053       2.12121144        3       0.00000000       0.04549244      -0.03794213      -0.06084463
Ni       5.12500855       7.38613403       2.09169151        3       1.00000000      -0.04796056      -0.05347367      -0.09757838
Ni       7.70843638       7.40426497       2.08865195        3       1.00000000       0.04023580       0.02748534      -0.05278365
Pt      10.28334074       7.41734343       2.04355928        3       0.00000000      -0.00009837       0.04636930       0.01710856
Ni      12.82642198       7.38742469       2.05820446        3       1.00000000      -0.03274140      -0.04250887      -0.08750183
Ni      -0.03342605       1.49013860       4.34213882        2       1.00000000      -0.00837085       0.06221696       0.04253755
Pt       2.57964688       1.54508128       4.25133318        2       0.00000000      -0.02906784       0.11138859       0.02597857
Ni       5.13919375       1.44312769       4.27143070        2       1.00000000       0.05183460      -0.04003720      -0.09987094
Ni       7.67789335       1.43628917       4.28166283        2       1.00000000      -0.04653360       0.01941330      -0.02816374
Ni       1.25569942       3.72339803       4.34644490        2       1.00000000       0.03258393       0.04352613      -0.00904816
Ni       3.80909021       3.67158996       4.31674833        2       1.00000000      -0.01644443       0.05898736      -0.07750692
Pt       6.45808417       3.61836316       4.24206457        2       0.00000000      -0.03504610      -0.08319555       0.11309665
Ni       9.01165669       3.69829947       4.29233929        2       1.00000000       0.07730217       0.09034953      -0.06331152
Ni       2.49138154       5.85016057       4.35885903        2       1.00000000      -0.09027784      -0.02101514      -0.05445264
Pt       5.07258262       5.86737285       4.31024845        2       0.00000000       0.01147298      -0.02612890       0.03830853
Ni       7.74174091       5.83566097       4.27831456        2       1.00000000       0.12500591      -0.02405516      -0.10605919
Ni      10.29284489       5.83360005       4.29147854        2       1.00000000       0.00374264       0.02123414      -0.05385811
Pt       3.72101680       8.09802052       4.27029060        2       0.00000000      -0.03243611      -0.01937437       0.04395883
Pt       6.40456668       8.11116942       4.18146061        2       0.00000000      -0.07338558       0.09000599      -0.00196222
Pt       9.02997917       8.06716611       4.20108410        2       0.00000000      -0.02857878      -0.02403458       0.08425303
Ni      11.54668217       8.08949775       4.24701412        2       1.00000000      -0.08721657      -0.04275759      -0.09046617
Pt      -0.07748989      -0.10344865       6.58318445        1       0.00000000       0.00971476      -0.02347598       0.13435254
Pt       2.56112553      -0.03886881       6.58939658        1       0.00000000       0.03702220       0.04494835       0.20968790
Pt       5.18666131      -0.09013503       6.52630618        1       0.00000000       0.11067821      -0.10879542       0.09237209
Ni       7.67295390      -0.08812059       6.48034174        1       1.00000000       0.01270527      -0.00723244      -0.10951941
Pt       1.30082017       2.28950245       6.51944518        1       0.00000000       0.16489825       0.09608198       0.13831675
Ni       3.83171780       2.20652594       6.47357825        1       1.00000000       0.04775282       0.02821264      -0.12681941
Pt       6.39453835       2.16722971       6.41676612        1       0.00000000       0.00153314      -0.01473285      -0.23640147
Pt       8.96786617       2.24503052       6.43359598        1       0.00000000       0.04045595       0.12068756      -0.03716978
Ni       2.52516891       4.44914630       6.43389195        1       1.00000000      -0.03781343       0.17623696      -0.21645129
Pt       5.04523682       4.42090638       6.51757525        1       0.00000000      -0.07916200       0.16264683       0.07062712
Ni       7.68183533       4.40552940       6.42915951        1       1.00000000      -0.09729205       0.02749970      -0.16941473
Ni      10.28944515       4.42428302       6.39893966        1       1.00000000       0.17319254       0.08727385      -0.20045210
Ni       3.75792902       6.59692123       6.44920022        1       1.00000000      -0.16601435       0.04015773      -0.08248953
Ni       6.40586627       6.57958431       6.34805610        1       1.00000000       0.07892961      -0.00850793      -0.38449991
Pt       8.99361954       6.48956123       6.44068246        1       0.00000000       0.03500782      -0.07729433       0.08467342
Ni      11.59167176       6.56639036       6.38099478        1       1.00000000       0.05489289      -0.05486433      -0.20461138
