64
Lattice="10.32538770430908 0.009709847078179724 -0.005895967549655954 5.171102826391105 8.893405117884829 -0.037125942912739573 -0.004814037345554913 -0.032223288898045516 8.824559878218336" Properties=species:S:1:pos:R:3:tags:I:1:initial_magmoms:R:1:forces:R:3 unique_id=0fd69baa0ada465093fd816d39c03bb9 stress="0.00027505714618396987 2.796712557327187e-06 -1.3442697785496794e-05 2.796712557327187e-06 0.0002804531502924451 1.0087489190912523e-05 -1.3442697785496794e-05 1.0087489190912523e-05 0.0002678556087805997" energy=-397.9881816825663 pbc="T T T"
Ni       0.01022020      -0.00829067       0.18498822        4       1.00000000      -0.01241487       0.00065408       0.33360347
Ni       2.55100686       0.00961257       0.20752622        4       1.00000000      -0.04033241       0.05148522       0.39701684
Pt       5.15427080      -0.03684816       0.13945469        4       0.00000000      -0.02928339      -0.06588566       0.33423967
Ni       7.76613681      -0.05135630       0.17820464        4       1.00000000       0.02909335      -0.10343672       0.37975902
Ni       1.29794845       2.22854081       0.09809971        4       1.00000000       0.02473837       0.04894805       0.24023099
Pt       3.79268120       2.27848908       0.18470675        4       0.00000000      -0.01594633       0.10006943       0.16934256
Pt       6.45771481       2.23600115       0.10820442        4       0.00000000       0.06150782       0.07911693       0.00493610
Pt       9.12870541       2.22802549       0.11062107        4       0.00000000       0.11385337      -0.04099914       0.11750558
Ni       2.57624862       4.47809330       0.05483669        4       1.00000000       0.05895894       0.09292997       0.01389493
Ni       5.12811078       4.47940770       0.16504254        4       1.00000000      -0.05521479       0.08562103       0.36210505
Pt       7.79166681       4.50447489       0.08425864        4       0.00000000       0.04148670       0.06149163      -0.06260850
Ni      10.37565407       4.47672458       0.05039901        4       1.00000000       0.13300002       0.05411450       0.14192808
Ni       3.84211890       6.66078844       0.08524129        4       1.00000000      -0.09585970      -0.06513617       0.22495974
Pt       6.41755614       6.71846088       0.16323230        4       0.00000000      -0.09753230      -0.00822807       0.07059310
Ni       9.05507244       6.66118756       0.05124085        4       1.00000000       0.00374343      -0.01397589       0.10969704
Ni      11.65599663       6.64032727       0.03997711        4       1.00000000       0.10515668      -0.06659159       0.06867140
Ni       1.30176344       0.75258437       2.17157103        3       1.00000000      -0.04844619       0.10585351      -0.09743166
Ni       3.85175317       0.76210504       2.22795094        3       1.00000000       0.08065883       0.02593985       0.02027598
Ni       6.45302101       0.78047975       2.24705192        3       1.00000000      -0.06663555       0.13226322       0.07658539
Pt       9.04305580       0.73605845       2.24816173        3       0.00000000      -0.00442225       0.16566120       0.00991646
Ni       2.57481627       2.96372838       2.23155660        3       1.00000000       0.03613740       0.08447918       0.00066182
Ni       5.15077926       2.98220640       2.24553256        3       1.00000000      -0.12185314       0.03572257       0.06307580
Ni       7.74938824       2.98545226       2.24717330        3       1.00000000       0.12746592       0.02574751      -0.04115631
Ni      10.34856239       2.96611763       2.24549355        3       1.00000000       0.04056928      -0.02617025       0.15434645
Ni       3.90831320       5.17583079       2.20551820        3       1.00000000       0.08012250      -0.04181717       0.10699042
Ni       6.43831833       5.18172606       2.22793446        3       1.00000000      -0.03318356       0.07002286       0.02293728
Ni       9.01109074       5.15593874       2.21908313        3       1.00000000      -0.05578420      -0.18586734       0.14294402
Pt      11.67936358       5.12046191       2.16178341        3       0.00000000       0.13533743      -0.10926630       0.08853330
Ni       5.14113135       7.36288074       2.18457666        3       1.00000000      -0.18319137      -0.20975644      -0.03772989
Ni       7.73961107       7.39666035       2.17387073        3       1.00000000       0.00489804      -0.14005851      -0.08620637
Pt      10.30916322       7.35042199       2.16143179        3       0.00000000      -0.01486662      -0.12393238      -0.28351340
Ni      12.94326752       7.37643814       2.13510145        3       1.00000000       0.05201927      -0.19318683      -0.05455541
Ni      -0.00432959       1.52563579       4.35255994        2       1.00000000      -0.01932578       0.09655885      -0.09570352
Pt       2.54096082       1.56658795       4.27033579        2       0.00000000       0.02942906       0.00852769       0.05960507
Ni       5.17822433       1.50960543       4.33482131        2       1.00000000      -0.07554414       0.06128073      -0.17017062
Ni       7.74151766       1.50401324       4.34704787        2       1.00000000       0.00876467      -0.01112834      -0.10675309
Ni       1.29048812       3.68618028       4.39553308        2       1.00000000      -0.00523798      -0.01007520      -0.01182766
Ni       3.85920262       3.74680962       4.31917194        2       1.00000000      -0.03175365       0.07904878      -0.19995424
Pt       6.47064618       3.69220061       4.29801766        2       0.00000000      -0.06962574       0.02642102       0.02862622
Ni       9.04003297       3.68453135       4.31595834        2       1.00000000      -0.00351625      -0.10294145      -0.34872348
Ni       2.61315976       5.84839158       4.38756540        2       1.00000000       0.01844589      -0.16126272      -0.06216953
Ni       5.13438776       5.87006800       4.31127332        2       1.00000000      -0.00912229      -0.13740513      -0.19024686
Ni       7.75398188       5.86546218       4.32579470        2       1.00000000       0.00897911      -0.07063422      -0.23920702
Pt      10.32852432       5.81070853       4.42231256        2       0.00000000       0.02189854      -0.00988117      -0.00822805
Pt       3.88169085       8.07043837       4.31861646        2       0.00000000      -0.03029320      -0.17216514       0.19920897
Pt       6.43734686       8.10726919       4.21543939        2       0.00000000      -0.07253098      -0.03847767      -0.03859518
Pt       9.00856500       8.12935280       4.29561450        2       0.00000000      -0.01360959       0.03590684       0.06152614
Pt      11.65543557       8.15032882       4.26748568        2       0.00000000       0.02247675       0.00391980       0.01936612
Pt      -0.00261341       0.00100241       6.59871325        1       0.00000000       0.04068607       0.07552901       0.12260969
Pt       2.57462113      -0.01221537       6.62232601        1       0.00000000      -0.00462761       0.05629609       0.22077510
Pt       5.17307475      -0.04714048       6.49713594        1       0.00000000       0.05541788      -0.03454923      -0.37192440
Pt       7.73483525      -0.04482862       6.60477817        1       0.00000000      -0.03916250      -0.01302582       0.15710130
Ni       1.27593218       2.27346303       6.52195835        1       1.00000000      -0.03732676       0.21653860      -0.17890791
Pt       3.83772429       2.26520384       6.47164706        1       0.00000000      -0.12130317       0.09051051      -0.23877762
Ni       6.46759496       2.22689881       6.44864494        1       1.00000000      -0.00158735       0.06135755      -0.25449545
Pt       9.04125271       2.31462533       6.41218749        1       0.00000000      -0.01483636       0.11958786      -0.31240991
Ni       2.52674010       4.46240246       6.50422855        1       1.00000000      -0.14067679       0.07780797      -0.23423079
Pt       5.12781577       4.44687679       6.53096269        1       0.00000000      -0.05014268       0.06230984       0.11185421
Ni       7.77907409       4.44149497       6.43742213        1       1.00000000       0.06774462       0.08953248      -0.30359115
Ni      10.35614104       4.44822625       6.52588236        1       1.00000000       0.10764749       0.01510951      -0.02612343
Ni       3.82600081       6.60735995       6.51471146        1       1.00000000      -0.10568865      -0.07229370      -0.10897857
Pt       6.49300904       6.59704750       6.45010676        1       0.00000000       0.07047093       0.05021240      -0.25757046
Ni       9.06625728       6.58492744       6.52301024        1       1.00000000       0.07345828      -0.14274892      -0.10699307
Ni      11.63284454       6.58936310       6.52731850        1       1.00000000       0.06671144      -0.07567912      -0.10663975
