64
Lattice="10.139917510043226 0.025027782377616742 -0.03312564488188696 5.0916334503610745 8.764504570326844 -0.01191135210232965 0.0 0.0 21.34902820391671" Properties=species:S:1:pos:R:3:tags:I:1:initial_magmoms:R:1:forces:R:3 unique_id=6a41178df48f4561a121faac441ab76a stress="0.0023921711711176914 1.768899109570533e-05 -0.00018940420901053523 1.768899109570533e-05 0.0017948640155083673 0.0001876947986495398 -0.00018940420901053523 0.0001876947986495398 -0.004939686469755905" energy=-368.26683390277896 pbc="T T T"
Ni       0.03307068      -0.04746222       0.10634175        1       1.00000000       0.05687910      -0.05715725      -0.38584338
Ni       2.48603617      -0.02454761       0.09991251        1       1.00000000       0.04292256      -0.00031076      -0.22651302
Pt       5.08413529      -0.05634647       0.10600829        1       0.00000000      -0.11321183      -0.00441289      -0.86032160
Ni       7.61364752      -0.03077805       0.05026694        1       1.00000000      -0.06389841      -0.10298248      -0.35782311
Ni       1.26316735       2.21170775       0.04296448        0       1.00000000      -0.04317578       0.02643348       0.19763184
Pt       3.76448855       2.25581393       0.10220037        1       0.00000000       0.02524264      -0.06445234      -0.75019557
Ni       6.34204128       2.24439917       0.02318817        0       1.00000000      -0.06175113      -0.00098957       0.10499111
Pt       8.87769384       2.26857556       0.04041005        0       0.00000000       0.04082646       0.16355150      -1.01977920
Ni       2.51228053       4.43071333       0.02657232        0       1.00000000       0.06948012       0.00375919       0.37829546
Ni       5.09279513       4.43868476       0.11219740        1       1.00000000      -0.09870937       0.07783881      -0.27501214
Ni       7.58490120       4.44510245       0.01633275        0       1.00000000       0.04798623       0.01980739       0.19374057
Ni      10.17684722       4.44735427       0.00000000        0       1.00000000      -0.05690122      -0.00799267       0.31217226
Ni       3.81620855       6.55726964       0.02479012        0       1.00000000       0.02535445       0.01164034       0.35697630
Ni       6.34388080       6.57575920       0.02219958        0       1.00000000      -0.02250110       0.02565718       0.23706207
Ni       8.86273044       6.54142584       0.11314107        1       1.00000000       0.00039573       0.02572652      -0.26438430
Ni      11.44594369       6.54051202       0.00217311        0       1.00000000      -0.01801463       0.06094421       0.32211727
Ni       1.30427685       0.72781286       2.06178408        3       1.00000000      -0.03025516       0.08790383       0.08778629
Ni       3.73381947       0.70188817       2.09315942        3       1.00000000      -0.14782999      -0.09225368       0.15442212
Ni       6.34484949       0.73991981       2.07212676        3       1.00000000       0.03089977       0.03757447       0.10188662
Pt       8.84736962       0.67457092       2.07920372        3       0.00000000       0.02902592      -0.18546305       0.13620050
Ni       2.49926286       2.96705952       2.14111494        3       1.00000000      -0.01265672       0.06790709       0.10935122
Ni       5.07469422       2.98149610       2.05758638        3       1.00000000       0.01273192       0.05749070       0.09901791
Ni       7.58959667       2.97901112       2.06798518        3       1.00000000      -0.03122618       0.02808703       0.15104804
Ni      10.18873885       3.01331485       2.06312100        3       1.00000000       0.08522793       0.07707716       0.09588984
Ni       3.78884951       5.12514687       2.08089528        3       1.00000000      -0.07254633       0.00009568       0.09712882
Ni       6.33504773       5.15118148       2.01701566        2       1.00000000       0.03711182       0.05783404       0.07818500
Ni       8.90650057       5.11600210       2.03430103        2       1.00000000       0.06155297      -0.06047384       0.04110101
Ni      11.41833472       5.13860178       2.06019669        3       1.00000000       0.01398171       0.00518586       0.14263909
Ni       5.09858079       7.24436729       2.07474522        3       1.00000000      -0.03995053      -0.08536369       0.12158211
Ni       7.60587503       7.32297578       2.03395337        2       1.00000000      -0.03880540       0.01207837       0.06119770
Ni      10.15728213       7.25702843       2.12169481        3       1.00000000       0.01947472      -0.08558608       0.16256854
Ni      12.66281974       7.25121608       2.05357109        3       1.00000000      -0.02120074      -0.10366250       0.10150097
Pt       0.06390697       1.49516390       4.15098031        5       0.00000000       0.11886308      -0.02992468       0.01168063
Ni       2.52428889       1.47859335       4.11345885        4       1.00000000       0.06114333      -0.04765593      -0.24620616
Pt       5.04540532       1.43792091       4.05967625        4       0.00000000       0.09161554       0.00392610      -0.11268413
Ni       7.59281132       1.44483116       4.14564476        4       1.00000000      -0.03862650      -0.09065736      -0.20869513
Ni       1.29292066       3.71084822       4.18547118        5       1.00000000       0.08993914       0.04099232      -0.11678150
Ni       3.73612267       3.73168902       4.11827979        4       1.00000000      -0.00288731       0.10890077      -0.17307698
Pt       6.34430830       3.66960098       4.12945331        4       0.00000000       0.04188415      -0.02298847       0.00700741
Ni       8.92926442       3.73164961       4.10314804        4       1.00000000       0.09577129       0.11014577      -0.19904909
Ni       2.53185108       5.83572854       4.17352123        5       1.00000000       0.02754914       0.00754500      -0.12007522
Ni       5.01206170       5.88936982       4.14099366        4       1.00000000       0.00355982      -0.00542211      -0.12853959
Pt       7.62167393       5.90132385       4.09715238        4       0.00000000      -0.01241535       0.02731158       0.08002811
Ni      10.20836079       5.84639343       4.13358680        4       1.00000000       0.03884190       0.03442669      -0.10901803
Ni       3.79508113       7.95580254       4.15956704        5       1.00000000       0.00674945      -0.05955185      -0.09740615
Ni       6.32990712       8.02742705       4.10329287        4       1.00000000      -0.01423170       0.01220164      -0.21892280
Ni       8.87908003       8.03123610       4.09398978        4       1.00000000      -0.01701170       0.02362820      -0.25249984
Ni      11.44206883       7.96771000       4.08625102        4       1.00000000       0.04236504      -0.09835549      -0.17930010
Pt      -0.01977288      -0.07248932       6.34682350        7       0.00000000      -0.27371572       0.12492811       0.17108831
Pt       2.49498235      -0.00583237       6.28729884        7       0.00000000       0.27851176      -0.00743028       0.14123208
Pt       5.07657742      -0.02147275       6.21805333        6       0.00000000      -0.21880830      -0.21873972       0.89518108
Pt       7.58449542      -0.03715606       6.26751049        7       0.00000000       0.17118355       0.11843997       0.21717288
Ni       1.24383707       2.26029804       6.29943888        7       1.00000000      -0.00762730       0.02480000      -0.01777745
Pt       3.72981811       2.28950405       6.21163753        6       0.00000000      -0.08172675       0.06827376       0.75349746
Ni       6.32365591       2.22707262       6.28876781        7       1.00000000      -0.03465838       0.01236898       0.05716359
Pt       8.84657393       2.32113955       6.19074104        6       0.00000000      -0.10756423      -0.11893924       1.01950103
Ni       2.47239428       4.44065113       6.26547936        7       1.00000000       0.10968155      -0.03427658      -0.27270258
Pt       5.06418247       4.47990751       6.34902820        7       0.00000000      -0.21408660      -0.05526100       0.08050699
Ni       7.57942590       4.40636207       6.29957348        7       1.00000000      -0.01701604      -0.03335788      -0.00237735
Ni      10.21448322       4.39858400       6.24725600        6       1.00000000       0.02475903      -0.04934014      -0.22222115
Ni       3.75601761       6.53626481       6.26471305        7       1.00000000      -0.04287786      -0.03735425      -0.23227039
Ni       6.33885213       6.56497018       6.28415868        7       1.00000000       0.03195867      -0.00920650      -0.12907671
Pt       8.91280699       6.46241583       6.34710474        7       0.00000000       0.18294624       0.16293342       0.14879128
Ni      11.45141986       6.51676100       6.23876168        6       1.00000000      -0.06052843       0.04214710      -0.24879085
