64
Lattice="10.795912651564395 0.0008449811263940278 0.0018952499391325607 5.39868810090337 9.342110511052496 -0.006561589973167627 0.0015474650953052158 -0.00707975574319267 9.443847572959983" Properties=species:S:1:pos:R:3:tags:I:1:initial_magmoms:R:1:forces:R:3 unique_id=f2ea92191cc44adda785a237a0b0a4d6 stress="-0.0027421878793619653 2.1550340711217815e-06 -9.779716722916529e-07 2.1550340711217815e-06 -0.00274111072700272 2.206982122850927e-06 -9.779716722916529e-07 2.206982122850927e-06 -0.001949999449407179" energy=-433.4483896134187 pbc="T T T"
Pt       0.00166702      -0.01265139       0.11931686        4       0.00000000      -0.01174114      -0.01351438       0.07629638
Pt       2.69763557      -0.01199097       0.11832928        4       0.00000000       0.01445253      -0.00660949       0.05680656
Pt       5.39640921      -0.00026741       0.09636565        4       0.00000000       0.00555853       0.00503543       0.04806180
Pt       8.09851498      -0.00049950       0.09908714        4       0.00000000      -0.00475414      -0.00222165       0.07179730
Pt       1.34987251       2.32895468       0.09908174        4       0.00000000       0.01301798      -0.02737696       0.11393344
Pt       4.04813186       2.33507508       0.09319232        4       0.00000000      -0.00316994       0.00336631       0.06960732
Pt       6.74778095       2.33556235       0.09022707        4       0.00000000      -0.00929483       0.00725127       0.07463831
Pt       9.44733236       2.33332313       0.09798803        4       0.00000000       0.00516721      -0.00771814       0.09116247
Pt       2.70352094       4.67169914       0.09223817        4       0.00000000       0.01649826      -0.00166546       0.07607561
Pt       5.39941836       4.67369854       0.09629628        4       0.00000000       0.00645907      -0.00047826       0.06927702
Pt       8.09425221       4.67525329       0.09857395        4       0.00000000      -0.02058065       0.00537119       0.07113276
Pt      10.79394608       4.67360598       0.09644219        4       0.00000000      -0.00545597       0.00371402       0.08414309
Pt       4.06127931       7.01180981       0.11061456        4       0.00000000       0.02810743      -0.00893081       0.10105934
Pt       6.74799324       7.02008431       0.13741404        4       0.00000000      -0.00320914       0.03297252       0.10367985
Pt       9.43485448       7.01254818       0.11215558        4       0.00000000      -0.02577669       0.00613704       0.08199707
Pt      12.14625549       7.00902019       0.09728609        4       0.00000000       0.00528333       0.00338204       0.08056276
Pt       1.35230490       0.70339344       2.39099098        3       0.00000000       0.01278424      -0.11076098       0.05253933
Pt       4.02525617       0.74750750       2.39019508        3       0.00000000      -0.03523958      -0.02852063       0.05337968
Pt       6.74527388       0.77404892       2.39212495        3       0.00000000      -0.01465248       0.00758431       0.08276406
Pt       9.47074466       0.74496815       2.39189012        3       0.00000000       0.03427892      -0.03102869       0.08247827
Pt       2.71137879       3.11212982       2.41205688        3       0.00000000       0.03305298      -0.00407698       0.11205387
Pt       5.38662374       3.12784875       2.41387893        3       0.00000000      -0.03336481       0.05895041       0.11692850
Pt       8.09282030       3.12143127       2.39008698        3       0.00000000      -0.03192885       0.04096504       0.08816099
Pt      10.80147941       3.10521984       2.38911974        3       0.00000000       0.02858960      -0.03343857       0.08570134
Pt       4.07204402       5.46634045       2.40807601        3       0.00000000       0.02325281      -0.00722762       0.08786767
Pt       6.74479242       5.52253204       2.38787989        3       0.00000000      -0.01182718       0.13953584       0.06261551
Pt       9.42252940       5.48089022       2.38436410        3       0.00000000      -0.03752551       0.03610705       0.06640590
Pt      12.14820274       5.45420186       2.38574077        3       0.00000000      -0.00244898       0.01062041       0.05714474
Ni       5.41599791       7.78345203       2.36376317        3       1.00000000       0.04391393      -0.00882545       0.03915893
Ni       8.07977845       7.78403645       2.36115624        3       1.00000000      -0.05440992       0.00233002       0.02485816
Pt      10.76447231       7.78417626       2.38356340        3       0.00000000      -0.01893831       0.00079939       0.07169298
Pt      13.53102069       7.78010889       2.38716409        3       0.00000000       0.03274746      -0.02192551       0.08093228
Pt       0.01042166       1.54977662       4.68781438        2       0.00000000       0.03657561      -0.01904846      -0.07538761
Pt       2.71450936       1.57786998       4.68888189        2       0.00000000      -0.00326240      -0.00354835      -0.06890794
Pt       5.37841975       1.58219025       4.68909786        2       0.00000000      -0.02954445       0.01574774      -0.09469927
Pt       8.09414246       1.55403278       4.68964492        2       0.00000000      -0.00151799      -0.00498987      -0.09817315
Pt       1.38737367       3.88809653       4.69169242        2       0.00000000       0.03593683      -0.00549187      -0.07077009
Ni       4.05072017       3.88935526       4.71346365        2       1.00000000       0.01111251       0.00582975      -0.03718721
Pt       6.71133208       3.89663598       4.68583317        2       0.00000000      -0.04021730       0.04445265      -0.10010736
Pt       9.44514341       3.89289914       4.69076910        2       0.00000000      -0.00958925       0.01079971      -0.08883944
Pt       2.72295419       6.19374593       4.68858733        2       0.00000000       0.02890979      -0.03748737      -0.05536866
Pt       5.38478984       6.20940183       4.66433042        2       0.00000000      -0.00990027       0.01257445      -0.07298445
Pt       8.08979851       6.23636880       4.66374726        2       0.00000000      -0.00660768       0.02629920      -0.08494857
Pt      10.80081509       6.22300431       4.69204644        2       0.00000000       0.01715803      -0.00784926      -0.05616025
Pt       4.06614062       8.54558576       4.65964675        2       0.00000000       0.05897491      -0.04308722      -0.12098943
Pt       6.74864807       8.54372698       4.62877206        2       0.00000000      -0.00353457      -0.08248875      -0.20241109
Pt       9.43198190       8.56062984       4.66238919        2       0.00000000      -0.05594867      -0.00374325      -0.11534226
Pt      12.14669054       8.55944586       4.68421094        2       0.00000000       0.00324965      -0.01109350      -0.09593939
Pt       0.00088785      -0.00708516       6.99533249        1       0.00000000       0.01478919      -0.01559693      -0.06076280
Pt       2.70090965      -0.00372087       6.99112408        1       0.00000000      -0.01111868      -0.00303765      -0.07558531
Pt       5.39819502      -0.00178599       6.98761509        1       0.00000000      -0.01529630       0.00738640      -0.09675985
Pt       8.09796449      -0.00460555       6.99296418        1       0.00000000       0.00633420      -0.00533852      -0.07944576
Pt       1.35200364       2.33083669       6.98678126        1       0.00000000      -0.00676634      -0.01319227      -0.03186947
Pt       4.04958283       2.34249204       6.96675699        1       0.00000000      -0.00197908       0.01384025      -0.07385391
Pt       6.74732987       2.33225256       6.98399707        1       0.00000000       0.00443743       0.00245267      -0.07646579
Pt       9.44793692       2.33111628       6.98994798        1       0.00000000       0.00092167       0.00097226      -0.06241642
Pt       2.71058636       4.66031307       6.96652454        1       0.00000000       0.01648218      -0.00247343      -0.05718544
Pt       5.38965380       4.66088277       6.96794911        1       0.00000000      -0.00809290       0.01393484      -0.07351796
Pt       8.09478741       4.66572007       6.98632133        1       0.00000000      -0.02059037       0.01675538      -0.07395387
Pt      10.80033215       4.66569802       6.98587894        1       0.00000000       0.00747341       0.00016213      -0.05767593
Pt       4.05200523       7.00155504       6.98538917        1       0.00000000       0.01390581       0.01869747      -0.03352164
Pt       6.74704377       7.00242567       6.98754966        1       0.00000000      -0.00620615       0.01331680      -0.03383186
Pt       9.44610314       7.00308017       6.98834722        1       0.00000000      -0.01477502       0.00894277      -0.05344778
Pt      12.14952177       7.00000776       6.98403604        1       0.00000000       0.00984007      -0.00350050      -0.05640333
