64
Lattice="10.154395779648224 -0.005410061685152563 -0.006151868365876018 5.0725126389687825 8.760453990358917 -0.006546404206751609 0.0 0.0 21.50223027838443" Properties=species:S:1:pos:R:3:tags:I:1:initial_magmoms:R:1:forces:R:3 unique_id=d3c62ced331d4b4f862c537668ccba2f energy=-368.79785183690495 stress="0.0037134059621345018 -1.8072453755789967e-05 2.893003612913853e-05 -1.8072453755789967e-05 0.0033766084636978368 7.463592446136678e-06 2.893003612913853e-05 7.463592446136678e-06 -0.0027510812968326416" pbc="T T T"
Ni       0.04070072      -0.03555329       0.15936802        2       1.00000000       0.12738658       0.01234306      -0.51169769
Ni       2.52339191      -0.02943762       0.18037808        2       1.00000000       0.07166440       0.02493231      -0.25226722
Ni       5.09001600      -0.01550127       0.06447960        1       1.00000000      -0.07981833       0.02886269       0.14493012
Ni       7.58311306      -0.01565768       0.14481061        1       1.00000000      -0.05130920       0.07729834      -0.65243139
Ni       1.27027908       2.20230737       0.09249581        1       1.00000000       0.02199249      -0.02294181       0.28427269
Pt       3.80045733       2.19620987       0.16531863        2       0.00000000      -0.05116993       0.00432137      -0.63594535
Ni       6.33979883       2.19627797       0.08082474        1       1.00000000      -0.02261052       0.04189013       0.15126609
Pt       8.88824044       2.24872922       0.00000000        0       0.00000000       0.03821085       0.03499629      -0.28832235
Ni       2.51302264       4.40896184       0.07901062        1       1.00000000       0.04322197       0.01373090       0.31108991
Ni       5.07393551       4.40215819       0.04842078        0       1.00000000      -0.12845726      -0.04659713       0.13276742
Ni       7.60618112       4.40547905       0.04965473        0       1.00000000       0.10626235       0.06641470       0.08680902
Ni      10.17820648       4.41090826       0.07449052        1       1.00000000      -0.02597384       0.11646771       0.25277816
Ni       3.82702231       6.54338888       0.04489990        0       1.00000000       0.09533427      -0.04413794       0.13467032
Ni       6.33745849       6.58430704       0.05247145        1       1.00000000       0.03089214       0.10062367       0.11324910
Ni       8.85560674       6.55048724       0.12330655        1       1.00000000      -0.12621765      -0.07364725      -0.20624146
Ni      11.41154343       6.54069058       0.02277124        0       1.00000000      -0.07840462      -0.06710272       0.11834293
Ni       1.31907555       0.75572470       2.14481055        3       1.00000000       0.10257335       0.22469607       0.06219508
Ni       3.76468874       0.72078912       2.17752040        4       1.00000000      -0.11453445      -0.04047189       0.12967111
Ni       6.31615695       0.75880540       2.11854099        3       1.00000000      -0.04578585       0.06220613      -0.04886096
Pt       8.94470208       0.75557541       2.15010541        4       0.00000000       0.09945935       0.07708960       0.00075459
Ni       2.51516077       2.93261926       2.19041636        4       1.00000000      -0.00040590      -0.00337734       0.09420662
Ni       5.07272723       2.92505988       2.17605020        4       1.00000000      -0.00571487       0.08092551       0.05219560
Ni       7.61044323       2.94233149       2.15004641        4       1.00000000       0.05712023       0.02984023       0.05381528
Ni      10.18252109       2.95729633       2.15991352        4       1.00000000       0.00562740       0.02233129       0.03292033
Ni       3.79226576       5.05525579       2.15688142        4       1.00000000      -0.01949102      -0.19273271       0.03734309
Pt       6.34531236       5.13224833       2.11450891        3       0.00000000       0.01784587       0.01199882       0.00938359
Ni       8.89725818       5.06872256       2.15915973        4       1.00000000       0.04221394      -0.13684001       0.07233143
Ni      11.40938968       5.05441153       2.13254845        3       1.00000000      -0.06234745      -0.09875811       0.01645310
Ni       5.10229113       7.28435607       2.11507478        3       1.00000000      -0.01733223      -0.02869716      -0.01146607
Ni       7.59939697       7.31338418       2.12678369        3       1.00000000      -0.02571227      -0.03775061       0.02448942
Pt      10.09011080       7.28496806       2.16460905        4       0.00000000       0.00951592      -0.02681613       0.04207233
Pt      12.68682613       7.20500290       2.10895180        3       0.00000000       0.01965591      -0.14071973       0.02861938
Ni       0.03294613       1.49022177       4.31158291        6       1.00000000       0.10790241      -0.05218540      -0.11913712
Ni       2.51025695       1.47305358       4.25483752        6       1.00000000      -0.02580597      -0.03138211      -0.22581330
Pt       5.02514673       1.40374292       4.22560855        5       0.00000000      -0.11161986      -0.09102116       0.00900679
Pt       7.64102521       1.49489509       4.29782056        6       0.00000000       0.06432026      -0.05613614      -0.05735611
Pt       1.26258956       3.66552963       4.29610376        6       0.00000000      -0.00720833      -0.02178054       0.00133514
Ni       3.78267429       3.70792764       4.26526925        6       1.00000000      -0.03316898       0.04628175      -0.22594451
Pt       6.32962584       3.72198181       4.34695402        6       0.00000000      -0.06504827       0.03917271       0.04675606
Ni       8.90623279       3.70036175       4.29966682        6       1.00000000       0.00619494       0.15020229      -0.16058497
Ni       2.52057863       5.80265512       4.33433827        6       1.00000000      -0.06688337      -0.04115461      -0.06442346
Ni       5.04183937       5.81210039       4.32733998        6       1.00000000      -0.00858029      -0.01259557      -0.09423066
Ni       7.65691365       5.83012589       4.29181530        6       1.00000000       0.15710185       0.00275778      -0.19089449
Ni      10.15081494       5.83072818       4.29070217        6       1.00000000      -0.00569660      -0.04922857      -0.15023364
Pt       3.78904410       7.93558044       4.30208881        6       0.00000000      -0.06026756      -0.02591812       0.02360310
Pt       6.40158203       7.99870150       4.20915816        5       0.00000000       0.08297673      -0.02861042       0.00276595
Ni       8.89979478       7.98852495       4.28455725        6       1.00000000      -0.01637202      -0.07383426      -0.10022407
Ni      11.37733029       7.96066880       4.31245969        6       1.00000000      -0.03193858      -0.14361277      -0.04324039
Pt      -0.01568414       0.01159368       6.49453724        9       0.00000000      -0.12031230       0.11787178       0.45152267
Pt       2.57285785       0.00146667       6.47197730        9       0.00000000       0.06506548       0.08619008       0.28998777
Ni       5.08040409      -0.02013669       6.42217492        8       1.00000000      -0.09789197       0.01584046      -0.02137600
Pt       7.52378162      -0.03590122       6.50223028        9       0.00000000       0.06073645      -0.02509733       0.55128566
Ni       1.23792034       2.23797018       6.42661961        8       1.00000000       0.05067123      -0.03539583      -0.04617330
Pt       3.80889234       2.29284466       6.37824877        8       0.00000000      -0.10042454       0.18619899       0.70542670
Ni       6.35475886       2.22389341       6.45311583        9       1.00000000      -0.01653235       0.06832063       0.03734580
Ni       8.89627887       2.25601258       6.32825644        7       1.00000000       0.08406759       0.07463404       0.44909189
Ni       2.51950790       4.43373877       6.42715287        8       1.00000000       0.01718294       0.01513038      -0.20205023
Ni       5.07574545       4.43524795       6.43481008        8       1.00000000      -0.08322961       0.03335968      -0.00920583
Ni       7.60900888       4.35731091       6.43417791        8       1.00000000       0.11099448      -0.02774219      -0.04840264
Ni      10.16649739       4.34717569       6.42197285        8       1.00000000      -0.01619909      -0.02934378      -0.21779297
Ni       3.79865026       6.49095597       6.43043168        8       1.00000000      -0.03157961       0.00272285      -0.06704280
Ni       6.31814747       6.50020287       6.42120559        8       1.00000000       0.05030909       0.02357462      -0.19383607
Pt       8.91956431       6.48377615       6.41961588        8       0.00000000      -0.03118508      -0.07457425       0.05241299
Ni      11.43327359       6.51108476       6.39873543        8       1.00000000       0.03872929      -0.11302325      -0.16197218
