64
Lattice="10.170266695217398 0.03968789026480636 -0.0025537875486533364 5.119504068800629 8.807583265948132 -0.002054009978112767 -0.0020851588018912666 -0.0007326721832894904 8.698858763533426" Properties=species:S:1:pos:R:3:tags:I:1:initial_magmoms:R:1:forces:R:3 unique_id=09edbf39a54b48bcb6cec569ef9a1536 stress="-0.006785719146932732 8.800241192916629e-06 1.228809222619157e-05 8.800241192916629e-06 -0.006750218763648452 -1.3491597486494174e-05 1.228809222619157e-05 -1.3491597486494174e-05 -0.005817038425000691" energy=-391.66880341332933 pbc="T T T"
Ni       0.03173917      -0.04387807       0.19387222        4       1.00000000       0.05529830      -0.05027635       0.15137318
Ni       2.50047496       0.02645885       0.16747976        4       1.00000000      -0.02154838       0.13307721      -0.00824934
Pt       5.11690004      -0.03934446       0.22425751        4       0.00000000      -0.03435043      -0.02733700      -0.04553868
Ni       7.64468547      -0.01709650       0.16796909        4       1.00000000       0.02291224      -0.06972950       0.02837467
Ni       1.27474963       2.22727647       0.12863636        4       1.00000000      -0.01953775       0.11934054       0.10580047
Pt       3.79160785       2.28593015       0.19732501        4       0.00000000      -0.02156832       0.08122448      -0.11572590
Ni       6.37125342       2.26737603       0.12797784        4       1.00000000      -0.00465814       0.07872459       0.12567301
Pt       8.91197703       2.28934700       0.16031044        4       0.00000000      -0.00387203       0.07512233      -0.13468400
Ni       2.53572605       4.45162893       0.11730213        4       1.00000000      -0.00809723       0.06189002       0.07694471
Ni       5.12147567       4.46040276       0.11379375        4       1.00000000      -0.02965735       0.06457321       0.00837170
Ni       7.61610699       4.46203942       0.11985723        4       1.00000000      -0.02071145       0.07578544       0.11618075
Ni      10.22293797       4.46925459       0.11784878        4       1.00000000       0.05978035       0.03503450       0.03495600
Ni       3.83899704       6.58386555       0.11784944        4       1.00000000      -0.01502881      -0.01361784       0.05318198
Ni       6.34012822       6.58566173       0.07394167        4       1.00000000      -0.11863113      -0.02530184      -0.09885428
Ni       8.94553685       6.55788611       0.19383478        4       1.00000000       0.11623976      -0.09446842       0.15189246
Ni      11.49855744       6.58294494       0.12404204        4       1.00000000       0.04720863      -0.03221683       0.05921863
Ni       1.29651248       0.78292714       2.16557474        3       1.00000000      -0.00026041       0.09905216       0.04233880
Ni       3.77688740       0.78147457       2.19178522        3       1.00000000      -0.10545620       0.03594808       0.01459966
Ni       6.37486706       0.76331861       2.19689786        3       1.00000000       0.03137648       0.02873369       0.02790417
Pt       8.87729784       0.70215439       2.20952810        3       0.00000000       0.03854872      -0.04346103       0.09720125
Ni       2.51706041       2.98209022       2.24618973        3       1.00000000      -0.01970654       0.09877996       0.05454095
Ni       5.10705885       3.00605142       2.16915332        3       1.00000000       0.00324277       0.09683283      -0.00981747
Ni       7.61735531       2.99848856       2.20354656        3       1.00000000       0.01817250       0.01949922       0.07252127
Ni      10.22550973       3.03246985       2.19616560        3       1.00000000       0.04958868       0.04354966       0.02789993
Ni       3.83380947       5.13245969       2.15455905        3       1.00000000      -0.03048108      -0.04927718      -0.04602570
Ni       6.33523145       5.12862577       2.13229576        3       1.00000000      -0.05450396       0.00423012       0.00269303
Ni       8.95578995       5.11351569       2.16682268        3       1.00000000       0.00879013      -0.06213785       0.04549323
Ni      11.45793347       5.15682998       2.16355193        3       1.00000000       0.01555117      -0.06026166       0.02505926
Ni       5.07679666       7.27644814       2.18702369        3       1.00000000      -0.11145140      -0.14656959       0.06020626
Pt       7.59735983       7.33536519       2.10351268        3       0.00000000      -0.08471704      -0.00764312      -0.00280421
Ni      10.26123006       7.28400296       2.21263970        3       1.00000000       0.05006482      -0.17187961       0.09198228
Ni      12.72419538       7.31835083       2.16175994        3       1.00000000       0.01200686      -0.08533130      -0.04109546
Pt       0.06788475       1.49595176       4.27324937        2       0.00000000       0.05758236      -0.03445161       0.01582088
Ni       2.54009249       1.52657032       4.26213610        2       1.00000000       0.04686353       0.03410222      -0.09972276
Pt       5.10430916       1.49937979       4.20731177        2       0.00000000       0.01549713       0.01205057      -0.09155790
Ni       7.63807970       1.47424573       4.29562052        2       1.00000000       0.01371250      -0.02134995      -0.04889754
Ni       1.29437483       3.68385547       4.31375927        2       1.00000000       0.04840778       0.02117859      -0.07063886
Ni       3.79479826       3.71568200       4.25429265        2       1.00000000       0.02048428       0.04902433      -0.19434516
Pt       6.35710762       3.69385743       4.31189810        2       0.00000000      -0.00709456      -0.00316359      -0.02370696
Ni       8.96401995       3.73379749       4.25314494        2       1.00000000       0.06192502       0.01904937      -0.16794235
Pt       2.56544021       5.85733284       4.29362796        2       0.00000000       0.00061189       0.01287639      -0.06459058
Ni       5.07671677       5.90241872       4.31166838        2       1.00000000      -0.00596309      -0.01090342      -0.12579454
Pt       7.63341526       5.86420618       4.29704731        2       0.00000000       0.03005060      -0.00902266      -0.00061961
Ni      10.22503416       5.84523490       4.28407436        2       1.00000000       0.00526838      -0.03875204      -0.08071530
Ni       3.85377867       8.03093256       4.29182940        2       1.00000000       0.03222768      -0.03800021       0.00364304
Ni       6.33754748       8.05536863       4.27704135        2       1.00000000      -0.04471903      -0.00524773      -0.09615368
Pt       8.94581683       8.07569861       4.23198404        2       0.00000000      -0.01451206      -0.05660840      -0.03768945
Ni      11.51637068       8.07378136       4.24192139        2       1.00000000       0.04794417       0.01837813      -0.13407960
Pt      -0.00449016      -0.08160774       6.48444630        1       0.00000000      -0.06699729      -0.06429586       0.16133212
Pt       2.51143477       0.01840801       6.46709890        1       0.00000000       0.06095602       0.00595331      -0.00958262
Pt       5.11515646       0.01371585       6.41287064        1       0.00000000      -0.04061883      -0.01502090       0.12318349
Pt       7.63037162      -0.03118939       6.43425079        1       0.00000000       0.06278640      -0.05535794       0.03159994
Ni       1.27280319       2.27030665       6.43533506        1       1.00000000       0.02359405       0.03314892      -0.00607717
Pt       3.79669164       2.35409092       6.37077837        1       0.00000000      -0.02767145       0.07637899       0.00464519
Ni       6.35799731       2.27151523       6.45230275        1       1.00000000      -0.03531551       0.00410358       0.02639709
Pt       8.88681293       2.34322710       6.35992439        1       0.00000000      -0.05287466       0.04216811       0.05288450
Ni       2.52664762       4.45370359       6.44171292        1       1.00000000      -0.01019378       0.05479310      -0.01075308
Ni       5.10313617       4.47696718       6.44790245        1       1.00000000      -0.05298034       0.06809953      -0.04238982
Ni       7.57739968       4.42767536       6.46896035        1       1.00000000      -0.13860855      -0.02073490       0.06068410
Ni      10.26345484       4.42531452       6.41859781        1       1.00000000       0.13039728      -0.03891543      -0.10709489
Ni       3.84505991       6.52232085       6.44385429        1       1.00000000      -0.00825113      -0.08418094      -0.02670240
Ni       6.34027326       6.54810169       6.43859989        1       1.00000000      -0.00941682      -0.04271387      -0.13877438
Pt       8.94992733       6.49378443       6.52648340        1       0.00000000       0.03314162      -0.10010653       0.17229844
Ni      11.49725821       6.56828211       6.44277734        1       1.00000000      -0.00077736      -0.02436806      -0.04627274
