64
Lattice="10.362014527070333 0.008124599783937796 -0.03715008757301814 5.188043373343636 8.857576673837375 -0.07512361729130247 -0.030332919484534954 -0.05331450638888732 8.798683372772963" Properties=species:S:1:pos:R:3:tags:I:1:initial_magmoms:R:1:forces:R:3 unique_id=a6c3eabe6eee491abd817234c183d052 stress="0.0002635200335256646 -2.2274414118318597e-06 1.341405663664658e-05 -2.2274414118318597e-06 0.00027656505853169977 9.475904118886922e-06 1.341405663664658e-05 9.475904118886922e-06 0.0002490401799525588" energy=-398.91050285192415 pbc="T T T"
Ni      -0.01413250      -0.02571243       0.17931173        4       1.00000000      -0.03828543       0.00196576       0.29619163
Ni       2.60387181      -0.01918271       0.18637404        4       1.00000000       0.06143895       0.00065184       0.36484713
Ni       5.18167103      -0.03300715       0.14514706        4       1.00000000      -0.01380646      -0.06599961       0.19883721
Ni       7.75584225      -0.05525542       0.14425476        4       1.00000000      -0.06006326      -0.13569657       0.28468835
Pt       1.28800215       2.21957273       0.16737558        4       0.00000000       0.01000875       0.01505754       0.23952445
Pt       3.86709349       2.17316812       0.16566401        4       0.00000000      -0.05513367      -0.02250405       0.23724268
Pt       6.48764681       2.16632701       0.06810287        4       0.00000000       0.02018120      -0.11873658      -0.05508143
Pt       9.06941924       2.26526590       0.08139223        4       0.00000000      -0.01005898       0.08402936       0.12448562
Ni       2.56538304       4.47507947       0.02238464        4       1.00000000      -0.04350028       0.07782588       0.02249043
Pt       5.17524350       4.46516277      -0.00730767        4       0.00000000      -0.04820583       0.05464711      -0.15502163
Ni       7.78615858       4.45843366       0.01863971        4       1.00000000      -0.05896392       0.08225760       0.11523226
Ni      10.36318916       4.48267139      -0.00235671        4       1.00000000      -0.01450003       0.15349255       0.02858303
Ni       3.84502477       6.67616540       0.02759757        4       1.00000000      -0.07950974       0.07932847       0.16952167
Pt       6.50928333       6.70368329       0.04328464        4       0.00000000      -0.00340136       0.04247182      -0.07762159
Ni       9.08101904       6.64678433       0.07075115        4       1.00000000      -0.01505025       0.01261010       0.17776846
Ni      11.67615094       6.64857869      -0.01601477        4       1.00000000       0.04974746      -0.03735709       0.01815761
Ni       1.31430447       0.70846607       2.25036924        3       1.00000000       0.01306278       0.00643836       0.15954768
Ni       3.83430630       0.72967163       2.20626333        3       1.00000000      -0.16028391      -0.01363576       0.06050192
Ni       6.48187581       0.73742703       2.19263779        3       1.00000000       0.11723678      -0.00699770       0.03671025
Pt       9.06570279       0.73186411       2.19871324        3       0.00000000       0.03591827       0.19144428      -0.10513482
Ni       2.58374510       2.90312871       2.27223868        3       1.00000000      -0.01158999      -0.10657800       0.20859456
Ni       5.19100245       2.93452823       2.20549182        3       1.00000000       0.00214868       0.09020235      -0.02013010
Ni       7.74417283       2.94335031       2.20525236        3       1.00000000       0.00554064      -0.06762216       0.00488038
Ni      10.37014206       2.93056026       2.23732933        3       1.00000000       0.02895099      -0.09232242       0.19811281
Pt       3.88851348       5.16034365       2.18881674        3       0.00000000      -0.02036716      -0.02370059      -0.09865023
Ni       6.48441832       5.16205722       2.16718048        3       1.00000000      -0.03420306       0.05078944      -0.02907233
Pt       9.00145851       5.12524202       2.16708372        3       0.00000000      -0.04910548       0.00995192       0.03648607
Pt      11.65480944       5.11815378       2.15415382        3       0.00000000       0.01027360      -0.10397937      -0.00748212
Ni       5.21064199       7.37893011       2.14720609        3       1.00000000       0.06560986      -0.00332695       0.06679114
Ni       7.72955506       7.40075659       2.14752963        3       1.00000000      -0.10420837      -0.00377505       0.09457513
Pt      10.39045457       7.42170687       2.09301625        3       0.00000000       0.05561261      -0.02789155       0.06168696
Ni      12.94580082       7.38357807       2.09354521        3       1.00000000      -0.02375400      -0.05730992      -0.01257863
Ni       0.01445984       1.47548706       4.31575980        2       1.00000000       0.10373645       0.04533029      -0.06623721
Ni       2.53673178       1.47523436       4.28704421        2       1.00000000      -0.05403753       0.04711304      -0.08933832
Pt       5.18790023       1.45025966       4.24056624        2       0.00000000      -0.08174823      -0.03276509       0.05358277
Ni       7.75741024       1.45825616       4.30407686        2       1.00000000       0.00678252      -0.06658309      -0.11277231
Ni       1.28337370       3.68706966       4.32016941        2       1.00000000       0.01872248      -0.00574355      -0.08210167
Ni       3.81526353       3.68905868       4.31397695        2       1.00000000      -0.09865469      -0.00201058      -0.10850665
Pt       6.54397287       3.67519396       4.31327116        2       0.00000000       0.07571904      -0.04491183      -0.10408005
Ni       9.09826945       3.69451100       4.29117437        2       1.00000000       0.18942942       0.02333079      -0.11164695
Ni       2.54134515       5.85172809       4.37703146        2       1.00000000      -0.06784199      -0.04146725      -0.00884412
Pt       5.19079660       5.89040656       4.35338962        2       0.00000000       0.09014365       0.02691128      -0.09138206
Ni       7.76670951       5.86880946       4.30498033        2       1.00000000       0.01820739       0.01109349      -0.09038755
Ni      10.38750446       5.84080380       4.32967262        2       1.00000000       0.08121105      -0.04457708      -0.02012617
Pt       3.83975387       8.08068880       4.25479696        2       0.00000000      -0.08127106      -0.03232623       0.09478429
Ni       6.46700053       8.11316480       4.24716189        2       1.00000000      -0.06694786       0.11796447      -0.14697051
Pt       9.00785663       8.05534240       4.21556974        2       0.00000000      -0.06633468      -0.06642654       0.12889748
Ni      11.65533780       8.05477099       4.25961398        2       1.00000000      -0.02973184      -0.14339918      -0.05736651
Pt      -0.02157427      -0.10786124       6.54751994        1       0.00000000       0.02729278      -0.07387707       0.08707108
Pt       2.56029154      -0.06626175       6.53090544        1       0.00000000      -0.02273503       0.02788888       0.15057687
Pt       5.18870154      -0.06348697       6.54641656        1       0.00000000       0.04426498      -0.02919392       0.02989432
Pt       7.73755546      -0.08724469       6.52552184        1       0.00000000      -0.05681591      -0.08430848       0.16121765
Pt       1.27159479       2.27608887       6.39603899        1       0.00000000       0.04653890       0.08085064      -0.16299228
Pt       3.90050550       2.28753864       6.42497998        1       0.00000000       0.06725690       0.19248323      -0.19189317
Ni       6.46498150       2.21571014       6.42168520        1       1.00000000      -0.01101238       0.02232288      -0.23374342
Pt       9.00173606       2.26936231       6.35365666        1       0.00000000      -0.02186651       0.07968276      -0.33978371
Ni       2.56877414       4.46501025       6.45070134        1       1.00000000       0.01817105       0.15339184      -0.26597002
Ni       5.17702904       4.42627588       6.39565343        1       1.00000000       0.05437465       0.10012544      -0.31554730
Ni       7.72310229       4.40248546       6.46108740        1       1.00000000      -0.14581868       0.01045351      -0.12285886
Ni      10.37920445       4.42495411       6.42516983        1       1.00000000       0.19115370       0.02653214      -0.28223979
Ni       3.84862910       6.53829426       6.47141199        1       1.00000000      -0.03987935      -0.13349485      -0.07858616
Ni       6.46298282       6.55177772       6.39403966        1       1.00000000       0.11835817      -0.05357852      -0.14797341
Pt       9.06445741       6.47615381       6.46082273        1       0.00000000       0.02481658      -0.07358050       0.08933321
Ni      11.67214484       6.54050718       6.41804237        1       1.00000000       0.03677664      -0.10296189      -0.20869402
