64
Lattice="10.269742695960005 0.01593360085261968 -0.015929631291512016 5.148670251092131 8.859394955721573 -0.01628957102773032 0.0 0.0 21.537495862933625" Properties=species:S:1:pos:R:3:tags:I:1:initial_magmoms:R:1:forces:R:3 unique_id=130e0ac90220404ca43aebb14795c611 energy=-372.77003942346755 stress="0.005366588153786812 0.00027772388561716024 -4.382218254336713e-05 0.00027772388561716024 0.005642783692466064 2.8075496979887732e-05 -4.382218254336713e-05 2.8075496979887732e-05 -0.0016315457213328614" pbc="T T T"
Ni      -0.02784833       0.03609714       0.17447173        2       1.00000000      -0.03589711       0.01787307      -0.07827801
Ni       2.56020104       0.01109755       0.17870344        2       1.00000000      -0.05009803       0.04157071      -0.17712269
Ni       5.13512318      -0.00013359       0.12607324        1       1.00000000       0.00894615       0.21585729      -0.44823054
Ni       7.73089454      -0.02900166       0.06830567        1       1.00000000       0.03931076      -0.00762739       0.38047841
Ni       1.24598664       2.21863101       0.07394068        1       1.00000000      -0.05928948       0.00534884       0.41679208
Pt       3.78966688       2.23215660       0.14930451        1       0.00000000       0.02489715       0.00890979      -0.61749754
Pt       6.45407110       2.16880052       0.15138609        2       0.00000000       0.02369885      -0.04266033      -0.48359444
Ni       9.03391326       2.19948616       0.13112576        1       1.00000000       0.01778292      -0.02118796       0.11763231
Ni       2.56755320       4.45745443       0.02847157        0       1.00000000       0.07517167       0.00371642       0.21779125
Ni       5.10804796       4.45361369       0.14362571        1       1.00000000      -0.03413263       0.02294016      -0.00213172
Pt       7.78478998       4.44431614       0.05567344        1       0.00000000       0.01062207      -0.02969665      -0.00097746
Ni      10.30925389       4.43325539       0.02055649        0       1.00000000       0.04939495      -0.08048519       0.25282645
Ni       3.81988740       6.65148893       0.06439846        1       1.00000000      -0.01222345      -0.01701198       0.39613645
Pt       6.38935336       6.69759439       0.13712814        1       0.00000000      -0.07636751       0.03368534      -0.56492248
Ni       9.01759010       6.66593427       0.02010667        0       1.00000000      -0.11570819      -0.02940717       0.05927024
Ni      11.59061077       6.66009108       0.00000000        0       1.00000000       0.12601094       0.00288869       0.16147888
Ni       1.25119537       0.76252495       2.10822883        4       1.00000000      -0.13853299       0.11984924      -0.01905834
Ni       3.84195074       0.75486789       2.16343123        5       1.00000000       0.06699023       0.02965022       0.16407988
Ni       6.44997160       0.75623949       2.19360921        5       1.00000000       0.12789379       0.11887505       0.19886046
Ni       8.98516230       0.76788299       2.12933069        4       1.00000000      -0.04683228       0.07064478       0.10507796
Ni       2.55555345       2.96062521       2.16808536        5       1.00000000      -0.01050117       0.06546475       0.01600845
Ni       5.11779332       2.97603763       2.19359498        5       1.00000000      -0.13456134       0.01951373       0.14888546
Ni       7.75412652       2.94579401       2.18718245        5       1.00000000       0.19469299      -0.05130287       0.14579537
Ni      10.25486609       2.92625555       2.14586696        4       1.00000000       0.00347936      -0.05677773       0.11204670
Ni       3.88776413       5.17076370       2.15948500        5       1.00000000       0.07474761      -0.00549765       0.08800131
Ni       6.40729691       5.17410364       2.17041617        5       1.00000000      -0.02236206       0.05337770       0.10095569
Ni       8.97212602       5.14914919       2.17372268        5       1.00000000      -0.04064460      -0.16415389       0.18284113
Pt      11.60623447       5.12047349       2.10897939        4       0.00000000       0.05914607      -0.06448006       0.01641703
Ni       5.09207432       7.37817302       2.13713364        4       1.00000000      -0.18124416      -0.08314681      -0.05665651
Ni       7.70656145       7.38191920       2.13675999        4       1.00000000       0.04837059      -0.09367524       0.02851527
Pt      10.27076188       7.39601834       2.04922699        3       0.00000000       0.04185204      -0.12388605      -0.11159579
Ni      12.88726829       7.40031565       2.08443481        4       1.00000000       0.05462752      -0.00986921      -0.07501404
Ni      -0.02872020       1.52856948       4.26312660        7       1.00000000      -0.09339286       0.05435273      -0.30452606
Pt       2.51215059       1.57020052       4.19131569        6       0.00000000      -0.07982420       0.01530174       0.01778592
Ni       5.13391260       1.50942287       4.24348009        6       1.00000000      -0.05818279       0.09546982      -0.34984643
Ni       7.73729283       1.50483778       4.23730633        6       1.00000000       0.11321087       0.04920732      -0.32791113
Ni       1.27974916       3.68281921       4.33426180        7       1.00000000      -0.01181479      -0.04914200      -0.04908747
Ni       3.83056953       3.74890563       4.24622802        6       1.00000000      -0.03593628       0.05569104      -0.29138393
Pt       6.43508818       3.71845470       4.18941894        6       0.00000000      -0.01779174      -0.01350895       0.02579603
Ni       8.99573564       3.66918357       4.25715651        7       1.00000000       0.01617096      -0.14526695      -0.32325742
Ni       2.60114576       5.84556881       4.32639885        7       1.00000000       0.07828940      -0.11185516      -0.08781310
Ni       5.09715848       5.87836079       4.23824815        6       1.00000000      -0.07763734      -0.03116049      -0.33206446
Ni       7.71593560       5.86484071       4.25509183        7       1.00000000       0.01528574      -0.02796364      -0.33301747
Pt      10.27577079       5.81114790       4.35013806        8       0.00000000       0.05788169      -0.00872815      -0.01656671
Pt       3.84910581       8.09972445       4.23689386        6       0.00000000       0.01241174       0.03948049      -0.01046034
Pt       6.39521204       8.09744257       4.15760391        6       0.00000000      -0.06088135       0.02223996      -0.19089915
Pt       8.97957923       8.11521623       4.24884762        6       0.00000000      -0.08112390       0.05826299       0.01106538
Pt      11.59739759       8.14478152       4.25675978        7       0.00000000       0.02700007       0.02147452       0.00832829
Pt      -0.06314210      -0.00723684       6.52196982       10       0.00000000       0.03966888       0.07418404       0.17304059
Pt       2.54666630      -0.00034491       6.53749586       10       0.00000000      -0.00434286      -0.00893725       0.45520422
Pt       5.17757881      -0.09378649       6.52486036       10       0.00000000      -0.02801467       0.12047789       0.58633031
Ni       7.70310216      -0.04043350       6.46055141       10       1.00000000       0.00931582       0.01855815      -0.07614444
Ni       1.26408036       2.27633565       6.44436532        9       1.00000000      -0.01514969       0.08048586      -0.22976956
Pt       3.78800878       2.26814439       6.38956953        9       0.00000000       0.20442272      -0.04475462       0.60889662
Pt       6.45574352       2.20105667       6.37397966        9       0.00000000      -0.07744600      -0.02629913       0.60397674
Pt       9.03845922       2.30424469       6.42469422        9       0.00000000       0.00858614       0.02426655      -0.02082788
Ni       2.49774667       4.46643010       6.42310096        9       1.00000000      -0.07967555       0.01703649      -0.30816138
Pt       5.05592372       4.48113259       6.44833489        9       0.00000000      -0.07446139      -0.00024046       0.09062651
Ni       7.75199570       4.45312635       6.35071458        9       1.00000000       0.06299479       0.03618947       0.02347092
Ni      10.30311966       4.44827580       6.44555667        9       1.00000000       0.10350534      -0.01706819      -0.10945556
Ni       3.77625670       6.62976834       6.43858498        9       1.00000000      -0.06844448      -0.01364243      -0.28856715
Pt       6.45807919       6.59178888       6.37220174        9       0.00000000      -0.01937380      -0.06737142       0.52623775
Ni       9.01844534       6.57378570       6.44509206        9       1.00000000       0.00361379      -0.10042612      -0.01144885
Ni      11.59548646       6.59330727       6.44728001        9       1.00000000       0.04189508      -0.06561370      -0.14436202
