64
Lattice="10.491540844886396 -0.004806623809512153 0.004908347836672409 5.241607764117723 9.09467504755916 -0.01914888265493542 0.0040076492266470035 -0.020367557063089337 9.028171016955566" Properties=species:S:1:pos:R:3:tags:I:1:initial_magmoms:R:1:forces:R:3 unique_id=9aa572faf4724ff7ad581df680725109 stress="0.0002941011801406157 3.88587939543815e-07 3.7216509760050935e-06 3.88587939543815e-07 0.0002959259093884281 1.0269351170276987e-05 3.7216509760050935e-06 1.0269351170276987e-05 0.0002442455337187538" energy=-409.67921270957464 pbc="T T T"
Ni      -0.01881479       0.02647474       0.04718138        4       1.00000000      -0.06356837      -0.00308225      -0.00101547
Ni       2.61724262      -0.00007363       0.14899166        4       1.00000000       0.02759218      -0.09479926       0.21841087
Pt       5.29226880       0.03472373      -0.00399174        4       0.00000000       0.07363440       0.02881834      -0.11983899
Ni       7.88288962       0.03115046       0.13621878        4       1.00000000       0.02333301       0.08454848       0.14079685
Pt       1.29233517       2.23316803      -0.02085520        4       0.00000000      -0.00123753      -0.10619586      -0.22419916
Ni       3.92663227       2.27474820       0.15086870        4       1.00000000      -0.01184613      -0.00880203       0.23285812
Ni       6.60102199       2.27141944       0.13625798        4       1.00000000       0.12496671       0.00324816       0.19775329
Ni       9.15965270       2.26886570       0.05580001        4       1.00000000      -0.04415884       0.02278291      -0.02804044
Ni       2.60606601       4.54532897       0.13322982        4       1.00000000      -0.05914648      -0.00557055       0.09449108
Pt       5.26951064       4.47660409       0.09814447        4       0.00000000       0.04387520      -0.06052610      -0.09274115
Ni       7.87844827       4.51054656       0.07042801        4       1.00000000       0.02378196      -0.02372584       0.03097553
Pt      10.47966210       4.51259788       0.07997850        4       0.00000000      -0.03511011      -0.08107719      -0.08570972
Pt       3.86510774       6.85865759       0.06593240        4       0.00000000      -0.05902420       0.00114695      -0.18803703
Pt       6.56325876       6.82996891       0.09430685        4       0.00000000      -0.01450884      -0.03553949      -0.10393584
Pt       9.19674303       6.79358436      -0.01005748        4       0.00000000       0.01635322      -0.01073344      -0.14615779
Ni      11.79587473       6.80195367       0.12428698        4       1.00000000      -0.05459999      -0.07457640       0.12296308
Pt       1.28332069       0.78447663       2.25464709        3       0.00000000       0.02011829       0.01046986       0.02771343
Pt       3.92977714       0.74145403       2.24021871        3       0.00000000       0.05485458      -0.06771867       0.09422652
Pt       6.58968343       0.77030751       2.28636360        3       0.00000000      -0.00558237       0.03031842       0.08565784
Pt       9.19907168       0.84147126       2.22744008        3       0.00000000       0.03016829       0.09282741       0.00284766
Pt       2.55800392       3.07890042       2.24526856        3       0.00000000      -0.04642656      -0.02800836       0.00644331
Pt       5.28503500       3.05863160       2.31701089        3       0.00000000      -0.00320269       0.03645108       0.16073411
Pt       7.93673930       3.13369945       2.29297674        3       0.00000000       0.02005091       0.05050209       0.02495670
Ni      10.47569198       3.07609668       2.28342187        3       1.00000000      -0.02216889       0.07478383      -0.01342256
Pt       3.90520967       5.28180466       2.26940889        3       0.00000000      -0.06063788       0.03345777      -0.01723372
Ni       6.60961547       5.27788225       2.27952613        3       1.00000000       0.06775144      -0.01637612      -0.00643841
Ni       9.19900100       5.26454330       2.31421519        3       1.00000000       0.11009740      -0.02714988       0.11290810
Ni      11.74471565       5.26428638       2.25116952        3       1.00000000      -0.10270079      -0.06004198       0.02185626
Pt       5.23749547       7.57177909       2.26107387        3       0.00000000      -0.02533229       0.04606589       0.01489018
Pt       7.89041940       7.46488710       2.31137312        3       0.00000000       0.01217212      -0.09044479       0.07397552
Pt      10.49820786       7.45964577       2.31227671        3       0.00000000      -0.01395699      -0.02408413       0.02796185
Pt      13.06488294       7.56348681       2.25164070        3       0.00000000      -0.01284075       0.02351095       0.05104544
Ni      -0.06058397       1.55388258       4.53440293        2       1.00000000      -0.12662964       0.06621867      -0.05727534
Pt       2.60173263       1.55803609       4.51203685        2       0.00000000       0.04443514       0.03958802       0.03779536
Pt       5.32700503       1.52447870       4.52744972        2       0.00000000       0.07521307       0.07632105       0.10696014
Ni       7.91484530       1.57128080       4.50386715        2       1.00000000       0.07329381       0.17975019      -0.01132434
Pt       1.15105399       3.78297679       4.47924439        2       0.00000000      -0.12107158      -0.01026541      -0.05647303
Ni       3.92724419       3.77031254       4.49047482        2       1.00000000      -0.09953405       0.01320224       0.00133308
Ni       6.64881936       3.78086453       4.48143829        2       1.00000000       0.19048082      -0.01538821      -0.00386501
Ni       9.13957862       3.78983607       4.51604164        2       1.00000000      -0.08908458      -0.00774095       0.02764456
Pt       2.53168182       6.03996274       4.45342501        2       0.00000000      -0.10971316      -0.03696237      -0.01412692
Pt       5.32229087       5.96379410       4.41726855        2       0.00000000       0.05040128      -0.02685359      -0.15319434
Ni       7.92678661       5.95413137       4.47773955        2       1.00000000       0.09930041      -0.18872321      -0.11461608
Ni      10.42858525       5.99907078       4.48993933        2       1.00000000      -0.14847475      -0.10647159      -0.04078218
Pt       3.89528250       8.43597233       4.47453323        2       0.00000000      -0.04602594       0.09046510      -0.05488599
Pt       6.54518516       8.35209245       4.49639616        2       0.00000000      -0.02674778       0.06449043       0.02393028
Pt       9.23444542       8.23498208       4.55167249        2       0.00000000      -0.04120049       0.01298866       0.01870289
Ni      11.80095245       8.32929322       4.50538259        2       1.00000000       0.02676680       0.02289263       0.02059008
Ni       0.00401802       0.05020066       6.69897199        1       1.00000000      -0.00027007       0.11673852      -0.09500412
Pt       2.61581717      -0.01122099       6.77298925        1       0.00000000      -0.02329073       0.01984362       0.18042749
Ni       5.25959662      -0.01815102       6.61463669        1       1.00000000       0.07491746       0.07286473      -0.14414692
Pt       7.88945889       0.03758034       6.73528502        1       0.00000000       0.05522472       0.02958382       0.12836966
Ni       1.23208449       2.24761422       6.59871186        1       1.00000000      -0.16486840       0.00918698      -0.25613414
Pt       3.93730645       2.23474040       6.75481192        1       0.00000000       0.05315763       0.02218586       0.19445817
Pt       6.67849481       2.30168727       6.72120587        1       0.00000000       0.20627025       0.14423656       0.16188519
Ni       9.22799848       2.27982800       6.66277967        1       1.00000000       0.13801021       0.07726403      -0.17216619
Pt       2.53684084       4.49298506       6.72166890        1       0.00000000      -0.14068765      -0.03347387       0.07353935
Pt       5.29107442       4.50216670       6.59824007        1       0.00000000      -0.02878164      -0.03368002      -0.03186179
Ni       7.94632194       4.52098631       6.64268011        1       1.00000000       0.16657563      -0.00639584      -0.17019851
Ni      10.41949744       4.50887234       6.61350030        1       1.00000000      -0.16198379      -0.01519104      -0.11231438
Pt       3.95423656       6.83952801       6.61139452        1       0.00000000       0.05017511      -0.00154971      -0.07406266
Pt       6.65256783       6.76062388       6.61372214        1       0.00000000       0.11095788      -0.10082672      -0.00888822
Ni       9.18310847       6.74156450       6.58981736        1       1.00000000      -0.02798498      -0.21252972      -0.19656000
Pt      11.68008338       6.81367652       6.69125493        1       0.00000000      -0.07153102       0.01775132       0.07554845
