64
Lattice="10.021230578183758 0.0057739750310266055 -0.005346756289486889 5.015615698149562 8.660899864292798 0.0013574087959903737 -0.004365608229419869 0.003800262372414701 8.547499723295008" Properties=species:S:1:pos:R:3:tags:I:1:initial_magmoms:R:1:forces:R:3 unique_id=8a5a82fe8a7146df9dc00fc680b13f0a stress="-0.0006509712255294703 -1.8893224527133821e-06 4.175410050287563e-06 -1.8893224527133821e-06 -0.0006525637936066059 2.677237664211825e-06 4.175410050287563e-06 2.677237664211825e-06 -0.0005834147575175391" energy=-382.84456796411877 pbc="T T T"
Ni       0.00558608       0.00728305       0.10710678        4       1.00000000       0.00799623       0.03207551       0.13176489
Ni       2.47573979      -0.02834302       0.10377376        4       1.00000000      -0.03352514      -0.01097897       0.13575155
Ni       5.00799315      -0.01788378       0.04934467        4       1.00000000      -0.02991877      -0.03504099       0.08267032
Ni       7.54727576       0.02476745       0.05102399        4       1.00000000       0.08943218       0.05325291       0.07901253
Ni       1.20779877       2.16726754       0.10764629        4       1.00000000      -0.05568446       0.00645047       0.09764168
Pt       3.74505266       2.17469737       0.05963463        4       0.00000000      -0.03125483       0.01289391      -0.10855502
Ni       6.31041077       2.21258790       0.04230345        4       1.00000000       0.06006798       0.12553617      -0.00652726
Ni       8.78130924       2.17443235       0.10002972        4       1.00000000       0.04538133       0.01854986       0.08002266
Ni       2.48094792       4.36255165       0.09854566        4       1.00000000      -0.05519926       0.03316536       0.08855681
Ni       5.01730734       4.36095429       0.06497851        4       1.00000000       0.01099602       0.03738954       0.00441640
Ni       7.54358565       4.32562488       0.07046029        4       1.00000000       0.04846032      -0.00256692       0.02572690
Ni      10.02177743       4.32600200       0.09753215        4       1.00000000      -0.00593488      -0.02023254       0.07043370
Ni       3.80401658       6.47860071       0.04882942        4       1.00000000       0.11799941      -0.02019608       0.05496508
Ni       6.26667711       6.52077546       0.06516961        4       1.00000000      -0.00671087       0.02042791      -0.03149067
Ni       8.73233566       6.47057525       0.04623859        4       1.00000000      -0.11412743      -0.07174492       0.01942942
Ni      11.27443333       6.46708141       0.03457762        4       1.00000000      -0.03578653      -0.07385320       0.00191069
Ni       1.26598567       0.72782912       2.11577567        3       1.00000000       0.04166626       0.05906146       0.03179146
Ni       3.69270260       0.75104484       2.16704085        3       1.00000000      -0.04882052       0.10495014      -0.00847787
Pt       6.26270662       0.81598063       2.12441341        3       0.00000000      -0.00574761       0.18163111      -0.08793669
Ni       8.82266679       0.76381595       2.10394289        3       1.00000000       0.03749784       0.02125398       0.04755233
Ni       2.48165169       2.89793402       2.18640049        3       1.00000000      -0.01756367      -0.04730381       0.01613179
Ni       4.96905730       2.92173710       2.19044931        3       1.00000000      -0.09924342      -0.04589414       0.01929633
Ni       7.56155834       2.90985906       2.11747102        3       1.00000000       0.02743503      -0.03719862      -0.01155850
Ni      10.04095610       2.89997789       2.10196131        3       1.00000000       0.04426803       0.00039325       0.03600084
Ni       3.74784992       4.98959876       2.15571805        3       1.00000000      -0.04833509      -0.05952082       0.03872870
Pt       6.26258294       5.05630439       2.15909000        3       0.00000000      -0.00445988      -0.00770424      -0.01677954
Ni       8.77751453       5.01212931       2.10942241        3       1.00000000       0.02564935       0.00165420      -0.03265113
Ni      11.27643145       4.97649133       2.14766951        3       1.00000000      -0.01930790      -0.05907207       0.08961165
Ni       5.06527946       7.25055665       2.11968951        3       1.00000000       0.01084111       0.04017425       0.00235664
Ni       7.46711734       7.24926449       2.12143790        3       1.00000000      -0.01141902       0.01950626       0.01511608
Pt       9.95996153       7.16115999       2.09216439        3       0.00000000      -0.12583961      -0.12322815      -0.11976593
Pt      12.59128776       7.15812417       2.08160033        3       0.00000000       0.10920759      -0.13976766      -0.13359748
Pt       0.07366643       1.46520705       4.24835714        2       0.00000000       0.08391028      -0.01800517       0.06442214
Ni       2.53488191       1.50624728       4.25090616        2       1.00000000       0.03698553       0.10645352      -0.07572582
Ni       4.99201791       1.51967941       4.27297261        2       1.00000000      -0.01303532       0.03771703      -0.08401194
Ni       7.49184507       1.48842670       4.28883053        2       1.00000000       0.04076213       0.02080540       0.00557496
Ni       1.31171754       3.64309015       4.26135815        2       1.00000000       0.01346518       0.02311119      -0.00454763
Ni       3.75560010       3.61940721       4.25457982        2       1.00000000      -0.00558774       0.03640664      -0.07782655
Ni       6.21171109       3.60458777       4.28728482        2       1.00000000      -0.02499670      -0.04396885      -0.02359948
Pt       8.73955222       3.66571437       4.25493385        2       0.00000000      -0.01781714       0.07573974       0.04656946
Ni       2.51644365       5.69146968       4.28186257        2       1.00000000       0.04717114      -0.03814509      -0.05568636
Ni       5.02407136       5.71725811       4.29056914        2       1.00000000      -0.05048179      -0.09088874      -0.00401425
Ni       7.47019469       5.78364667       4.28979721        2       1.00000000      -0.04652828       0.00680272       0.01292421
Ni      10.04563343       5.74836082       4.28476312        2       1.00000000       0.02352193      -0.03233391      -0.01211345
Pt       3.81995740       7.88292007       4.29903765        2       0.00000000       0.06440147      -0.03141834       0.07907258
Ni       6.27067351       7.90533914       4.26111560        2       1.00000000      -0.00551960      -0.03014431      -0.04438845
Pt       8.68927817       7.95997391       4.29286070        2       0.00000000      -0.11204118       0.04842275       0.09611461
Pt      11.26719753       7.94058228       4.33506928        2       0.00000000       0.03773927       0.01393318       0.15415137
Ni       0.02379648      -0.00638908       6.38286746        1       1.00000000       0.04967097      -0.00678029       0.06699066
Ni       2.47098758       0.01971206       6.35892730        1       1.00000000      -0.06895283       0.06570513       0.02541125
Ni       4.99309682       0.03488568       6.36321331        1       1.00000000      -0.05419456       0.08863467      -0.03481749
Ni       7.52128377       0.03119754       6.36757862        1       1.00000000       0.03160843       0.02919449      -0.02120225
Ni       1.27918658       2.18812782       6.34874693        1       1.00000000       0.08642382       0.08652797       0.02730063
Ni       3.75731963       2.18205852       6.22042321        1       1.00000000       0.01441585       0.06281133      -0.23353077
Ni       6.25421045       2.18100895       6.30351877        1       1.00000000      -0.03893814       0.02154278      -0.12673655
Ni       8.75144767       2.16972699       6.36186948        1       1.00000000       0.00546468       0.02924637       0.03753496
Ni       2.51160860       4.32895693       6.31247626        1       1.00000000       0.06814151      -0.05973781      -0.01443378
Ni       5.00692147       4.33112693       6.30527078        1       1.00000000      -0.03456706      -0.06460444      -0.04762393
Ni       7.48220806       4.34746928       6.34183980        1       1.00000000      -0.10967945       0.00913669      -0.01772035
Ni      10.04356277       4.34519274       6.34413600        1       1.00000000       0.05053722      -0.03623253       0.01880826
Ni       3.76199608       6.45043754       6.34780728        1       1.00000000      -0.00131929      -0.14420441      -0.07730352
Ni       6.26026365       6.49006723       6.31489927        1       1.00000000      -0.03922469      -0.01472816      -0.07538383
Ni       8.76384126       6.47229656       6.33778797        1       1.00000000      -0.00245037      -0.07256813      -0.10958349
Ni      11.27826866       6.45840935       6.34257568        1       1.00000000       0.04309492      -0.09249455      -0.10617358
