64
Lattice="10.080464620706609 0.002052456248428663 -0.016234813076115562 5.042009789604602 8.71418885711344 -0.03809799428511694 -0.01325566936864915 -0.028265969199871687 8.634749789993412" Properties=species:S:1:pos:R:3:tags:I:1:initial_magmoms:R:1:forces:R:3 unique_id=a1868bf11d444be988dffb21a1c9ddc1 stress="-5.064715919170237e-05 6.486798061109465e-07 4.730764356273776e-06 6.486798061109465e-07 -5.0336497983687056e-05 -1.0261348355787864e-05 4.730764356273776e-06 -1.0261348355787864e-05 -2.422024916338278e-05" energy=-388.4647878393186 pbc="T T T"
Ni       0.03470505      -0.04407744       0.18299670        4       1.00000000       0.07440666      -0.03059132       0.24959497
Ni       2.50156795      -0.03497720       0.19133853        4       1.00000000      -0.01357409      -0.06181635       0.20358070
Ni       5.05507763      -0.02031918       0.08231308        4       1.00000000      -0.01966847      -0.05711376       0.04676464
Ni       7.52453048      -0.04505533       0.16666676        4       1.00000000      -0.02138217      -0.09433106       0.24460987
Ni       1.26154028       2.18806553       0.10947260        4       1.00000000      -0.00712314       0.01401193       0.20319021
Pt       3.77129967       2.18008295       0.16982233        4       0.00000000      -0.02694898      -0.05008191       0.32385025
Ni       6.29431185       2.18325819       0.09356586        4       1.00000000      -0.00916593       0.03698836       0.19481652
Pt       8.82224438       2.22386898      -0.00063004        4       0.00000000       0.00447891      -0.01705023      -0.28211493
Ni       2.49725790       4.39162496       0.08863134        4       1.00000000      -0.01853075       0.02106485       0.12875991
Ni       5.03428749       4.38289096       0.05033624        4       1.00000000      -0.07239973       0.03743345       0.05176898
Ni       7.55326677       4.38827221       0.04896724        4       1.00000000      -0.00299548       0.07838432       0.07841230
Ni      10.10855197       4.39578130       0.07483146        4       1.00000000       0.03816387       0.11154935       0.13961724
Ni       3.77783694       6.51839239       0.07860459        4       1.00000000       0.01115967      -0.04767939       0.10301030
Ni       6.29188346       6.55131986       0.04533873        4       1.00000000      -0.03233856       0.04978506      -0.04123519
Ni       8.79816774       6.51735099       0.12546651        4       1.00000000      -0.11712378      -0.04600453       0.22314248
Ni      11.35974163       6.51772457       0.03968275        4       1.00000000       0.02313624      -0.04499596      -0.02288357
Ni       1.29439932       0.72446678       2.17940797        3       1.00000000      -0.00877585       0.06357792       0.10652152
Ni       3.73645010       0.70318377       2.18252510        3       1.00000000      -0.08410014      -0.01039705      -0.02245824
Ni       6.28926833       0.74042266       2.12432974        3       1.00000000       0.00670880       0.01600229      -0.04237403
Pt       8.82678977       0.73640015       2.16912984        3       0.00000000       0.01731720       0.13375126      -0.09540674
Ni       2.49529842       2.91310226       2.18839465        3       1.00000000       0.07518578      -0.01439572      -0.00440328
Ni       5.03932099       2.90880505       2.17143602        3       1.00000000      -0.08542192       0.05071788      -0.04075135
Ni       7.55609184       2.90971415       2.15938584        3       1.00000000       0.06004374       0.03319216      -0.01320817
Ni      10.10303869       2.93390063       2.14605157        3       1.00000000      -0.02720318       0.02802152      -0.06333316
Ni       3.73959268       5.07303976       2.14360604        3       1.00000000      -0.01871104      -0.02547385       0.03556830
Pt       6.29766740       5.11041769       2.11095699        3       0.00000000       0.01160380       0.06506293      -0.04178405
Ni       8.83946431       5.04408385       2.14471113        3       1.00000000       0.03431524      -0.07127867       0.07998698
Ni      11.35822594       5.06134266       2.11183953        3       1.00000000       0.02067659      -0.00211167      -0.00224125
Ni       5.05181446       7.24615054       2.11419879        3       1.00000000      -0.02286199       0.01118843       0.02427800
Ni       7.53908017       7.28794843       2.14519315        3       1.00000000      -0.02117297       0.01090432       0.09052374
Pt      10.08510374       7.24442215       2.13920307        3       0.00000000       0.01028481      -0.03011972      -0.03961843
Ni      12.60300927       7.19742319       2.09624702        3       1.00000000       0.04278840      -0.11514981       0.00965865
Ni       0.00876375       1.45187405       4.28515541        2       1.00000000       0.06217224      -0.06987492      -0.04589054
Ni       2.47578477       1.41535101       4.22253100        2       1.00000000       0.01537332      -0.05687309      -0.04706462
Pt       5.03790646       1.37366183       4.20632803        2       0.00000000      -0.06393524      -0.04254788       0.09299279
Ni       7.58084433       1.45739322       4.27580095        2       1.00000000       0.01808042      -0.05202943      -0.06066933
Pt       1.25107302       3.62808699       4.26754345        2       0.00000000       0.02988322      -0.03623313       0.02179839
Ni       3.76522602       3.68151173       4.22829122        2       1.00000000       0.03207248       0.05486300      -0.14929879
Pt       6.32300711       3.64848465       4.30754281        2       0.00000000       0.04007702      -0.00825863       0.04230708
Ni       8.82703371       3.63736931       4.25984942        2       1.00000000       0.02166068       0.10967810      -0.19726229
Ni       2.50840355       5.77901413       4.26970676        2       1.00000000      -0.02541758      -0.04851981      -0.14693643
Ni       5.02922423       5.79019538       4.28778007        2       1.00000000       0.01935514      -0.01713464      -0.08481303
Ni       7.57122884       5.82728540       4.24744886        2       1.00000000       0.08252242       0.04035445      -0.08571852
Ni      10.07724325       5.79457845       4.24110999        2       1.00000000      -0.03616653      -0.06373747      -0.06589125
Pt       3.77058316       7.90317681       4.21784593        2       0.00000000      -0.01129300       0.00152089       0.12403693
Ni       6.32725666       7.95230440       4.19767730        2       1.00000000      -0.00968654      -0.01464485      -0.07000144
Ni       8.79566138       7.93840040       4.21995651        2       1.00000000      -0.07465614      -0.08618469      -0.00947906
Ni      11.31633803       7.91456613       4.24656739        2       1.00000000       0.02852740      -0.12128116       0.00950981
Pt      -0.01695466      -0.01154307       6.43944248        1       0.00000000       0.01684736       0.01069832       0.12977130
Pt       2.53392542      -0.02346320       6.39043482        1       0.00000000      -0.04282335       0.02641235       0.07147242
Ni       5.03383722      -0.03380397       6.38490837        1       1.00000000      -0.05390620      -0.01643145      -0.16043408
Pt       7.47138667      -0.01496295       6.42748687        1       0.00000000      -0.12401785       0.01516628       0.13766496
Ni       1.22099237       2.21005457       6.38601199        1       1.00000000      -0.00875816       0.01843666      -0.03967682
Pt       3.77880365       2.26213818       6.32774517        1       0.00000000       0.01221586       0.20379610      -0.34810279
Ni       6.31766849       2.19947290       6.39645839        1       1.00000000       0.01474212       0.09166471       0.00665106
Ni       8.81012506       2.22494253       6.24467353        1       1.00000000      -0.00272141       0.06976015      -0.44450015
Ni       2.50009210       4.39938723       6.38189159        1       1.00000000      -0.01213268       0.12958077      -0.04406209
Ni       5.04090367       4.40039956       6.37764697        1       1.00000000       0.01451813       0.15415955      -0.06990173
Ni       7.55466782       4.31818840       6.38191418        1       1.00000000       0.05566707      -0.03269984      -0.04374409
Ni      10.08798274       4.30777063       6.36947097        1       1.00000000       0.03884422      -0.08976296      -0.01903780
Ni       3.77054166       6.44785218       6.37101226        1       1.00000000      -0.00878075      -0.02689133      -0.03581306
Ni       6.27028830       6.45390783       6.34304736        1       1.00000000       0.04603853       0.00037922      -0.20893981
Pt       8.85323460       6.43546510       6.36381352        1       0.00000000       0.06703047      -0.09832296       0.09714587
Ni      11.35532896       6.47007644       6.33650092        1       1.00000000       0.03789582      -0.08808734      -0.18195606
