64
Lattice="10.454024373884613 0.03746647494294005 -0.09883949696930569 5.259459106033142 9.081109617421196 -0.010207927582840223 0.0 0.0 21.77966674465719" Properties=species:S:1:pos:R:3:tags:I:1:initial_magmoms:R:1:forces:R:3 unique_id=01c19359ae5743e1bcb90b6b7fb6ada1 energy=-385.95633235573564 stress="0.003683903712918983 0.00026230749923938245 -0.0006654899083560902 0.00026230749923938245 0.0037883077298108293 0.00028228348069378754 -0.0006654899083560902 0.00028228348069378754 -0.0037319681265518146" pbc="T T T"
Pt       0.02895861      -0.01877696       0.09013664        1       0.00000000      -0.02988841       0.12492798      -0.17147191
Ni       2.60715607       0.01316454       0.08915545        1       1.00000000      -0.06146295      -0.07834383       0.15961776
Pt       5.15827737       0.02882021       0.01314710        0       0.00000000       0.07283600      -0.04998371      -0.06282731
Pt       7.81593528      -0.05932319       0.11788326        1       0.00000000      -0.07204901      -0.04250441      -0.50215623
Pt       1.38902430       2.23633505       0.20536414        2       0.00000000      -0.10392122      -0.00639295      -0.58075406
Ni       3.91862047       2.29204980       0.10574082        1       1.00000000       0.04550665       0.10788681       0.19244961
Pt       6.48664528       2.31216406       0.03444280        0       0.00000000      -0.06852889      -0.15209343      -0.07638497
Pt       9.12453829       2.33084176       0.00000000        0       0.00000000       0.08590511      -0.09211084      -0.16973644
Pt       2.63802867       4.62114727       0.21848189        2       0.00000000      -0.13586301       0.19282604      -0.47640841
Pt       5.22196568       4.55875827       0.14061843        1       0.00000000      -0.07166874       0.07076824       0.18510640
Ni       7.84090799       4.58094099       0.15606504        2       1.00000000      -0.03302885       0.12804961      -0.07035203
Pt      10.45654249       4.62339450       0.13656249        1       0.00000000       0.10772096       0.07208854      -0.49507561
Ni       3.91812092       6.80362709       0.22033329        2       1.00000000      -0.02515721      -0.00758051      -0.22864077
Pt       6.55331621       6.79458516       0.05586268        1       0.00000000      -0.06610779      -0.13631560      -0.08191750
Pt       9.15037965       6.84095800       0.03590618        0       0.00000000       0.05750457      -0.03140544       0.04113166
Ni      11.79085914       6.84273025       0.13850641        1       1.00000000      -0.11273007       0.05018953       0.02221591
Ni       1.29423265       0.75129501       2.34202904        4       1.00000000       0.01062422      -0.10470639       0.27016608
Pt       3.87526443       0.78135450       2.27508610        4       0.00000000      -0.03886266      -0.02121071      -0.00322907
Pt       6.52192206       0.78135318       2.35721697        5       0.00000000      -0.02760056       0.03813968       0.23897686
Pt       9.16032793       0.81076769       2.30350287        4       0.00000000       0.05658060       0.06397893       0.17620659
Pt       2.67954562       3.10812214       2.37328925        5       0.00000000       0.12409752       0.10806698       0.16314961
Ni       5.21156920       3.08916924       2.30900187        4       1.00000000       0.07711045       0.04591297       0.23368317
Pt       7.79963195       3.15085056       2.29959011        4       0.00000000      -0.05806060       0.07927256       0.01255928
Pt      10.44305525       3.10072559       2.30900522        4       0.00000000       0.04554448       0.07339557       0.23440447
Ni       3.93099943       5.31171461       2.33470814        4       1.00000000       0.10605066       0.00135976       0.32710628
Ni       6.52454124       5.30808256       2.29624039        4       1.00000000      -0.03934176       0.02492205       0.23058513
Ni       9.13363003       5.33683915       2.32226894        4       1.00000000      -0.02287867      -0.00340750       0.37770911
Ni      11.77259816       5.36624315       2.24403204        3       1.00000000      -0.01568365      -0.00904240       0.24487551
Pt       5.19411896       7.51174926       2.30661739        4       0.00000000      -0.04122720      -0.01777086       0.10588756
Pt       7.84934493       7.53408007       2.35913870        5       0.00000000      -0.00619027      -0.07225354       0.14990241
Pt      10.50828529       7.51476067       2.35274254        5       0.00000000      -0.01310231      -0.05130215       0.19318698
Ni      13.06697099       7.54803233       2.22110771        3       1.00000000       0.00927374      -0.12547400       0.14635608
Ni      -0.07083471       1.54193357       4.57094456        8       1.00000000      -0.08569803       0.07031053      -0.21137562
Pt       2.60333610       1.51335470       4.53838903        7       0.00000000       0.11364937      -0.00241190      -0.17330585
Pt       5.21953194       1.51544186       4.57162396        8       0.00000000       0.06784683      -0.05552439      -0.11666509
Ni       7.83507726       1.59396271       4.49050900        7       1.00000000       0.12579851       0.12144457      -0.23972201
Pt       1.23466297       3.82797071       4.52417192        7       0.00000000      -0.00670442       0.01599772      -0.17721686
Ni       3.92241193       3.80010024       4.52221841        7       1.00000000       0.05437128      -0.03790139      -0.14881763
Pt       6.52923442       3.80213110       4.48892169        7       0.00000000       0.04145062      -0.07915571      -0.21359264
Ni       9.09998623       3.83505641       4.46333458        7       1.00000000      -0.03267971       0.04426129      -0.30989883
Pt       2.54871571       6.09599929       4.43348229        6       0.00000000      -0.05791068       0.08015283      -0.27375873
Pt       5.23728663       6.02811018       4.51613650        7       0.00000000       0.00423056       0.02496374      -0.15593772
Ni       7.88103151       6.07794895       4.49670596        7       1.00000000       0.15497707      -0.12247237      -0.20487996
Ni      10.37134356       6.12238205       4.45650662        7       1.00000000      -0.14665273       0.00072940      -0.15620220
Pt       3.88626066       8.38679759       4.54258485        7       0.00000000       0.07520269      -0.05047127      -0.18795143
Pt       6.57636052       8.33936287       4.58459281        8       0.00000000       0.01318463      -0.06733929      -0.09055572
Ni       9.16659270       8.31178798       4.53585859        7       1.00000000       0.06968597      -0.11173996      -0.09175205
Ni      11.71250083       8.36031287       4.46855560        7       1.00000000      -0.07115461      -0.06852432      -0.17312431
Ni      -0.03335164       0.02495484       6.65273887       11       1.00000000       0.00741029      -0.00192489       0.14170594
Ni       2.59865549       0.00129896       6.70502071       11       1.00000000       0.12189915      -0.08757372      -0.34199775
Ni       5.12036249       0.04634956       6.59408385       10       1.00000000      -0.07179088      -0.09458793       0.08217165
Pt       7.75445699       0.14914625       6.57655058       10       0.00000000      -0.19273156       0.03734125       0.51881691
Pt       1.24381683       2.18689870       6.68144631       11       0.00000000      -0.08129259      -0.06969505       0.70206967
Ni       3.91427397       2.26677212       6.70869283       11       1.00000000       0.06237194      -0.02655139      -0.32087182
Ni       6.47805540       2.32775196       6.60411859       10       1.00000000       0.00754351       0.03939417       0.09494515
Ni       9.08565886       2.31640208       6.53765771        9       1.00000000      -0.02649979       0.06261923      -0.09262166
Pt       2.65452207       4.51176178       6.67475762       11       0.00000000       0.15422429      -0.07240921       0.60406980
Ni       5.20723565       4.53600073       6.64543049       10       1.00000000      -0.06227978      -0.09246477      -0.01042092
Pt       7.75563088       4.60908129       6.68275467       11       0.00000000       0.09839129       0.11113059      -0.02019611
Pt      10.36244893       4.60477636       6.56962438       10       0.00000000      -0.09103553       0.05104844       0.57347285
Pt       3.96943690       6.84464590       6.77966674       12       0.00000000      -0.02714065       0.06004752       0.18045635
Ni       6.54550497       6.85674023       6.63115284       10       1.00000000       0.12212414      -0.00489029       0.18320885
Ni       9.08574381       6.89672559       6.56444542       10       1.00000000      -0.09043962       0.06519966      -0.09628609
Pt      11.66332487       6.91901097       6.63774147       10       0.00000000      -0.00575269       0.08110992      -0.06008834
