64
Lattice="10.291899638562919 0.022920888314170086 -0.032360384527844004 5.165799890838833 8.869612911238121 -0.09340057022857498 0.0 0.0 21.653491061752792" Properties=species:S:1:pos:R:3:tags:I:1:initial_magmoms:R:1:forces:R:3 unique_id=3eb1a35ff7174ddd9b5cb92b81192c3b energy=-373.50200558229324 stress="0.005392626295432068 6.061269853950058e-05 -0.00020241557597447575 6.061269853950058e-05 0.004843930982371459 -0.0005373767802456635 -0.00020241557597447575 -0.0005373767802456635 -0.002131924188750944" pbc="T T T"
Ni       0.00251772       0.00914238       0.24371108        2       1.00000000       0.09441972       0.01943718      -0.34287703
Ni       2.57118628      -0.00386688       0.26166351        3       1.00000000       0.01719658       0.01546921      -0.23011250
Ni       5.14901117      -0.02096240       0.12146811        1       1.00000000      -0.00029578       0.11322648       0.15511070
Ni       7.72183971      -0.01574839       0.09417895        1       1.00000000      -0.02311877       0.04140293       0.09871679
Ni       1.25742862       2.21667640       0.22901815        2       1.00000000      -0.05581182       0.04926621       0.02196750
Pt       3.81488351       2.21710492       0.22441178        2       0.00000000      -0.00910924      -0.00616189      -0.66700095
Pt       6.48617405       2.21917405       0.20795420        2       0.00000000       0.02864097      -0.02139087      -0.52076191
Ni       9.04305945       2.25504605       0.16183559        2       1.00000000       0.03006738       0.16127021      -0.07312968
Ni       2.57516526       4.44975376       0.08667623        1       1.00000000      -0.03368991      -0.03779984       0.24893097
Ni       5.12562541       4.44912664       0.07948269        1       1.00000000      -0.08890448      -0.09961240       0.08858980
Ni       7.77792399       4.43463597       0.07524559        1       1.00000000       0.18190104      -0.03027891       0.19656761
Ni      10.28798866       4.43197576       0.06433451        1       1.00000000      -0.08275754      -0.05845575       0.33302023
Ni       3.86064058       6.62796268       0.05257751        1       1.00000000       0.06905557      -0.07315037       0.13375755
Pt       6.44222387       6.67577727       0.03196256        0       0.00000000       0.03380587       0.17560891      -0.27813544
Ni       9.02127058       6.63603385       0.11941159        1       1.00000000      -0.13479396      -0.18829541      -0.27843150
Ni      11.59330809       6.65141952       0.00000000        0       1.00000000      -0.06087290      -0.12387617       0.11831611
Ni       1.29014660       0.73933291       2.20008539        5       1.00000000       0.00686937       0.03343772       0.01194362
Ni       3.85360558       0.73385409       2.24909450        5       1.00000000       0.08960670      -0.03863549       0.18936374
Ni       6.40641282       0.75894418       2.27990210        6       1.00000000      -0.04500909       0.06126127       0.28554648
Pt       9.02328162       0.81461159       2.21243676        5       0.00000000      -0.09546068      -0.04285993       0.10090405
Ni       2.54244849       2.93059234       2.22484584        5       1.00000000      -0.11652742      -0.03475802      -0.01728576
Ni       5.13543728       2.92901615       2.25640987        6       1.00000000      -0.01855525      -0.08132758       0.16826546
Ni       7.77185127       2.97071027       2.23081863        5       1.00000000       0.20380663       0.10996302       0.16418125
Ni      10.28601811       2.96175158       2.21162395        5       1.00000000      -0.00526766       0.01601308       0.20182164
Ni       3.86991593       5.12877480       2.15764279        5       1.00000000       0.04803847      -0.12018781      -0.16044767
Pt       6.46800334       5.14487917       2.17335531        5       0.00000000       0.02172832      -0.04339659      -0.05632494
Ni       9.00915598       5.12992372       2.19283653        5       1.00000000       0.04623726      -0.11375754       0.12190073
Pt      11.56682983       5.08854670       2.18655412        5       0.00000000      -0.00935757      -0.00938655       0.05145232
Ni       5.16296052       7.38377565       2.15140202        5       1.00000000      -0.02286855      -0.04685401       0.02982364
Ni       7.72519359       7.40051528       2.15283267        5       1.00000000       0.00896807      -0.01109086       0.11618022
Pt      10.27133589       7.40313454       2.10394696        4       0.00000000      -0.03193356      -0.02781187       0.07158789
Pt      12.89365168       7.37512168       2.09891876        4       0.00000000       0.06151742      -0.02701282      -0.02924934
Ni      -0.03861036       1.50189774       4.38438233        9       1.00000000      -0.05952430       0.17657611      -0.13919489
Pt       2.52089770       1.47937250       4.27744469        8       0.00000000      -0.09074223       0.05727699      -0.07058056
Ni       5.17824842       1.41738260       4.34006792        8       1.00000000       0.04186559      -0.01710567      -0.29030764
Ni       7.70429316       1.45086577       4.35040029        9       1.00000000      -0.00801931       0.08180442      -0.20322166
Ni       1.22235086       3.70338236       4.38828913        9       1.00000000      -0.13095493      -0.00006481      -0.04528885
Pt       3.80263844       3.70730160       4.31619462        8       0.00000000      -0.12225135      -0.01879513      -0.10151702
Pt       6.51176667       3.63726647       4.33490988        8       0.00000000       0.03339587      -0.04041514       0.04945745
Ni       9.04788368       3.69952789       4.33843853        8       1.00000000       0.14374992       0.06153024      -0.18044177
Ni       2.49956865       5.87989586       4.41324810        9       1.00000000      -0.20397310       0.05572226      -0.02912379
Pt       5.11733716       5.88501834       4.39299195        9       0.00000000      -0.04459239       0.06933810      -0.14638787
Ni       7.77563438       5.84904867       4.34558841        8       1.00000000       0.19830275      -0.04942047      -0.20113969
Ni      10.32241852       5.84037882       4.35366435        9       1.00000000       0.00616274      -0.02925126      -0.11863588
Pt       3.76379488       8.12092642       4.36571046        9       0.00000000      -0.04016693       0.07459762       0.09848954
Pt       6.43729736       8.08754719       4.24442864        7       0.00000000      -0.01275789       0.06593722      -0.14276064
Pt       9.08838041       8.07608377       4.30593403        8       0.00000000       0.00880597       0.01594942      -0.02163186
Ni      11.57953464       8.10937963       4.35774068        9       1.00000000      -0.07731636      -0.01193634      -0.06596113
Pt      -0.07460980      -0.11469883       6.65349106       13       0.00000000       0.02086628       0.08759858       0.35044303
Pt       2.58066342      -0.07928848       6.65033742       13       0.00000000       0.03780560      -0.03131447       0.42709052
Ni       5.18675849      -0.07849766       6.55165156       12       1.00000000       0.02327177      -0.02962904      -0.08312615
Ni       7.64484999      -0.08616062       6.55250214       12       1.00000000      -0.04861974      -0.02669089      -0.04174944
Pt       1.26454133       2.27284694       6.57441384       12       0.00000000      -0.01898060      -0.09032645       0.12731006
Pt       3.87475874       2.22417267       6.51122839       11       0.00000000       0.12946806       0.02969273       0.71638111
Pt       6.42662322       2.13891396       6.48292720       11       0.00000000      -0.05709664      -0.03706473       0.63023274
Pt       8.97303594       2.25435255       6.50665519       11       0.00000000       0.01943384       0.00299377       0.01170112
Ni       2.54921547       4.47523754       6.51783086       11       1.00000000      -0.00695294       0.08331609      -0.27486002
Ni       5.13768106       4.44702808       6.53596222       11       1.00000000       0.00883074      -0.07048589      -0.08062096
Ni       7.69847297       4.42725520       6.50487633       11       1.00000000      -0.06338097      -0.01719301      -0.11896199
Ni      10.31237931       4.44204957       6.47337418       11       1.00000000       0.13137272       0.03077214      -0.25729150
Ni       3.80263988       6.56209044       6.51432225       11       1.00000000      -0.08137975      -0.01388146      -0.15761542
Ni       6.42677288       6.55469616       6.42446819       10       1.00000000       0.16973467       0.02188334       0.36493673
Pt       9.05960003       6.52085724       6.50814112       11       0.00000000      -0.01649185      -0.00228489       0.07654650
Ni      11.61054386       6.61909850       6.45273483       11       1.00000000       0.00260960       0.01061506      -0.33636169
