64
Lattice="10.410675833270856 0.013098628019384512 0.017833548666610563 5.216681661254938 8.947925501142018 -0.0005270898542165986 0.0 0.0 21.6236145209203" Properties=species:S:1:pos:R:3:tags:I:1:initial_magmoms:R:1:forces:R:3 unique_id=78b42978c6224097bd00b36444819197 stress="0.006076383825741172 0.00019253388380158467 0.00036189806784418094 0.00019253388380158467 0.005732224583993743 3.459495309663769e-05 0.00036189806784418094 3.459495309663769e-05 -0.0014120688087861915" energy=-379.715536255117 pbc="T T T"
Ni      -0.03067429      -0.00499273       0.13993034        1       1.00000000      -0.12708956       0.02128360       0.15351111
Ni       2.62223511      -0.01448129       0.06460931        1       1.00000000       0.08952531       0.00690082       0.43090065
Ni       5.20946708      -0.01611508       0.11193120        1       1.00000000       0.01601581       0.13931976      -0.27170701
Ni       7.83075025      -0.02915084       0.07355923        1       1.00000000       0.04039524      -0.11542041       0.53748897
Pt       1.28689181       2.20412180       0.09857579        1       0.00000000       0.12482773      -0.14208823      -0.64581953
Pt       3.90377897       2.22950279       0.15021166        2       0.00000000      -0.03559019      -0.03465206      -0.36637566
Pt       6.52047764       2.16435941       0.11189863        1       0.00000000      -0.08144603      -0.20372030      -0.71345560
Ni       9.11980430       2.21704631       0.10685534        1       1.00000000       0.01091825      -0.17076504      -0.00438183
Ni       2.61580080       4.50296059       0.09180262        1       1.00000000       0.00256578      -0.06767183      -0.19897313
Ni       5.20330544       4.48704208       0.11814802        1       1.00000000       0.18719507      -0.05755674      -0.16650864
Pt       7.85777853       4.49713650       0.00000000        0       0.00000000      -0.14717857      -0.01608265      -0.23105689
Ni      10.43196106       4.51328929       0.02405728        0       1.00000000       0.07594799       0.05815757       0.27180999
Ni       3.88825887       6.73475388       0.12747851        1       1.00000000      -0.06794403       0.18369908       0.06064649
Pt       6.49925519       6.77405718       0.16304701        2       0.00000000      -0.07629271       0.03436618      -0.42928818
Ni       9.14385608       6.74573829       0.02803464        0       1.00000000      -0.03002708       0.03680911       0.29281550
Ni      11.73414496       6.73564185       0.03338939        0       1.00000000       0.14793807       0.10174926       0.31668042
Ni       1.32706506       0.71099778       2.19385678        4       1.00000000       0.12614289      -0.06596850       0.05910410
Ni       3.88638104       0.76758175       2.22526750        4       1.00000000      -0.11862464       0.11876346       0.30177714
Ni       6.51583595       0.73437185       2.22295892        4       1.00000000       0.02849715      -0.01053811       0.26382792
Ni       9.11094618       0.70785526       2.17899761        4       1.00000000      -0.02946690      -0.18518918      -0.07262206
Ni       2.63905459       2.94959323       2.23241383        4       1.00000000       0.08331071      -0.11550802       0.43748316
Ni       5.18836561       2.96257191       2.23688344        4       1.00000000      -0.05370469      -0.12927179       0.41669556
Pt       7.79914612       2.91630607       2.25219628        5       0.00000000      -0.01333012      -0.10989612       0.08768556
Pt      10.40947863       2.91297139       2.25450223        5       0.00000000       0.02241665      -0.03982509       0.06947852
Pt       3.94796858       5.21047544       2.15541925        4       0.00000000       0.01705744      -0.04127606       0.09299930
Ni       6.50781389       5.23050207       2.20089784        4       1.00000000       0.06249473      -0.08924536       0.22513449
Pt       9.07763642       5.27415469       2.26141940        5       0.00000000      -0.03664634       0.03635069       0.23916476
Pt      11.75332800       5.25709414       2.16745352        4       0.00000000      -0.03629373       0.00736874      -0.00519104
Ni       5.20689404       7.49566663       2.17427150        4       1.00000000      -0.08528475       0.15300937       0.11002873
Ni       7.80604274       7.50142376       2.19592233        4       1.00000000       0.04711572       0.22099287       0.10602816
Pt      10.42344294       7.53777272       2.12548650        3       0.00000000      -0.03275689       0.08444248      -0.08444959
Ni      13.04980436       7.50520669       2.17121229        4       1.00000000       0.03459909       0.15240191      -0.05384961
Ni      -0.00880832       1.50117356       4.35578645        7       1.00000000      -0.08146304       0.05846497      -0.25005172
Ni       2.62898004       1.50252416       4.32578880        6       1.00000000       0.07773854       0.11882267      -0.49432220
Ni       5.19946235       1.50099051       4.32916185        6       1.00000000      -0.05298801       0.05310442      -0.52604639
Ni       7.83241853       1.49469008       4.37115877        7       1.00000000       0.01751611      -0.00226926      -0.26289034
Pt       1.31028993       3.74131044       4.34646646        6       0.00000000       0.07489906       0.07867501       0.01374404
Ni       3.90539136       3.69627993       4.34496093        6       1.00000000      -0.00105838      -0.11921766      -0.39860671
Pt       6.53831416       3.71404912       4.34202081        6       0.00000000      -0.09619956       0.01500058      -0.00441046
Ni       9.12770195       3.75127959       4.42035621        7       1.00000000       0.03957740       0.05054248      -0.10401330
Ni       2.59706479       5.95720918       4.37598495        7       1.00000000       0.00218654       0.02572302      -0.20884450
Pt       5.21017560       5.95413883       4.31591860        6       0.00000000      -0.05956439       0.11171186      -0.09781058
Ni       7.86742054       5.94385707       4.39428887        7       1.00000000       0.08822031      -0.02536391      -0.12097839
Ni      10.40788970       5.95490549       4.44313765        7       1.00000000      -0.01709630       0.05016192       0.04933496
Pt       3.90127826       8.25588707       4.28705005        6       0.00000000       0.01603151       0.07253510      -0.18707556
Pt       6.54487156       8.26767798       4.28626654        6       0.00000000      -0.04881973       0.20867649      -0.17174493
Pt       9.11333955       8.20209624       4.37205313        7       0.00000000      -0.02104813       0.01777607      -0.09409999
Pt      11.74067327       8.20543775       4.37585605        7       0.00000000      -0.03442486      -0.00090359      -0.06070227
Pt      -0.00039897      -0.00549903       6.60086496        9       0.00000000       0.05358781       0.09293729       0.15863396
Ni       2.62845082      -0.02500745       6.56830177        9       1.00000000       0.01903695      -0.05409057      -0.14226710
Pt       5.20983763      -0.10410052       6.62361452        9       0.00000000      -0.03211280       0.00048435       0.24092476
Ni       7.80245424      -0.00449053       6.58090836        9       1.00000000      -0.05277662       0.03472469      -0.19400775
Pt       1.30411235       2.21323914       6.47932823        8       0.00000000      -0.06309712      -0.09763617       0.60956065
Pt       3.90108331       2.18911229       6.45510169        8       0.00000000       0.09443452      -0.02557883       0.37992121
Pt       6.54782194       2.18190341       6.49055614        8       0.00000000      -0.12717277      -0.22381559       0.64531627
Pt       9.11323151       2.30059650       6.54328912        8       0.00000000       0.07131925       0.05017742      -0.06996387
Pt       2.53952004       4.51834324       6.57333892        9       0.00000000       0.06791143      -0.02324852       0.18831527
Pt       5.24032776       4.47206376       6.59650682        9       0.00000000      -0.04438442       0.00969018       0.33942479
Ni       7.87556424       4.49365093       6.47129398        8       1.00000000       0.09064067       0.08469664       0.06128199
Ni      10.38434449       4.53450149       6.55335984        9       1.00000000      -0.14734650       0.12735918      -0.36533771
Pt       3.83742878       6.75125234       6.60470391        9       0.00000000       0.00508594      -0.08138089       0.10240612
Pt       6.64153501       6.70523848       6.51458773        8       0.00000000       0.09228632      -0.08270372       0.36542567
Ni       9.15490108       6.66513426       6.55999647        9       1.00000000       0.07859419      -0.18510764      -0.33588544
Ni      11.68979785       6.69769010       6.57159865        9       1.00000000      -0.15480134      -0.10088737      -0.29481224
