64
Lattice="10.141811658921474 -0.019586673674120366 -0.006150146502523546 5.053943272483373 8.727032682674174 -0.05746494431861464 0.0 0.0 21.467578580952807" Properties=species:S:1:pos:R:3:tags:I:1:initial_magmoms:R:1:forces:R:3 unique_id=d7e55b76f3ab4b7fa87509b2e52dea25 energy=-368.1938278150835 stress="0.0023391689537276463 -0.00014026430310968627 -0.00010224602299125215 -0.00014026430310968627 0.0017073156473373374 -0.0003257040642179659 -0.00010224602299125215 -0.0003257040642179659 -0.005066498036745406" pbc="T T T"
Ni       0.02841606      -0.00596298       0.16823325        2       1.00000000       0.07791495       0.13547690      -0.66693717
Ni       2.48932011      -0.03906362       0.20010353        2       1.00000000       0.01479845      -0.02562510      -0.14551311
Pt       5.08471144      -0.08505461       0.20779539        2       0.00000000      -0.11156097       0.00060142      -0.76989226
Ni       7.61567884      -0.06641844       0.19700827        2       1.00000000      -0.06035900      -0.06514971      -0.46774335
Ni       1.25548830       2.19888489       0.11327002        1       1.00000000      -0.04519931       0.01406519       0.26085214
Pt       3.75247148       2.22193826       0.18487087        2       0.00000000      -0.01493059      -0.09110227      -0.72306444
Ni       6.33333585       2.20445360       0.11057316        1       1.00000000      -0.05548042      -0.02971506       0.12315708
Pt       8.87562640       2.22543804       0.09782787        1       0.00000000       0.06776169       0.17601192      -0.89250226
Ni       2.48945870       4.39808378       0.07844521        1       1.00000000       0.03385405      -0.03598960       0.34800338
Ni       5.05510386       4.38581809       0.03785334        0       1.00000000      -0.13962326       0.00104183       0.09002854
Ni       7.60097896       4.37871046       0.03924947        0       1.00000000       0.17597572      -0.00827338      -0.06528379
Ni      10.16744527       4.39013014       0.08463005        1       1.00000000      -0.03981120      -0.01456876       0.29758727
Ni       3.75779262       6.50753487       0.03000701        0       1.00000000      -0.06133456      -0.03447881       0.14385607
Ni       6.34329139       6.53141946       0.00000000        0       1.00000000       0.07027723       0.05715519       0.02560681
Ni       8.84637326       6.47696394       0.15908562        2       1.00000000      -0.01411590      -0.01337293      -0.09369951
Ni      11.41485121       6.47081962       0.07091039        1       1.00000000      -0.03583723       0.05218215       0.31065680
Ni       1.31055677       0.76029092       2.19247133        4       1.00000000       0.01923259       0.11994365       0.15407534
Ni       3.73821942       0.67813970       2.20093084        4       1.00000000      -0.14176474      -0.07546244       0.21779664
Ni       6.34321777       0.69859897       2.18575415        4       1.00000000       0.04386642       0.02249756       0.11854517
Pt       8.86333929       0.75267027       2.20904971        4       0.00000000       0.07647806      -0.10968314       0.27513677
Ni       2.48385012       2.92772989       2.22670872        4       1.00000000      -0.04813484       0.04156079       0.14284963
Ni       5.05399583       2.90004919       2.16463093        4       1.00000000       0.00665913       0.00822067       0.09172387
Ni       7.60299507       2.89595345       2.18358778        4       1.00000000       0.00367106       0.01541577       0.15870864
Ni      10.18869317       2.94122369       2.19804644        4       1.00000000       0.09113829       0.06363949       0.12440702
Ni       3.73007014       5.04048798       2.14314664        3       1.00000000      -0.05129281      -0.04394366       0.02916533
Pt       6.37989811       5.04497002       2.09424741        3       0.00000000       0.06916759      -0.04528844      -0.03972166
Ni       8.92430768       5.06310468       2.15215145        4       1.00000000       0.08147767      -0.08073615       0.09810118
Ni      11.39551927       5.05790729       2.15065448        4       1.00000000      -0.00205003      -0.02056471       0.14080357
Pt       5.08013440       7.23471667       2.08440128        3       0.00000000      -0.06911305       0.02102209       0.03548225
Ni       7.65043051       7.26961105       2.14309390        3       1.00000000       0.04506924      -0.00883352       0.14550781
Ni      10.12798613       7.18793908       2.18899216        4       1.00000000       0.03248515      -0.08343812       0.15133557
Ni      12.59589417       7.17971894       2.10534849        3       1.00000000      -0.03203719      -0.07925552       0.09633730
Ni       0.06150589       1.47538869       4.25939567        6       1.00000000       0.13581229      -0.00660367      -0.12916493
Ni       2.47555960       1.44809366       4.22742035        5       1.00000000      -0.02797125      -0.02016009      -0.14109667
Pt       5.03759871       1.39181589       4.17530626        5       0.00000000       0.00138404      -0.03863308      -0.13004797
Ni       7.59175314       1.42314843       4.27061603        6       1.00000000      -0.08109424      -0.10615442      -0.17484023
Ni       1.25960755       3.62862943       4.26839478        6       1.00000000       0.01481991      -0.01645348      -0.10412671
Ni       3.73360085       3.67851117       4.21793284        5       1.00000000      -0.05311108       0.05321869      -0.15148294
Pt       6.35948988       3.64131598       4.31653876        6       0.00000000       0.02076619       0.00548567       0.04420543
Ni       8.92726045       3.66136556       4.20017259        5       1.00000000       0.07463703       0.10491550      -0.17156619
Ni       2.48126252       5.73547324       4.25137932        6       1.00000000      -0.09300518      -0.05154029      -0.16349871
Ni       5.04504111       5.77256377       4.29436593        6       1.00000000       0.02013973       0.02065369      -0.13702791
Ni       7.61857363       5.81700810       4.22769641        5       1.00000000       0.09426098       0.04985438      -0.11052446
Ni      10.15652183       5.75246628       4.21482256        5       1.00000000       0.02945750       0.00927556      -0.11864147
Pt       3.75405920       7.90349734       4.24141437        5       0.00000000      -0.02485066       0.02656597       0.00173126
Ni       6.36379948       7.95532295       4.19776221        5       1.00000000       0.04842920       0.01462508      -0.13753557
Ni       8.83482769       7.91154071       4.16679931        5       1.00000000      -0.02170205      -0.02550090      -0.20150588
Ni      11.36620785       7.87634046       4.16941530        5       1.00000000      -0.06778961      -0.12491272      -0.16586560
Pt       0.01970310      -0.07220446       6.45373337       10       0.00000000      -0.17017933       0.19936542       0.37181974
Pt       2.52028497      -0.04298741       6.39531365        9       0.00000000       0.26863314       0.05574623       0.09790012
Pt       5.08276737      -0.07031982       6.33598522        8       0.00000000      -0.20339848      -0.14366350       0.90428258
Pt       7.58982692      -0.09139881       6.46757858       10       0.00000000       0.11347459       0.15092495       0.48158389
Ni       1.26029959       2.21828156       6.35898450        9       1.00000000       0.02375038       0.03597186      -0.13411156
Pt       3.77204168       2.29106115       6.31929961        8       0.00000000      -0.13867770      -0.00600997       0.70708764
Ni       6.32997663       2.18864192       6.40262680        9       1.00000000       0.01111714      -0.02321909       0.10394184
Pt       8.88172813       2.24653473       6.24893440        7       0.00000000      -0.00034182      -0.17871984       0.88325867
Ni       2.49295628       4.39245603       6.34739717        8       1.00000000       0.05129395      -0.05357368      -0.29744029
Ni       5.06268796       4.39870736       6.37663133        9       1.00000000      -0.11810301      -0.01908540      -0.05525825
Ni       7.54678391       4.33094560       6.39145766        9       1.00000000       0.02431584      -0.01805269       0.08346244
Ni      10.21327831       4.31999693       6.34589666        8       1.00000000       0.04800315      -0.00178739      -0.26798720
Ni       3.78671379       6.41670405       6.35707897        9       1.00000000      -0.04689336      -0.00681858      -0.11912021
Ni       6.29555836       6.44218655       6.32655848        8       1.00000000       0.03730384       0.05711769      -0.14158047
Pt       8.86210017       6.36853982       6.36748800        9       0.00000000       0.05861116       0.11334951      -0.08166191
Ni      11.43054554       6.41969853       6.33212060        8       1.00000000      -0.01627447       0.08046532      -0.26055510
