64
Lattice="9.845031725102931 -0.006367937510658554 0.0008848687456452192 4.917001066897575 8.531996242845192 0.004500681426585345 0.0 0.0 21.169871127685838" Properties=species:S:1:pos:R:3:tags:I:1:initial_magmoms:R:1:forces:R:3 unique_id=bf2ccc8449774316afa04329b90dfa3d energy=-357.1995758641373 stress="0.003633280697121072 -0.00010536174553503049 -0.0001474223573326983 -0.00010536174553503049 0.0037261773652850216 1.91880522015885e-05 -0.0001474223573326983 1.91880522015885e-05 -0.0015793462038041295" pbc="T T T"
Ni      -0.02213529       0.04146433       0.04259421        0       1.00000000       0.04351460      -0.02369584       0.03199545
Ni       2.48150309       0.04203251       0.03602125        0       1.00000000      -0.06450904      -0.04237568       0.02674203
Ni       4.90336668      -0.04770530       0.03814793        0       1.00000000       0.04267515       0.05006950       0.07598196
Ni       7.40000933      -0.04947556       0.04510286        0       1.00000000      -0.04443711       0.06774733       0.06938002
Ni       1.22988703       2.14338598       0.04168197        0       1.00000000      -0.03132650       0.03931463       0.06607765
Ni       3.63788935       2.13594306       0.03766102        0       1.00000000       0.04953030       0.00080436       0.07293599
Pt       6.14471524       2.11709857       0.00353292        0       0.00000000       0.04669031      -0.01470377      -0.24613973
Ni       8.65765344       2.13119475       0.14394965        1       1.00000000      -0.04931357      -0.00411983      -0.44173479
Ni       2.44315530       4.26710307       0.03890940        0       1.00000000      -0.06442724       0.00773353       0.10906582
Ni       4.85939756       4.26448723       0.04754986        0       1.00000000       0.01611406       0.01244769       0.00333720
Ni       7.43245532       4.26100590       0.14673654        1       1.00000000      -0.01544933       0.02007006      -0.47092027
Ni       9.86072219       4.26479620       0.05028238        1       1.00000000       0.02486235      -0.01772841       0.07615848
Ni       3.63532532       6.39730692       0.04033026        0       1.00000000       0.05239643      -0.02579406       0.08194193
Pt       6.14571490       6.41085835       0.00000000        0       0.00000000       0.01335491      -0.00181433      -0.24604982
Ni       8.66093827       6.39457487       0.04614534        0       1.00000000      -0.07017819      -0.04363985       0.04781647
Ni      11.07142987       6.38676753       0.04061713        0       1.00000000       0.00063029      -0.03764504       0.13116363
Ni       1.23389186       0.71647750       2.05580037        2       1.00000000       0.01029020       0.00433819      -0.01634852
Ni       3.69082958       0.71152099       2.06484034        2       1.00000000       0.00531370       0.01466262      -0.01700819
Ni       6.15066656       0.67587433       2.09777526        2       1.00000000      -0.00739300       0.04096490      -0.00709587
Ni       8.61450489       0.69527098       2.07744475        2       1.00000000      -0.01456234      -0.01638025       0.04359201
Ni       2.45436893       2.84626390       2.06599990        2       1.00000000       0.00449988       0.00257750       0.04556301
Ni       4.89037355       2.85045049       2.09974166        2       1.00000000       0.01987602      -0.01756005      -0.01128597
Ni       7.39925857       2.84340856       2.11393436        2       1.00000000      -0.04318308      -0.02870979       0.05810872
Ni       9.86238949       2.84703088       2.07575458        2       1.00000000       0.01713033       0.01801517       0.09034532
Ni       3.67648746       4.97947882       2.07002964        2       1.00000000      -0.01014235       0.01579551       0.03835319
Ni       6.14040600       4.96092700       2.10529532        2       1.00000000      -0.02874923       0.04833082      -0.03778455
Ni       8.63249663       4.98388953       2.07805394        2       1.00000000       0.01842014       0.01403182       0.06484075
Ni      11.07591153       4.97483344       2.06724796        2       1.00000000       0.02725736       0.01569010       0.07139936
Ni       4.89310871       7.12402938       2.10126856        2       1.00000000       0.03062220      -0.03514090      -0.01943695
Ni       7.40478455       7.12708199       2.09454161        2       1.00000000      -0.02827947      -0.01031479      -0.05034014
Ni       9.84615586       7.10379691       2.07288953        2       1.00000000       0.00895937      -0.00277623       0.06466938
Ni      12.29651109       7.09918769       2.07468312        2       1.00000000      -0.00108615      -0.02593753       0.08870615
Ni       0.03322094       1.40594707       4.05897239        3       1.00000000      -0.05032778       0.04462234       0.02734110
Ni       2.46710603       1.42206986       4.10031777        3       1.00000000       0.00036456       0.01808316      -0.09426905
Ni       4.90107122       1.40833844       4.08814948        3       1.00000000      -0.01082933      -0.00981397      -0.07360396
Ni       7.36727764       1.39553037       4.06809519        3       1.00000000       0.05130819       0.00195628       0.03252272
Ni       1.23957484       3.55970718       4.10387186        3       1.00000000      -0.00584064       0.00613983      -0.01204915
Ni       3.67918867       3.55333285       4.10691639        3       1.00000000      -0.02770415      -0.00362227      -0.06475585
Ni       6.12219829       3.54921691       4.07082150        3       1.00000000       0.03456520       0.03900703       0.01523186
Ni       8.63549079       3.56354058       4.05688443        3       1.00000000      -0.01605667      -0.02214986       0.03539949
Ni       2.45546345       5.68961122       4.10970729        3       1.00000000      -0.01714862      -0.00935661      -0.02475791
Ni       4.90356354       5.68778351       4.09798844        3       1.00000000      -0.01481684      -0.00691170      -0.04499798
Ni       7.38831913       5.72285264       4.05662474        3       1.00000000       0.01488797      -0.06179135       0.01399362
Ni       9.85091166       5.69348104       4.10600440        3       1.00000000       0.01326548      -0.01892564      -0.00735829
Ni       3.68586361       7.81750229       4.11291212        3       1.00000000       0.01051680      -0.00351945      -0.02070230
Ni       6.15293656       7.83646215       4.08849207        3       1.00000000       0.00418898       0.02453791      -0.12528774
Ni       8.61278299       7.82804426       4.10794442        3       1.00000000       0.00392674      -0.00096082      -0.09348105
Ni      11.06534414       7.81137593       4.11117844        3       1.00000000      -0.00195060      -0.01278460      -0.04192020
Ni       0.03430912      -0.04963139       6.12533990        5       1.00000000      -0.03679471       0.07200481      -0.04985205
Ni       2.47104401       0.00807402       6.12430359        5       1.00000000       0.03119618       0.00128781      -0.12027898
Ni       4.91637446      -0.00260600       6.12623415        5       1.00000000       0.00533540       0.02999340      -0.09645786
Ni       7.35735729      -0.06116343       6.12650578        5       1.00000000       0.02054186       0.03193161      -0.01624432
Ni       1.29683948       2.13189184       6.13028590        5       1.00000000      -0.02681120      -0.00425922      -0.08269687
Ni       3.68607235       2.12854670       6.12647728        5       1.00000000       0.02618738      -0.01703551      -0.10886964
Ni       6.09426512       2.09764509       6.02982428        4       1.00000000       0.07652928       0.03637035       0.44937455
Pt       8.65216705       2.07181215       6.16987113        6       0.00000000      -0.04555568       0.02798140       0.29391622
Ni       2.46327586       4.27151354       6.13420636        5       1.00000000       0.00369693       0.01049258      -0.09185744
Ni       4.85532853       4.26947603       6.12195077        5       1.00000000       0.05342875       0.02896961      -0.01503073
Pt       7.35366214       4.32385686       6.16673567        6       0.00000000      -0.02001816      -0.02546905       0.33233000
Ni       9.90640629       4.29921313       6.13330699        5       1.00000000      -0.05851699      -0.04339243      -0.03354299
Ni       3.67809096       6.39565029       6.12941799        5       1.00000000      -0.01027745      -0.03213565      -0.05708962
Ni       6.12268145       6.45159818       6.02940994        4       1.00000000       0.05279697      -0.10114696       0.42845425
Ni       8.64424792       6.45584165       6.12781743        5       1.00000000      -0.03799610      -0.02242574      -0.05766558
Ni      11.07752267       6.39801618       6.13598420        5       1.00000000       0.01880726      -0.00193468      -0.08982399
