64
Lattice="10.177098946785827 -0.012384472634837888 0.003638312553293336 5.077824205478727 8.752111845283395 -0.011598895548087003 0.0 0.0 21.437171491478136" Properties=species:S:1:pos:R:3:tags:I:1:initial_magmoms:R:1:forces:R:3 unique_id=26193ca25f6c4bd39155db0b57fe249d stress="0.005164475770549552 -1.5458122515590792e-06 -6.988554488466732e-05 -1.5458122515590792e-06 0.004341816905199986 2.5621656583086922e-05 -6.988554488466732e-05 2.5621656583086922e-05 -0.002011022661191228" energy=-369.47436238600625 pbc="T T T"
Ni       0.00791981       0.01494565       0.11886624        1       1.00000000       0.08586485      -0.04607446      -0.34218587
Ni       2.53615550      -0.00776155       0.16097344        2       1.00000000      -0.02403038      -0.01505315      -0.26630339
Ni       5.09095734      -0.01936782       0.10765393        1       1.00000000       0.00395579       0.19112013      -0.41517183
Ni       7.63347047      -0.05411929       0.12297781        1       1.00000000      -0.10734019      -0.06680617      -0.35334954
Ni       1.22987483       2.19803608       0.05442411        1       1.00000000      -0.03653423       0.03150020       0.27712615
Pt       3.76100061       2.20004294       0.12366591        1       0.00000000       0.03256478      -0.00774342      -0.68770098
Pt       6.41394883       2.19367888       0.04776267        0       0.00000000       0.02807598      -0.07189837      -0.08106671
Ni       8.94363544       2.20965939       0.09671717        1       1.00000000      -0.00435001       0.12808517      -0.19533737
Ni       2.52993244       4.40558538       0.00573326        0       1.00000000       0.02277026      -0.01287476       0.16695732
Ni       5.06467003       4.39414863       0.04452380        0       1.00000000      -0.07190979      -0.01418865       0.25457278
Ni       7.67170651       4.37532997       0.05138641        1       1.00000000       0.12343600       0.03787562       0.24136850
Ni      10.16404026       4.35601163       0.02193318        0       1.00000000      -0.05488301       0.00255923       0.28019536
Ni       3.77662258       6.55534396       0.03923960        0       1.00000000      -0.00440803      -0.00156796       0.28383657
Pt       6.34504561       6.55139194       0.03010713        0       0.00000000       0.00935962       0.08693291      -0.00405360
Ni       8.90484212       6.53498032       0.10172643        1       1.00000000      -0.11318459      -0.13221053      -0.33587856
Ni      11.46376478       6.54683334       0.00000000        0       1.00000000       0.04556279      -0.01700313       0.11108157
Ni       1.27901211       0.72439066       2.10061948        3       1.00000000      -0.00994327       0.00483782       0.07460292
Ni       3.81143194       0.73138496       2.13417188        3       1.00000000       0.07084058       0.00429576       0.12957554
Ni       6.35293495       0.74487790       2.16835874        4       1.00000000      -0.02820192       0.14116582       0.29880608
Pt       8.90894635       0.75261220       2.11691462        3       0.00000000      -0.04216781       0.08815474       0.02308752
Ni       2.52838599       2.92301736       2.14150446        3       1.00000000       0.03695824       0.02904222       0.01542881
Ni       5.08427113       2.93585578       2.16724812        4       1.00000000      -0.06435201       0.04134573       0.11018181
Ni       7.64608891       2.95159282       2.14447236        3       1.00000000       0.02690643       0.10439664       0.13591088
Ni      10.17293838       2.90805062       2.13007926        3       1.00000000       0.03238262       0.02332704       0.17426374
Ni       3.84848053       5.09918883       2.12009217        3       1.00000000       0.10318746      -0.02588519       0.03514276
Ni       6.35517819       5.09397532       2.12947380        3       1.00000000       0.00098624       0.02342932       0.02652734
Ni       8.86133199       5.06088970       2.12754801        3       1.00000000      -0.03189625      -0.05486413       0.12853035
Pt      11.47328774       5.04131631       2.13079789        3       0.00000000       0.05858442      -0.05208391       0.05052263
Ni       5.09185122       7.25448254       2.12363822        3       1.00000000       0.04363936      -0.12459456       0.08344877
Ni       7.58465902       7.27387962       2.12822040        3       1.00000000      -0.10319634      -0.09679109       0.18780878
Pt      10.18973171       7.28788533       2.07955399        3       0.00000000       0.02779251      -0.02296682       0.06220371
Ni      12.73615844       7.25687440       2.09312825        3       1.00000000       0.11804484      -0.09042455       0.03493922
Ni      -0.01370385       1.49709900       4.23506158        5       1.00000000      -0.11654136       0.04983244      -0.10925144
Pt       2.48212947       1.51250589       4.16041245        5       0.00000000      -0.07079979       0.00569293       0.11134066
Ni       5.12521647       1.45305059       4.20448866        5       1.00000000      -0.00372360      -0.07116568      -0.26879682
Ni       7.61900356       1.45345368       4.23684142        5       1.00000000       0.00628600      -0.04310516      -0.14655822
Ni       1.24461593       3.67703113       4.28387428        6       1.00000000      -0.03989509      -0.00011784      -0.01795254
Ni       3.80004867       3.71941378       4.20492285        5       1.00000000      -0.05503055       0.10112171      -0.25815659
Pt       6.35826987       3.65661819       4.22861540        5       0.00000000      -0.00258799      -0.03671883       0.00583307
Ni       8.93105667       3.66521879       4.21476563        5       1.00000000       0.02726604       0.05577382      -0.21529010
Ni       2.53060595       5.78708581       4.27794754        6       1.00000000      -0.03746298      -0.06369515      -0.07740391
Ni       5.07992876       5.80996311       4.24245430        5       1.00000000       0.01426514      -0.04092931      -0.24429157
Ni       7.61034715       5.80108954       4.21583888        5       1.00000000       0.02400651      -0.00940621      -0.27744090
Ni      10.20171633       5.76568426       4.26275363        6       1.00000000       0.00316570       0.00835928      -0.08363788
Pt       3.80755980       7.94377523       4.18520954        5       0.00000000       0.00488761      -0.06721521       0.11958662
Ni       6.33909382       7.96347847       4.19239585        5       1.00000000      -0.05827225      -0.06231015      -0.28008225
Pt       8.88164258       7.97474390       4.18467121        5       0.00000000      -0.03976254      -0.00089367       0.02308011
Ni      11.45385761       7.98546532       4.21470917        5       1.00000000      -0.01265531      -0.05205144      -0.16823025
Pt       0.00655934      -0.04707881       6.40764586        8       0.00000000       0.05910185       0.02646310       0.31534077
Pt       2.52524152      -0.02066250       6.43717149        8       0.00000000       0.01302298      -0.04173732       0.46056801
Pt       5.11286454      -0.01488519       6.39857830        8       0.00000000       0.01791795       0.11075368       0.44774074
Pt       7.62939864      -0.06514809       6.41148121        8       0.00000000      -0.02248067       0.10052720       0.32088963
Ni       1.26434771       2.25037456       6.36678206        8       1.00000000       0.05518526       0.06392025      -0.11146289
Pt       3.82923226       2.30938623       6.30661849        7       0.00000000       0.09822458       0.09111399       0.63097228
Ni       6.36809170       2.21943370       6.29518429        7       1.00000000      -0.01380153      -0.02569317       0.30220832
Pt       8.91155774       2.27270143       6.36051650        8       0.00000000      -0.03391154      -0.06867496       0.06551520
Ni       2.51630943       4.41991550       6.34139524        7       1.00000000       0.05269108      -0.03285975      -0.27258742
Ni       5.09265367       4.42774381       6.35881979        8       1.00000000      -0.03012718       0.03890663      -0.22787219
Ni       7.57940439       4.36008596       6.36749760        8       1.00000000      -0.12020516      -0.01133110      -0.11347805
Ni      10.24287137       4.35399306       6.34735241        7       1.00000000       0.10434896      -0.02015193      -0.19999907
Ni       3.80305163       6.46709006       6.35721919        8       1.00000000       0.03115261      -0.07898992      -0.27105668
Ni       6.32173094       6.48521445       6.26438405        7       1.00000000       0.02054783       0.02833600       0.04132556
Pt       8.90803162       6.40620623       6.39432699        8       0.00000000      -0.05362253      -0.07087746       0.19935915
Ni      11.47573749       6.47322758       6.34417209        7       1.00000000       0.00429504       0.03208575      -0.20528259
