64
Lattice="10.362904651110464 -0.04219124957054159 0.008080599954091239 5.144913631609739 8.944913975063699 -0.010550298379848883 0.00659778223436024 -0.013756148052972442 8.870738812630737" Properties=species:S:1:pos:R:3:tags:I:1:initial_magmoms:R:1:forces:R:3 unique_id=52fb8f53b0b648788563be46fd3d3e3f stress="0.0003875048024859634 -5.651255742529331e-07 -1.6529171267008863e-06 -5.651255742529331e-07 0.00038659140833814665 2.1963360324340806e-06 -1.6529171267008863e-06 2.1963360324340806e-06 0.00036164767369597367" energy=-400.71086374947464 pbc="T T T"
Ni       0.03795309       0.01948201       0.16750942        4       1.00000000       0.17279644       0.04605547       0.20586417
Ni       2.58421259      -0.00653729       0.20054210        4       1.00000000      -0.01503889      -0.00358325       0.39609925
Ni       5.14720763      -0.03568965       0.15567123        4       1.00000000      -0.12448919       0.13855855       0.23928897
Pt       7.79010835      -0.12244140       0.15979728        4       0.00000000      -0.02836197      -0.10683068       0.30388131
Ni       1.25646888       2.24240519       0.10085841        4       1.00000000      -0.15089124       0.03184319       0.25794215
Pt       3.79429017       2.23595949       0.11919855        4       0.00000000      -0.10986237       0.04071666      -0.10742838
Pt       6.45810185       2.24880760       0.15279479        4       0.00000000      -0.00887293       0.04644609       0.22495885
Ni       9.10629076       2.22086066       0.16497349        4       1.00000000       0.08652058       0.07252879       0.24952059
Ni       2.56628926       4.48162856       0.07028840        4       1.00000000       0.06463305       0.00123580       0.05238041
Ni       5.12659978       4.48064712       0.17367846        4       1.00000000      -0.07601926       0.07124079       0.34736104
Pt       7.83697311       4.48152213       0.11034830        4       0.00000000       0.16641430       0.07970682      -0.10876294
Ni      10.37260639       4.42959333       0.07271834        4       1.00000000       0.12383787      -0.08938392       0.12536649
Ni       3.84585105       6.67005161       0.17743890        4       1.00000000      -0.00703835      -0.21221532       0.37322548
Pt       6.42904192       6.73479362       0.18875702        4       0.00000000      -0.02896249       0.00031393       0.00842693
Ni       9.05599823       6.69537807       0.06480405        4       1.00000000      -0.04311684       0.03550107      -0.01093316
Ni      11.62665818       6.63651783       0.06409144        4       1.00000000       0.02675498      -0.18601869       0.01473248
Ni       1.32886150       0.75505999       2.18763006        3       1.00000000       0.16782562       0.13245585      -0.08077577
Ni       3.83927491       0.74673253       2.21562841        3       1.00000000      -0.08650750       0.04354682       0.01078786
Pt       6.40790685       0.76067310       2.27910375        3       0.00000000      -0.06858651       0.15427404      -0.10188644
Pt       9.17863828       0.74854570       2.21551169        3       0.00000000       0.06120469       0.04700319      -0.02111557
Ni       2.58524098       2.96754442       2.22248623        3       1.00000000      -0.01347298       0.05095273       0.02818486
Ni       5.12124439       3.01652798       2.25247247        3       1.00000000      -0.24221020       0.11629141       0.01960775
Ni       7.79537400       3.01167613       2.23838239        3       1.00000000       0.12066558       0.15027800      -0.05805394
Ni      10.36316439       2.94951849       2.21298217        3       1.00000000       0.11387217       0.11348303       0.03647955
Ni       3.89795604       5.20613591       2.22640399        3       1.00000000       0.07578085      -0.06063590       0.11291921
Ni       6.44233247       5.20773522       2.24352279        3       1.00000000      -0.03420459       0.14093612      -0.08352360
Ni       9.02167534       5.16193144       2.25060147        3       1.00000000      -0.03476222      -0.11086071       0.17044660
Pt      11.68479871       5.12979866       2.16134961        3       0.00000000       0.06914205      -0.06997524       0.01727186
Ni       5.14560409       7.40587180       2.21119349        3       1.00000000      -0.07810458      -0.18216672      -0.06691975
Ni       7.72613286       7.43241711       2.21317805        3       1.00000000      -0.02789181      -0.11378577      -0.06938399
Pt      10.27056716       7.38154899       2.12159515        3       0.00000000       0.00450702      -0.15683451      -0.05060442
Ni      12.96073107       7.35674845       2.21776880        3       1.00000000       0.03420490      -0.19981918       0.01327100
Ni       0.01668487       1.51393444       4.39283433        2       1.00000000       0.13034830       0.01054100      -0.06831519
Pt       2.61674475       1.53204926       4.35098251        2       0.00000000       0.02355495      -0.02867666      -0.11666146
Ni       5.15133425       1.50593289       4.40058185        2       1.00000000      -0.01056947       0.12422115      -0.03740538
Pt       7.82548591       1.53153629       4.36055006        2       0.00000000       0.11629545       0.06138303       0.10316719
Pt       1.28607429       3.71725129       4.44122638        2       0.00000000      -0.02184002      -0.05266316      -0.07849139
Ni       3.87838348       3.74261493       4.37733071        2       1.00000000      -0.02037026       0.10992965      -0.24901249
Pt       6.44390032       3.78726413       4.29618934        2       0.00000000      -0.07343823      -0.04698106      -0.02516700
Ni       9.05018220       3.71276842       4.38393543        2       1.00000000      -0.01789294       0.02056002      -0.26386899
Ni       2.59496469       5.90789344       4.39051752        2       1.00000000       0.04421851      -0.19468597      -0.17044186
Ni       5.13719136       5.91339624       4.34663188        2       1.00000000      -0.09299224      -0.05022289      -0.21322404
Ni       7.75675994       5.90300850       4.37061695        2       1.00000000      -0.03030573       0.00403587      -0.27345243
Pt      10.29038007       5.86106134       4.46710869        2       0.00000000      -0.05998869      -0.02429409      -0.10910344
Pt       3.87714227       8.11711810       4.31198290        2       0.00000000      -0.02834842      -0.12921439       0.02985936
Pt       6.43761912       8.15140385       4.27008831        2       0.00000000      -0.05689968      -0.04235518      -0.06196600
Pt       9.01103751       8.16105426       4.34909214        2       0.00000000       0.01904551       0.03492479       0.00532353
Pt      11.63195774       8.10854024       4.36992357        2       0.00000000       0.05334144      -0.10834874       0.03710447
Pt       0.03037024       0.03725548       6.62381455        1       0.00000000      -0.00610612       0.01463013       0.02541484
Pt       2.60740330       0.03445405       6.66461150        1       0.00000000       0.00054643       0.08976243       0.23473228
Pt       5.16571186      -0.08373106       6.64063878        1       0.00000000       0.00181050      -0.16575353       0.06343807
Pt       7.77203819      -0.06024965       6.56858502        1       0.00000000       0.04208320       0.08376063      -0.24129501
Ni       1.31872938       2.28415379       6.58970103        1       1.00000000       0.11717655       0.13504220      -0.04962604
Ni       3.84573848       2.24577312       6.51494974        1       1.00000000      -0.09608735       0.05124197      -0.24018949
Pt       6.44732692       2.23873517       6.52348441        1       0.00000000       0.01936869       0.07004967      -0.27911932
Pt       9.14434269       2.32414621       6.60937873        1       0.00000000       0.14495553       0.20975198       0.14379056
Ni       2.52769950       4.43746726       6.57967279        1       1.00000000      -0.17191708      -0.07379413      -0.12349306
Pt       5.09458869       4.41669136       6.58435768        1       0.00000000      -0.12833464      -0.06502054       0.09848408
Ni       7.80563116       4.46703713       6.50404792        1       1.00000000       0.08079639       0.07794808      -0.30754111
Ni      10.37221623       4.46742905       6.60263497        1       1.00000000       0.11120340       0.17750417       0.00680240
Pt       3.78707839       6.62695518       6.59571175        1       0.00000000      -0.13856650      -0.01170709       0.17107370
Pt       6.52063797       6.63143865       6.51279089        1       0.00000000       0.00108427      -0.01888267      -0.21788703
Ni       9.07199931       6.62546277       6.59222685        1       1.00000000      -0.00006029      -0.11827495      -0.10882861
Ni      11.60413075       6.60356284       6.59677768        1       1.00000000      -0.06187760      -0.16567019      -0.13272999
