64
Lattice="10.29717553216208 -0.014569827044196772 0.012479746388449052 5.1359699257320175 8.88263639078576 -0.006102079706449518 0.0 0.0 21.537582225234424" Properties=species:S:1:pos:R:3:tags:I:1:initial_magmoms:R:1:forces:R:3 unique_id=f01c9c53403340788c9c85d64ac6e2bc energy=-374.76788201085304 stress="0.00533203078857764 1.429799302514922e-05 0.0002884389716207741 1.429799302514922e-05 0.0054051927009426595 2.9438566444598236e-05 0.0002884389716207741 2.9438566444598236e-05 -0.002156923317880961" pbc="T T T"
Ni      -0.01909806       0.02417322       0.14266558        1       1.00000000      -0.03365400       0.01621301      -0.04449540
Ni       2.57370891      -0.00023818       0.14968077        1       1.00000000      -0.01634692       0.01927840      -0.15561097
Ni       5.14998367      -0.02047575       0.10830183        1       1.00000000       0.00968073       0.21510126      -0.41682039
Ni       7.74768088      -0.05027345       0.06172542        1       1.00000000       0.01465676      -0.05591601       0.37593040
Ni       1.26567043       2.21331586       0.02154607        0       1.00000000      -0.01001130      -0.07543564       0.26714982
Pt       3.79458747       2.22346346       0.04744288        0       0.00000000       0.06116077      -0.02430523      -0.02810337
Pt       6.45857477       2.15277206       0.13535509        1       0.00000000      -0.00090781      -0.05962925      -0.53108382
Ni       9.02871625       2.16823779       0.09055177        1       1.00000000      -0.08785467      -0.11233301      -0.09087641
Ni       2.56982611       4.45816008       0.00774373        0       1.00000000       0.09236579       0.03398175       0.20424624
Ni       5.11137291       4.45056341       0.12992078        1       1.00000000      -0.00128610       0.00137985      -0.07042272
Pt       7.78905352       4.44263513       0.04365365        0       0.00000000      -0.00808465      -0.04460067      -0.01709655
Ni      10.32627506       4.43807558       0.00031713        0       1.00000000       0.05697984       0.02764678       0.17595463
Ni       3.82025603       6.66709832       0.13211783        1       1.00000000      -0.03905553       0.00163006      -0.03730790
Pt       6.40093598       6.70523491       0.13389555        1       0.00000000      -0.08362013       0.03721345      -0.60424108
Ni       9.02592295       6.66740888       0.01111559        0       1.00000000      -0.07435316      -0.01210108       0.12605325
Ni      11.59750750       6.65835097       0.00000000        0       1.00000000       0.13732484       0.04358830       0.18723527
Ni       1.28928239       0.72749926       2.09350296        2       1.00000000       0.00970652       0.02252486      -0.01191308
Ni       3.85799582       0.75391915       2.13689481        2       1.00000000       0.06953303       0.07592386       0.18866585
Ni       6.46430405       0.73313168       2.18333076        3       1.00000000       0.08310630       0.06715462       0.22997320
Ni       8.98617799       0.70884599       2.11970598        2       1.00000000      -0.11578103       0.02366062       0.02232830
Ni       2.59584767       2.95744697       2.14051727        2       1.00000000       0.04798317       0.05009183       0.10949666
Ni       5.11988569       2.95825973       2.17039944        3       1.00000000      -0.15594648      -0.04167823       0.18773620
Ni       7.72838475       2.93218927       2.17393036        3       1.00000000       0.07047671      -0.07658353       0.12917438
Pt      10.26324399       2.89351244       2.12928820        2       0.00000000       0.06827795       0.03514323       0.00135714
Ni       3.87121993       5.16680029       2.10267660        2       1.00000000       0.04411754      -0.09297976      -0.03404551
Ni       6.43519401       5.15951446       2.14269177        2       1.00000000       0.07979670      -0.06886589       0.07732705
Ni       8.97939472       5.17484444       2.18626075        3       1.00000000      -0.05384775      -0.04748861       0.23256345
Pt      11.63856702       5.17563686       2.10518126        2       0.00000000       0.06122541      -0.04025798      -0.01005120
Ni       5.09978839       7.41670793       2.11123639        2       1.00000000      -0.11423338       0.03047482      -0.00609699
Ni       7.71684352       7.39334487       2.13557484        2       1.00000000       0.04649448      -0.08196310       0.08291254
Pt      10.27092813       7.40245325       2.05845388        2       0.00000000       0.01073377      -0.04945974      -0.03990068
Ni      12.89602530       7.40702563       2.10004512        2       1.00000000      -0.01165993       0.06233359      -0.00164252
Ni      -0.01790771       1.51378900       4.27629948        5       1.00000000      -0.00292252       0.04552317      -0.18995858
Pt       2.61222235       1.53863356       4.23956691        4       0.00000000      -0.02248379      -0.01194222      -0.12321082
Ni       5.15408173       1.48570547       4.25648010        5       1.00000000       0.03630467       0.02554097      -0.34847677
Ni       7.75099163       1.48202104       4.25331224        5       1.00000000       0.08567668       0.05524913      -0.33932684
Pt       1.25865583       3.75152718       4.36606873        6       0.00000000      -0.06639956      -0.00475939       0.01343888
Ni       3.85708179       3.69037155       4.26993041        5       1.00000000       0.05575651       0.01272932      -0.26513729
Pt       6.48682097       3.65879045       4.18915589        4       0.00000000      -0.02390158      -0.01700470      -0.03006542
Ni       9.01265210       3.71298098       4.29355571        5       1.00000000       0.00683620       0.03791760      -0.24253857
Ni       2.54746263       5.89694033       4.29525603        5       1.00000000       0.01195598       0.02940183      -0.11728788
Pt       5.09701220       5.86512080       4.17633179        4       0.00000000      -0.06869114      -0.00155233      -0.15962654
Ni       7.78144724       5.85685891       4.26700024        5       1.00000000       0.04359900      -0.07796931      -0.27034375
Ni      10.26979496       5.87638480       4.34028601        5       1.00000000      -0.04332436       0.04183663      -0.11838275
Pt       3.83202388       8.19496501       4.20102792        4       0.00000000       0.00747383       0.10859931      -0.03835472
Pt       6.42391879       8.14945415       4.17148781        4       0.00000000      -0.05586030       0.02549235      -0.17417325
Pt       9.00672067       8.07436956       4.26258753        5       0.00000000      -0.06844324      -0.03657406      -0.01102093
Pt      11.59695738       8.11918743       4.27905078        5       0.00000000       0.01817369       0.02792847       0.00763130
Pt      -0.01499881       0.03267803       6.50863434        8       0.00000000       0.08597651       0.02090222       0.23003410
Pt       2.60131692       0.04548121       6.53758223        8       0.00000000       0.02211635      -0.02258808       0.39453823
Pt       5.18981041      -0.08443396       6.52279121        8       0.00000000      -0.07356218       0.03246533       0.46539291
Ni       7.72238721      -0.02189068       6.47105468        8       1.00000000       0.02767269       0.07517057      -0.04697414
Ni       1.30814618       2.27110541       6.45755917        8       1.00000000      -0.00455283      -0.01273430      -0.08786834
Ni       3.83419948       2.23533514       6.37927755        7       1.00000000       0.06285437      -0.05578511       0.16546165
Pt       6.45405650       2.17576375       6.38606094        7       0.00000000      -0.00797756      -0.03243434       0.59238481
Pt       9.05667672       2.29296197       6.43695265        7       0.00000000       0.04034273       0.12509673       0.00557317
Ni       2.51911964       4.41319869       6.44999575        7       1.00000000       0.00478907       0.05796101      -0.10075477
Pt       5.07873123       4.37993357       6.48454491        8       0.00000000      -0.10527438       0.00095064       0.19755220
Ni       7.77660987       4.44344720       6.36238956        7       1.00000000       0.03658948       0.04201612       0.01530583
Ni      10.30343376       4.47387118       6.45167104        8       1.00000000      -0.06471389       0.11148197      -0.16310588
Pt       3.73251013       6.64195129       6.49698230        8       0.00000000       0.05692066      -0.14363747       0.06420395
Pt       6.50358629       6.59646391       6.40084148        7       0.00000000      -0.04478354      -0.05087274       0.54223241
Ni       9.05236275       6.57674301       6.44082468        7       1.00000000      -0.01262776      -0.08469683      -0.17196209
Ni      11.54198028       6.58553211       6.45200968        8       1.00000000      -0.09449723      -0.20345503      -0.19357587
