64
Lattice="10.2935041968486 0.016391514630351548 -0.014193597536234358 5.160947566500689 8.86736588295199 -0.0026825174696606113 -0.011589023859399519 0.0041618243202714575 8.77068047074544" Properties=species:S:1:pos:R:3:tags:I:1:initial_magmoms:R:1:forces:R:3 unique_id=8d6b61831a26425a9c463e56c34125bf stress="0.00019399172320105212 1.6599607350686679e-06 -5.712106839292155e-06 1.6599607350686679e-06 0.0001969899933064595 5.030051134472413e-07 -5.712106839292155e-06 5.030051134472413e-07 0.0001957593885258957" energy=-396.08738706499736 pbc="T T T"
Ni      -0.00123785       0.02739387       0.18144414        4       1.00000000      -0.00116435       0.06158717       0.24848954
Ni       2.56819406       0.01221631       0.21212857        4       1.00000000       0.00843463       0.02353466       0.38455983
Ni       5.14263677       0.00101192       0.15662899        4       1.00000000      -0.04997085       0.13291686       0.26616228
Ni       7.72463036      -0.03245168       0.17413579        4       1.00000000      -0.02787797      -0.13970200       0.34636989
Ni       1.25629994       2.22537855       0.10817945        4       1.00000000      -0.11606800       0.04897510       0.18569037
Pt       3.80143867       2.23749605       0.18770782        4       0.00000000      -0.06727987       0.06536176       0.16169986
Pt       6.46082380       2.17981819       0.10622252        4       0.00000000       0.07418162      -0.01555565      -0.06751676
Ni       9.05492384       2.23173218       0.13442270        4       1.00000000       0.11298738       0.04276269       0.15974154
Ni       2.57276316       4.46363708       0.07188933        4       1.00000000       0.05050689       0.08111998      -0.00080072
Ni       5.12147415       4.46078299       0.18358738        4       1.00000000      -0.00784774       0.02037110       0.34680395
Pt       7.80077041       4.45384940       0.09575319        4       0.00000000       0.09275541       0.00851112      -0.09798137
Ni      10.33301928       4.44288059       0.06545120        4       1.00000000       0.11273466      -0.02286986       0.13284114
Ni       3.83157478       6.64932680       0.11131474        4       1.00000000      -0.09053510      -0.03370556       0.18980977
Pt       6.40957566       6.70033869       0.18438680        4       0.00000000      -0.09626887       0.01660588       0.10146644
Ni       9.03868790       6.67360156       0.06676639        4       1.00000000      -0.02696640       0.03088175       0.00950603
Ni      11.61308482       6.66052200       0.05184493        4       1.00000000       0.10308312      -0.02726759      -0.01957007
Ni       1.29460884       0.76612502       2.15248265        3       1.00000000      -0.04232768       0.13039418      -0.10466662
Ni       3.84972304       0.76028692       2.20389627        3       1.00000000       0.06829109       0.06779333       0.04596182
Ni       6.42359023       0.77999628       2.21494776        3       1.00000000      -0.03337894       0.14060241       0.12622223
Pt       9.01207250       0.79174779       2.17268419        3       0.00000000      -0.02610111       0.09036595       0.17052323
Ni       2.56823030       2.96690838       2.21284750        3       1.00000000       0.01409421       0.10499058      -0.05860206
Ni       5.13999548       2.97994932       2.23476653        3       1.00000000      -0.10141198       0.00322839       0.01695503
Ni       7.73389609       2.98381094       2.22819591        3       1.00000000       0.07600404       0.07382800      -0.02050827
Ni      10.29819329       2.96872094       2.19221794        3       1.00000000       0.03931012       0.05907723       0.08022683
Ni       3.89799580       5.17179400       2.20841399        3       1.00000000       0.05835488      -0.03007559       0.06735362
Ni       6.42399689       5.17516139       2.22720236        3       1.00000000       0.00088344       0.07786865      -0.03112949
Ni       8.99107333       5.16024476       2.21966682        3       1.00000000      -0.01165524      -0.09510634       0.11364792
Pt      11.63427134       5.12976319       2.15851945        3       0.00000000       0.08661269      -0.03679609       0.03833738
Ni       5.12231261       7.35621634       2.19543898        3       1.00000000      -0.18216764      -0.15811354      -0.10154846
Ni       7.72582800       7.38794396       2.18786588        3       1.00000000       0.02772813      -0.14369780      -0.07682298
Pt      10.28664945       7.40388333       2.09706304        3       0.00000000       0.02612266      -0.13688364      -0.06394544
Ni      12.90577588       7.37692497       2.14379148        3       1.00000000       0.04817964      -0.15065995      -0.04047619
Ni      -0.02030073       1.54318849       4.33846288        2       1.00000000      -0.05142957       0.09824446      -0.08943915
Pt       2.52837111       1.57977723       4.24785665        2       0.00000000       0.01312733       0.01642332       0.03132707
Ni       5.16123829       1.52193724       4.31362217        2       1.00000000      -0.06050792       0.04257437      -0.14080719
Ni       7.72746507       1.52324022       4.32772992        2       1.00000000       0.04656662      -0.02930913      -0.07818813
Ni       1.28561493       3.69271395       4.38479221        2       1.00000000      -0.01387588      -0.01310143      -0.04936287
Ni       3.84506182       3.75663002       4.29917613        2       1.00000000      -0.03116047       0.04771597      -0.20408262
Pt       6.45151644       3.69961861       4.28226140        2       0.00000000      -0.06676437       0.00550916       0.03188660
Ni       9.01287216       3.68626113       4.30839444        2       1.00000000       0.02164803      -0.11270170      -0.29828084
Ni       2.60417887       5.84989744       4.38007430        2       1.00000000       0.01345235      -0.12801214      -0.08787236
Ni       5.11932587       5.87296022       4.29898520        2       1.00000000      -0.00848766      -0.11127713      -0.19137051
Ni       7.73254855       5.86869448       4.31287277        2       1.00000000       0.02109987      -0.06569015      -0.25273541
Pt      10.29685280       5.81782454       4.40483085        2       0.00000000       0.00324117      -0.02452823      -0.05865690
Pt       3.86696098       8.07244308       4.31390881        2       0.00000000      -0.03524170      -0.10355714       0.13172017
Pt       6.42081746       8.10533479       4.21380238        2       0.00000000      -0.06474772      -0.04225241      -0.03330270
Pt       8.99774630       8.12843351       4.30420941        2       0.00000000      -0.03017163       0.03529314       0.08878418
Pt      11.60823246       8.15141650       4.27670111        2       0.00000000       0.04650922       0.01536771       0.04805058
Pt      -0.00571986       0.02430148       6.55994237        1       0.00000000       0.02827311       0.04859631       0.07866271
Pt       2.56260001       0.00878370       6.58664357        1       0.00000000       0.00284308       0.03520176       0.23259587
Pt       5.15265181      -0.03474154       6.55774148        1       0.00000000       0.06115001      -0.12463785       0.05471558
Pt       7.70747575      -0.01497594       6.56632192        1       0.00000000      -0.02799672      -0.03793796       0.15687643
Ni       1.26669854       2.29242452       6.49358076        1       1.00000000      -0.03132002       0.18782429      -0.15925501
Pt       3.82594585       2.27787195       6.43856990        1       0.00000000      -0.09805629       0.04483523      -0.29429657
Ni       6.44461325       2.24338833       6.41320246        1       1.00000000      -0.00617018       0.02304780      -0.27012913
Pt       9.01144449       2.33684626       6.47231639        1       0.00000000       0.00177372       0.08322656       0.02083183
Ni       2.51725882       4.47052651       6.47902862        1       1.00000000      -0.12287829       0.04337155      -0.23820837
Pt       5.10911997       4.45623549       6.50813736        1       0.00000000      -0.04422942       0.04255421       0.11141185
Ni       7.75561709       4.45190770       6.40882428        1       1.00000000       0.06520426       0.07142170      -0.31021723
Ni      10.32322555       4.45708411       6.50364137        1       1.00000000       0.11895561       0.00901664      -0.02265561
Ni       3.81305982       6.60901445       6.49845708        1       1.00000000      -0.10089315      -0.07916168      -0.13023499
Pt       6.47489101       6.59895626       6.43329794        1       0.00000000       0.07047396       0.02122331      -0.32404612
Ni       9.04130984       6.58932983       6.50492361        1       1.00000000       0.08544526      -0.18227165      -0.13036628
Ni      11.59692885       6.59518827       6.50640005        1       1.00000000       0.07492452      -0.10735208      -0.13215517
