64
Lattice="10.462318930073401 0.012098974988514657 0.05639552782316496 5.241637484736506 9.095023234342921 0.013740516497587124 0.04604675564722886 -0.01363042357830379 9.008570660211994" Properties=species:S:1:pos:R:3:tags:I:1:initial_magmoms:R:1:forces:R:3 unique_id=c9a4441c414243fa9097e0deb90f71b1 stress="-0.004580625804063841 -3.699884016282837e-05 -1.2745425434047279e-05 -3.699884016282837e-05 -0.004643479887789466 -7.713944722172304e-06 -1.2745425434047279e-05 -7.713944722172304e-06 -0.0038050911705912113" energy=-408.6689720897169 pbc="T T T"
Pt      -0.08102421       0.01544402       0.16534218        4       0.00000000      -0.15712073      -0.01030084      -0.07333018
Ni       2.64458328      -0.01900097       0.18284023        4       1.00000000       0.11700406      -0.11584571       0.22252639
Ni       5.25470637      -0.02677597       0.17817453        4       1.00000000       0.07901073       0.01191047       0.15745831
Ni       7.83498581      -0.03242843       0.15659363        4       1.00000000      -0.11415216      -0.14027514       0.18605001
Ni       1.30795639       2.27585596       0.16151478        4       1.00000000       0.04156900      -0.01424289       0.13678091
Pt       3.90724508       2.26207838       0.17444499        4       0.00000000       0.01459411       0.01806919      -0.03912637
Pt       6.57401505       2.20746948       0.18361757        4       0.00000000       0.06641805      -0.09341574      -0.05479215
Ni       9.16463783       2.27683410       0.20018865        4       1.00000000      -0.07835748      -0.04172989       0.15775772
Pt       2.59628697       4.57666187       0.13214692        4       0.00000000       0.00454959       0.02012336      -0.13849738
Ni       5.26042992       4.54961337       0.17721842        4       1.00000000       0.19627523      -0.07953446       0.15442165
Pt       7.92603531       4.56620988       0.19063776        4       0.00000000       0.09736980      -0.02883742      -0.01609229
Ni      10.47284978       4.57973135       0.11600908        4       1.00000000       0.02735775       0.12299925       0.01605610
Ni       3.91472294       6.84458623       0.18641598        4       1.00000000      -0.03519062       0.07135168       0.17517177
Pt       6.56408450       6.83365589       0.23702451        4       0.00000000       0.02261160       0.00035272       0.05125063
Ni       9.19930472       6.83253275       0.12288392        4       1.00000000       0.05130970      -0.01276850       0.05191322
Ni      11.77673500       6.85903433       0.12186848        4       1.00000000       0.05395354       0.07624001       0.00534196
Pt       1.32718405       0.72781146       2.22296146        3       0.00000000       0.01852304       0.00528914       0.00803335
Pt       4.00657551       0.76742300       2.29048235        3       0.00000000       0.09012643       0.05199170       0.12614993
Ni       6.58920740       0.74557784       2.31275834        3       1.00000000       0.10195175      -0.03291048       0.02778515
Ni       9.10333907       0.74450853       2.29977478        3       1.00000000      -0.18193242       0.03371259      -0.02245550
Ni       2.63168358       3.03825724       2.26703026        3       1.00000000      -0.03040725       0.06505015       0.03102547
Ni       5.26803291       3.03045172       2.30133355        3       1.00000000       0.08039158      -0.01036035      -0.01905626
Pt       7.81437520       3.02621225       2.41205192        3       0.00000000      -0.05275901       0.01287871       0.00587839
Pt      10.43880557       3.05722961       2.23397059        3       0.00000000      -0.06833200       0.07152157      -0.03511349
Pt       4.01262415       5.33149547       2.21918678        3       0.00000000       0.05093316       0.02976452       0.01306698
Ni       6.59895593       5.30845666       2.31229806        3       1.00000000       0.16119599      -0.02892238       0.05953252
Ni       9.13923964       5.33445671       2.34306228        3       1.00000000      -0.06441984       0.04745860       0.12298345
Pt      11.74498539       5.34907178       2.30194575        3       0.00000000      -0.02372268       0.02543263      -0.00785679
Ni       5.23471490       7.57820524       2.26665706        3       1.00000000      -0.02427587       0.04702988       0.00149560
Ni       7.88000883       7.52572115       2.29255889        3       1.00000000       0.08838002      -0.12540843       0.06200588
Pt      10.47801117       7.57035512       2.21744420        3       0.00000000      -0.00918495      -0.01841509       0.00781532
Ni      13.11241004       7.63446913       2.26746154        3       1.00000000      -0.02296451       0.07137369      -0.11172012
Pt      -0.07332516       1.55596210       4.41357021        2       0.00000000      -0.12223555       0.07602984      -0.08506718
Pt       2.65312345       1.51513690       4.44420923        2       0.00000000      -0.10279146      -0.03360619       0.01511311
Ni       5.30786498       1.52246487       4.46163888        2       1.00000000       0.06690754       0.02934861      -0.17240277
Ni       7.83846328       1.54322405       4.48473629        2       1.00000000      -0.05087986       0.02251384      -0.09151010
Pt       1.23942484       3.82762253       4.46236753        2       0.00000000      -0.07882777      -0.00328513      -0.06501573
Pt       4.02613147       3.74578592       4.39627306        2       0.00000000       0.01449817       0.00176578      -0.09941482
Ni       6.60880107       3.76910979       4.48743920        2       1.00000000       0.03259692       0.00714919      -0.00034168
Ni       9.14351047       3.83801815       4.49238262        2       1.00000000      -0.06626632       0.09474667      -0.16344413
Pt       2.59271591       6.09445075       4.45673502        2       0.00000000       0.00351266       0.06755330      -0.09649084
Pt       5.34663834       6.01212009       4.41495582        2       0.00000000       0.05638387      -0.06716408      -0.00120612
Ni       7.93208735       6.00934268       4.45517794        2       1.00000000       0.07726028      -0.11905478      -0.23123865
Ni      10.43390417       6.04233999       4.56567123        2       1.00000000      -0.07740053      -0.05322214      -0.02447505
Pt       3.92189157       8.36101337       4.38142832        2       0.00000000       0.02001249      -0.04015372      -0.14028307
Pt       6.59533968       8.28494845       4.41367184        2       0.00000000       0.02235080      -0.00677394      -0.05313263
Pt       9.20531414       8.23879537       4.50120177        2       0.00000000      -0.02698304      -0.04919080       0.02636927
Pt      11.79663199       8.40689940       4.48780332        2       0.00000000      -0.01799999       0.06006802      -0.09353317
Pt      -0.01291878      -0.00820424       6.65922166        1       0.00000000      -0.00591989      -0.00024052      -0.07715245
Pt       2.68136313      -0.04983346       6.78213954        1       0.00000000       0.03904509      -0.03365510       0.17958788
Pt       5.31883399      -0.10538087       6.78511623        1       0.00000000       0.04310076      -0.10013465       0.14914945
Ni       7.85967226      -0.00990074       6.73027286        1       1.00000000      -0.01352478       0.02105672      -0.12999064
Pt       1.30875324       2.29935381       6.76130652        1       0.00000000      -0.02029329       0.01689386       0.12766776
Pt       3.97428054       2.25021382       6.65428363        1       0.00000000       0.01771804      -0.02928797      -0.03627948
Pt       6.59332847       2.22665489       6.60131735        1       0.00000000      -0.02212408      -0.02375162      -0.06842540
Pt       9.17067581       2.29416550       6.76274328        1       0.00000000      -0.01717069       0.03462685       0.11525323
Pt       2.56775829       4.58732517       6.65369227        1       0.00000000      -0.04153204       0.01574029      -0.07157622
Pt       5.27896103       4.54591026       6.73736229        1       0.00000000      -0.04597351       0.02578219       0.08557901
Pt       7.97367640       4.58932824       6.60603779        1       0.00000000       0.00932366       0.03729702      -0.04624087
Ni      10.48017414       4.60798488       6.72874451        1       1.00000000      -0.03050522       0.12768318      -0.12681627
Pt       3.87045676       6.85791312       6.76594324        1       0.00000000      -0.12877887       0.05711349       0.13912562
Pt       6.62551770       6.80431806       6.68106088        1       0.00000000      -0.00506496       0.01190586       0.03458512
Ni       9.25071351       6.78293133       6.71627629        1       1.00000000       0.09965919      -0.08025750      -0.11753028
Ni      11.75915392       6.81267643       6.75124291        1       1.00000000      -0.12880324      -0.09707912      -0.14332309
