64
Lattice="10.220944502627045 0.021796935271115748 -0.040956159366687804 5.129348950982952 8.776618954461659 -0.1126679608053931 -0.033440564090831876 -0.08691745346424404 8.720060453823193" Properties=species:S:1:pos:R:3:tags:I:1:initial_magmoms:R:1:forces:R:3 unique_id=fda1eabc6fc94b6bb8e2fda18a75c191 stress="-0.006835739930226896 -3.991662092701993e-05 2.1413625928536466e-05 -3.991662092701993e-05 -0.0067795693574866575 2.043943747061989e-05 2.1413625928536466e-05 2.043943747061989e-05 -0.00583065023651793" energy=-392.9034396930639 pbc="T T T"
Ni       0.03779289      -0.06312328       0.20019088        4       1.00000000       0.05090377      -0.09752014       0.14432265
Ni       2.48690208      -0.03322756       0.20835812        4       1.00000000      -0.08866201      -0.05203415       0.16615713
Pt       5.09742865      -0.04345451       0.12855262        4       0.00000000      -0.04664488       0.04065411      -0.24135099
Ni       7.68676256      -0.05084721       0.15626575        4       1.00000000       0.01045066      -0.06196530       0.12554281
Ni       1.27685430       2.19342573       0.09767695        4       1.00000000      -0.01563334      -0.01083808       0.15021216
Pt       3.74422406       2.25361156       0.15571242        4       0.00000000      -0.03305347      -0.00340215      -0.08028445
Pt       6.39959601       2.27465620       0.04971818        4       0.00000000      -0.04416386       0.02565518      -0.12046245
Pt       9.01766080       2.24738748       0.07390728        4       0.00000000       0.01703505       0.05231615      -0.10663795
Ni       2.55993216       4.42714878       0.00350093        4       1.00000000       0.04556661       0.04601891      -0.07496699
Ni       5.10548931       4.47064956       0.04386216        4       1.00000000      -0.06848507       0.07922820       0.04821662
Ni       7.64111557       4.45775422      -0.00258487        4       1.00000000      -0.08333688       0.07467010       0.01151927
Ni      10.26440738       4.42909597      -0.02832744        4       1.00000000       0.05552327       0.05153382      -0.03527624
Ni       3.85540518       6.56108354       0.02715219        4       1.00000000       0.02232832      -0.01965970       0.04971849
Ni       6.37744919       6.57358358       0.02249810        4       1.00000000      -0.06574146      -0.04220796      -0.01260157
Ni       8.90917968       6.55362414       0.06366132        4       1.00000000      -0.11505814      -0.01578260       0.11754939
Ni      11.55399068       6.55012992      -0.04242854        4       1.00000000       0.06435477      -0.05291108      -0.03346957
Ni       1.29593863       0.71397815       2.20573745        3       1.00000000      -0.01290054      -0.02307574       0.14803551
Ni       3.75130861       0.73297569       2.17834658        3       1.00000000      -0.08838041      -0.07274925       0.00320819
Ni       6.41409279       0.74544766       2.17878418        3       1.00000000       0.06593464       0.00628195      -0.01659877
Pt       8.96798374       0.72142476       2.18046708        3       0.00000000       0.04607502      -0.03868293       0.12304792
Ni       2.54347673       2.86945817       2.24215709        3       1.00000000       0.03958847      -0.09282189       0.15628265
Ni       5.08975712       2.97743645       2.15870022        3       1.00000000      -0.04313288       0.11164480      -0.03792441
Ni       7.63943296       2.91352445       2.18395308        3       1.00000000      -0.01768028      -0.05745422       0.02119439
Ni      10.27852841       2.89317858       2.19062198        3       1.00000000       0.08052770      -0.03948452       0.11610176
Ni       3.88429667       5.10153573       2.12722702        3       1.00000000       0.02084330       0.01621936       0.04333541
Ni       6.34068296       5.13055334       2.08897431        3       1.00000000      -0.00599564       0.00688669      -0.00912693
Pt       8.87561971       5.06007282       2.12118203        3       0.00000000       0.04338892      -0.03329522       0.03006683
Pt      11.59174424       5.04682990       2.11410036        3       0.00000000       0.02560493      -0.07131304       0.00980462
Ni       5.14970988       7.23893967       2.07176662        3       1.00000000      -0.03998775      -0.06824905       0.03753285
Ni       7.58032075       7.30336056       2.05409724        3       1.00000000      -0.09487749      -0.09586746       0.03812751
Pt      10.27400762       7.29653457       2.11233086        3       0.00000000       0.05981455      -0.09536558       0.10068538
Ni      12.82512936       7.27317268       2.03007139        3       1.00000000       0.10241786      -0.10699202       0.00476121
Ni       0.04812981       1.45121301       4.29208774        2       1.00000000       0.06542459      -0.04053867       0.00274641
Ni       2.47225010       1.46824005       4.25215951        2       1.00000000      -0.01892972       0.00256257       0.00873518
Pt       5.09795069       1.45507184       4.18133474        2       0.00000000      -0.06011723       0.01779977      -0.16368046
Ni       7.66330906       1.44220956       4.25519013        2       1.00000000      -0.01304245      -0.04120012      -0.06192494
Ni       1.27741710       3.60243835       4.31824938        2       1.00000000       0.04596344      -0.02311861      -0.00971915
Ni       3.77830203       3.69702600       4.22729590        2       1.00000000       0.00796499       0.09141030      -0.13071595
Pt       6.40170693       3.69858565       4.25171284        2       0.00000000      -0.00038916      -0.00762447      -0.08860376
Ni       8.98221836       3.65850244       4.22574700        2       1.00000000       0.05065641       0.03441824      -0.07764599
Ni       2.55206773       5.75769289       4.29893454        2       1.00000000       0.01002247      -0.02843523      -0.05105762
Ni       5.10144449       5.80164488       4.24696478        2       1.00000000      -0.00047815      -0.02522115      -0.10727261
Ni       7.61976234       5.82087165       4.23464274        2       1.00000000      -0.07340439       0.04966658      -0.05085596
Ni      10.26479633       5.76535279       4.26468536        2       1.00000000       0.03650431      -0.00119617      -0.02362339
Pt       3.84301112       7.91484646       4.18919781        2       0.00000000      -0.01581042       0.00505474       0.05159227
Ni       6.36069634       7.98162697       4.15890429        2       1.00000000      -0.09649742      -0.00602802      -0.06951970
Pt       8.84589474       7.97389604       4.14256727        2       0.00000000      -0.11406578      -0.02839513      -0.02134264
Ni      11.53347118       7.96111061       4.17687679        2       1.00000000       0.05467289      -0.06409693      -0.06343555
Pt      -0.00745581      -0.10409733       6.50772782        1       0.00000000      -0.04575276       0.02342388       0.15926850
Pt       2.50541259      -0.04034908       6.49965808        1       0.00000000       0.08895693       0.08949660       0.20074880
Pt       5.11379249      -0.06147704       6.35808742        1       0.00000000      -0.04341790       0.03750326       0.04526714
Pt       7.64127694      -0.09014437       6.46479308        1       0.00000000       0.04591455       0.04069684       0.16682609
Ni       1.25562239       2.20771633       6.39336858        1       1.00000000       0.03111643       0.07002909      -0.05050010
Pt       3.78772661       2.29086382       6.33784440        1       0.00000000       0.00205691       0.13340769       0.02190246
Ni       6.37667867       2.20290788       6.32631999        1       1.00000000      -0.00120130       0.04636132      -0.13733846
Pt       8.94278594       2.25864141       6.26804527        1       0.00000000       0.01984184       0.04067059       0.00644463
Ni       2.51233105       4.39437212       6.36282294        1       1.00000000       0.00477252       0.09488904      -0.11275295
Ni       5.10420294       4.40402729       6.38534491        1       1.00000000      -0.00146441       0.11371840      -0.03316063
Ni       7.59999109       4.34874290       6.38053047        1       1.00000000      -0.09709279       0.01758113      -0.04183281
Ni      10.29137120       4.34588444       6.33093690        1       1.00000000       0.16142131       0.01717057      -0.11749310
Ni       3.82464597       6.43339400       6.37138829        1       1.00000000       0.01106034      -0.04271515      -0.01687258
Ni       6.35187426       6.46298333       6.34497259        1       1.00000000       0.01201687       0.01717538      -0.11930442
Pt       8.93566411       6.39331762       6.38541135        1       0.00000000       0.02648605      -0.02864180       0.11152802
Ni      11.52729572       6.46540448       6.31376372        1       1.00000000       0.02018727       0.03473828      -0.10312915
