64
Lattice="10.374317591169374 0.015752816774730144 0.013848387545522868 5.200801135092765 8.921779379192794 -0.0025876354968968392 0.011307161082281525 -0.008967838637418835 8.855431134797655" Properties=species:S:1:pos:R:3:tags:I:1:initial_magmoms:R:1:forces:R:3 unique_id=95558712b5134b4ab1c15a6c60d9b32e stress="-0.002893266630793659 5.9938276240907015e-06 -1.742281414264496e-05 5.9938276240907015e-06 -0.0029052458215384908 7.399186555265757e-07 -1.742281414264496e-05 7.399186555265757e-07 -0.00250323726704562" energy=-401.9696286261451 pbc="T T T"
Ni      -0.02249828      -0.00131657       0.19401413        4       1.00000000      -0.01811704      -0.00353920       0.18777086
Ni       2.61646255      -0.00428612       0.12744330        4       1.00000000       0.04869745       0.01504806       0.15375501
Ni       5.19282547      -0.01187627       0.17686725        4       1.00000000       0.03953674       0.03121699       0.15266406
Ni       7.78944239      -0.04555719       0.21143365        4       1.00000000      -0.00261897      -0.12003260       0.22735195
Pt       1.23925843       2.23321582       0.18502202        4       0.00000000      -0.02415934       0.03228085      -0.02363104
Pt       3.86740370       2.17859705       0.11210637        4       0.00000000       0.00250721       0.00257935      -0.09794476
Pt       6.54433849       2.14180106       0.10627308        4       0.00000000       0.06521189      -0.07337256      -0.13362530
Ni       9.09679535       2.23496767       0.16406387        4       1.00000000       0.03084344      -0.00313753       0.09530482
Ni       2.58280754       4.49436328       0.13265979        4       1.00000000       0.03183834      -0.02457776       0.04227735
Pt       5.17423703       4.48803112       0.15503632        4       0.00000000       0.08834900      -0.02478572      -0.12055515
Pt       7.87605851       4.46815188       0.02921998        4       0.00000000       0.07199485       0.01009529      -0.27265952
Ni      10.40608429       4.50680042       0.08639504        4       1.00000000       0.06566963       0.07424513       0.06798791
Ni       3.85327213       6.73806002       0.10608283        4       1.00000000      -0.01475102       0.03292495       0.09531840
Pt       6.50720918       6.79347256       0.20556749        4       0.00000000       0.01140274       0.01832249      -0.00875695
Ni       9.11849617       6.73230325       0.07507527        4       1.00000000       0.02804520       0.05222984       0.01941669
Ni      11.70377830       6.71166447       0.07874711        4       1.00000000       0.08348774      -0.01460071       0.02065605
Ni       1.33083969       0.75440568       2.23376218        3       1.00000000       0.01935651       0.07293164      -0.00605704
Ni       3.84596109       0.76551642       2.23497425        3       1.00000000      -0.07640414       0.01257490       0.03143982
Ni       6.49767551       0.76893233       2.24570966        3       1.00000000       0.01272066       0.03861527       0.07266000
Pt       9.08666211       0.79672316       2.21569745        3       0.00000000       0.01077745       0.03449813       0.13495633
Ni       2.60303760       2.92419402       2.28967890        3       1.00000000      -0.00015038      -0.05634553       0.03110167
Ni       5.19414144       2.95096133       2.24864850        3       1.00000000      -0.02327194      -0.01840886      -0.06208144
Ni       7.78605594       2.95815365       2.24808943        3       1.00000000      -0.00442740      -0.01470325      -0.10177230
Ni      10.38090747       2.96393692       2.29972712        3       1.00000000       0.02454077      -0.00546368       0.09860582
Pt       3.88423837       5.20677501       2.25866963        3       0.00000000      -0.00940703      -0.00716669       0.05486500
Ni       6.50720936       5.21274725       2.24157387        3       1.00000000      -0.00851419       0.04470710      -0.04429330
Pt       9.03480133       5.17799673       2.27713240        3       0.00000000      -0.05463152      -0.02127527      -0.02369945
Pt      11.67931318       5.15824098       2.21676044        3       0.00000000      -0.03875012      -0.04087499       0.04241942
Ni       5.19165774       7.45688877       2.21457871        3       1.00000000      -0.07135750       0.02626545       0.05842775
Ni       7.78979586       7.48214405       2.23251124        3       1.00000000       0.01735660       0.05975456       0.02674738
Pt      10.38370571       7.49090526       2.14152914        3       0.00000000       0.00718252      -0.05851512       0.07215464
Ni      12.99109042       7.45653950       2.19498421        3       1.00000000      -0.01827304      -0.02948332       0.05667307
Ni       0.00972348       1.55290964       4.35150212        2       1.00000000       0.01714406       0.05901867      -0.04743393
Ni       2.58902759       1.54134895       4.34322258        2       1.00000000      -0.02691594       0.04868511      -0.16371952
Pt       5.15609714       1.54791060       4.35104874        2       0.00000000      -0.02383928       0.00090898      -0.05584887
Ni       7.81516618       1.51623256       4.38474536        2       1.00000000       0.01971653      -0.00938444      -0.04542022
Ni       1.32165287       3.66590979       4.34802415        2       1.00000000       0.03000187      -0.07209383      -0.10774065
Ni       3.82918713       3.69791805       4.37419889        2       1.00000000      -0.09476889       0.02286154      -0.09354304
Pt       6.59977572       3.70839955       4.32711224        2       0.00000000       0.05663809      -0.01562030      -0.15614047
Ni       9.12128730       3.68175499       4.38816282        2       1.00000000       0.09431089      -0.12220314      -0.11711127
Ni       2.60096007       5.91247999       4.40694486        2       1.00000000       0.00412453      -0.00647301      -0.04564242
Pt       5.20377062       5.93128769       4.36672764        2       0.00000000       0.02097923       0.03999877      -0.03311043
Ni       7.81380637       5.92796112       4.39430559        2       1.00000000       0.01725442       0.04843068      -0.10505050
Pt      10.39310867       5.85451527       4.51072118        2       0.00000000       0.01671864      -0.05480176       0.00051795
Pt       3.89984383       8.19588318       4.36280952        2       0.00000000       0.00879429       0.00603771       0.10210657
Pt       6.50877457       8.26525668       4.30359239        2       0.00000000      -0.08049295       0.10587076       0.02269032
Pt       9.05041300       8.17691610       4.39118773        2       0.00000000       0.01285729      -0.00636089       0.01385902
Pt      11.70615614       8.17391832       4.36418220        2       0.00000000      -0.04868790       0.01913007       0.04979300
Pt       0.02405642      -0.02435629       6.63933490        1       0.00000000      -0.02857197      -0.00531946       0.18981134
Ni       2.61151449      -0.00369256       6.57779050        1       1.00000000      -0.05739988       0.03269102      -0.02818542
Pt       5.11850414      -0.01381876       6.66172388        1       0.00000000      -0.11228988       0.02778108       0.13360437
Pt       7.75004909      -0.03088333       6.66896172        1       0.00000000      -0.06707734      -0.02594520       0.23185961
Pt       1.34977859       2.22783716       6.45238839        1       0.00000000      -0.02019068       0.00611685      -0.04781240
Ni       3.88472887       2.21825932       6.48166071        1       1.00000000      -0.09543828       0.01883779      -0.15380123
Ni       6.49406721       2.21934077       6.49086678        1       1.00000000      -0.00309892      -0.07560484      -0.17975112
Pt       9.04926454       2.32040755       6.55296959        1       0.00000000      -0.03139928      -0.02140592       0.05081047
Pt       2.56212410       4.51978828       6.54439420        1       0.00000000      -0.04145256       0.07211591       0.03137417
Pt       5.20673121       4.37828645       6.50135485        1       0.00000000       0.00020560      -0.08783313       0.00271591
Ni       7.83480266       4.47752762       6.45442785        1       1.00000000       0.08355125       0.03452250      -0.29362880
Ni      10.36283483       4.48672360       6.58879033        1       1.00000000      -0.03122605      -0.04850374       0.03630462
Ni       3.89033475       6.67280777       6.56618400        1       1.00000000       0.03577758      -0.01066093      -0.04628919
Pt       6.59990794       6.66595855       6.52486874        1       0.00000000       0.07312977       0.00099105       0.04483837
Ni       9.11880321       6.64686599       6.58472248        1       1.00000000       0.05048824      -0.07827209      -0.01412576
Ni      11.66810901       6.67755397       6.59129317        1       1.00000000      -0.07352764       0.05447700      -0.02340822
