64
Lattice="9.838399171785165 -3.238913987471201e-14 -2.8118804869547462e-15 4.91919958589261 8.504125559541748 -0.0021908471681530246 -2.295890803575943e-15 -0.0020655505188577968 8.399053284298349" Properties=species:S:1:pos:R:3:tags:I:1:initial_magmoms:R:1:forces:R:3 unique_id=7b72e09cf94d4fcbb5fe34603b444d86 stress="-0.0002923161421386142 8.50765522138653e-17 7.076171316979623e-17 8.50765522138653e-17 -0.00029326263846252143 -3.935816090729237e-06 7.076171316979623e-17 -3.935816090729237e-06 -0.00024211293780960347" energy=-376.61551084788357 pbc="T T T"
Ni       0.00238500      -0.00515042       0.10543669        4       1.00000000       0.01842792       0.00647357       0.08739926
Ni       2.45721479      -0.00515042       0.10543669        4       1.00000000      -0.01842792       0.00647357       0.08739926
Ni       4.92077541       0.00497887       0.10490644        4       1.00000000       0.01937964      -0.00424151       0.05603501
Ni       7.37722355       0.00497887       0.10490644        4       1.00000000      -0.01937964      -0.00424151       0.05603501
Ni       1.22979990       2.05406712       0.11160637        4       1.00000000       0.00000000      -0.03858549       0.14357554
Ni       3.72440197       2.07039976       0.10266339        4       1.00000000       0.05759110      -0.05581887       0.05387617
Ni       6.14899948       2.11660714       0.10446726        4       1.00000000      -0.00000000      -0.04411126       0.04932997
Ni       8.57359700       2.07039976       0.10266339        4       1.00000000      -0.05759110      -0.05581887       0.05387617
Pt       2.52780065       4.25393730       0.06941054        4       0.00000000       0.12632444       0.00305502       0.03577340
Ni       4.97965202       4.25404991       0.10529084        4       1.00000000       0.00279865       0.00903614       0.11252702
Ni       7.31834694       4.25404991       0.10529084        4       1.00000000      -0.00279865       0.00903614       0.11252702
Pt       9.77019832       4.25393730       0.06941054        4       0.00000000      -0.12632444       0.00305502       0.03577340
Ni       3.72518192       6.43214585       0.10537032        4       1.00000000       0.04519874       0.04661616       0.11207701
Ni       6.14899948       6.38705217       0.10570293        4       1.00000000       0.00000000       0.04312591       0.10248441
Ni       8.57281704       6.43214585       0.10537032        4       1.00000000      -0.04519874       0.04661616       0.11207701
Ni      11.06819907       6.44929430       0.10285740        4       1.00000000      -0.00000000       0.05822720       0.07147344
Ni       1.22979990       0.68956430       2.13253073        3       1.00000000       0.00000000      -0.04386692       0.12285297
Ni       3.69520727       0.69644479       2.12941180        3       1.00000000       0.03283656      -0.05296020       0.07890277
Ni       6.14899948       0.70800776       2.12660125        3       1.00000000      -0.00000000       0.00112965       0.05980081
Ni       8.60279169       0.69644479       2.12941180        3       1.00000000      -0.03283656      -0.05296020       0.07890277
Ni       2.48781021       2.78781093       2.12513803        3       1.00000000       0.10333964      -0.03346608      -0.10917649
Ni       4.92957293       2.82988701       2.12603732        3       1.00000000       0.03327799      -0.01318433       0.03330692
Ni       7.36842603       2.82988701       2.12603732        3       1.00000000      -0.03327799      -0.01318433       0.03330692
Ni       9.81018876       2.78781093       2.12513803        3       1.00000000      -0.10333964      -0.03346608      -0.10917649
Ni       3.72763932       4.98136743       2.17101321        3       1.00000000      -0.01875054      -0.00906283      -0.00777737
Ni       6.14899948       4.96481668       2.13560543        3       1.00000000       0.00000000       0.02937076       0.12422414
Ni       8.57035964       4.98136743       2.17101321        3       1.00000000       0.01875054      -0.00906283      -0.00777737
Ni      11.06819907       5.01248338       2.14461695        3       1.00000000      -0.00000000       0.06461189      -0.14694690
Ni       4.92479601       7.09177611       2.13155839        3       1.00000000       0.02228987       0.01899186       0.11473235
Ni       7.37320296       7.09177611       2.13155839        3       1.00000000      -0.02228987       0.01899186       0.11473235
Ni       9.83273879       7.10132636       2.12821964        3       1.00000000      -0.01938697       0.04247557       0.05213121
Ni      12.30365934       7.10132636       2.12821964        3       1.00000000       0.01938697       0.04247557       0.05213121
Ni      -0.02565283       1.37123215       4.17699738        2       1.00000000      -0.02092229      -0.04309110      -0.02547501
Ni       2.48525262       1.37123215       4.17699738        2       1.00000000       0.02092229      -0.04309110      -0.02547501
Ni       4.92690086       1.41134937       4.17291179        2       1.00000000       0.02497633      -0.01899123      -0.05747830
Ni       7.37109811       1.41134937       4.17291179        2       1.00000000      -0.02497633      -0.01899123      -0.05747830
Pt       1.22979990       3.52823842       4.14240381        2       0.00000000       0.00000000       0.00908529       0.04616002
Ni       3.74572420       3.53677948       4.16665042        2       1.00000000       0.03519544      -0.02545879      -0.07772998
Ni       6.14899948       3.54151678       4.17315383        2       1.00000000       0.00000000      -0.00744631      -0.04903172
Ni       8.55227476       3.53677948       4.16665042        2       1.00000000      -0.03519544      -0.02545879      -0.07772998
Ni       2.48341617       5.71843494       4.16778113        2       1.00000000      -0.00515411       0.02768153      -0.06576864
Ni       4.92807722       5.67402684       4.17879975        2       1.00000000       0.02809694       0.02507614       0.01817145
Ni       7.36992175       5.67402684       4.17879975        2       1.00000000      -0.02809694       0.02507614       0.01817145
Ni       9.81458280       5.71843494       4.16778113        2       1.00000000       0.00515411       0.02768153      -0.06576864
Ni       3.69001010       7.79566133       4.17292012        2       1.00000000       0.00223399       0.00124338      -0.03247148
Ni       6.14899948       7.78665106       4.17470168        2       1.00000000       0.00000000      -0.02065502      -0.00333441
Ni       8.60798886       7.79566133       4.17292012        2       1.00000000      -0.00223399       0.00124338      -0.03247148
Ni      11.06819907       7.80500971       4.17108298        2       1.00000000       0.00000000       0.03733084      -0.05687237
Ni      -0.00205588      -0.00771831       6.19995541        1       1.00000000      -0.00893315      -0.03082390      -0.02340281
Ni       2.46165567      -0.00771831       6.19995541        1       1.00000000       0.00893315      -0.03082390      -0.02340281
Ni       4.91967149      -0.00072776       6.19673893        1       1.00000000       0.00276063       0.00616537      -0.04833031
Ni       7.37832747      -0.00072776       6.19673893        1       1.00000000      -0.00276063       0.00616537      -0.04833031
Ni       1.22979990       2.09236488       6.22232995        1       1.00000000       0.00000000      -0.02139358      -0.01986654
Ni       3.69745414       2.11878589       6.19321921        1       1.00000000       0.00877546       0.00566322      -0.06887288
Ni       6.14899948       2.12368975       6.19617241        1       1.00000000      -0.00000000      -0.00511108      -0.05268947
Ni       8.60054482       2.11878589       6.19321921        1       1.00000000      -0.00877546       0.00566322      -0.06887288
Ni       2.49107057       4.26773322       6.12665166        1       1.00000000       0.03888796       0.03028790      -0.33669829
Ni       4.92918699       4.25096897       6.19326866        1       1.00000000       0.02888452      -0.00012259      -0.03201329
Ni       7.36881197       4.25096897       6.19326866        1       1.00000000      -0.02888452      -0.00012259      -0.03201329
Ni       9.80692840       4.26773322       6.12665166        1       1.00000000      -0.03888796       0.03028790      -0.33669829
Ni       3.69432488       6.38471381       6.19308636        1       1.00000000       0.01369305       0.02551021      -0.02809726
Ni       6.14899948       6.37671310       6.19780918        1       1.00000000       0.00000000       0.00254791      -0.00098091
Ni       8.60367409       6.38471381       6.19308636        1       1.00000000      -0.01369305       0.02551021      -0.02809726
Ni      11.06819907       6.38943825       6.18741810        1       1.00000000      -0.00000000       0.01363091      -0.07345993
