64
Lattice="10.187788945228114 0.039812632376533576 -0.04556327401013807 5.128373223643666 8.81890119528677 -0.03812234335722546 -0.037202257445150703 -0.014463356653068523 8.729552490838387" Properties=species:S:1:pos:R:3:tags:I:1:initial_magmoms:R:1:forces:R:3 unique_id=0942dce812b04c7e8e6512e2dafeecda stress="8.54764183021578e-05 1.1225560511507829e-07 7.6009130095147695e-06 1.1225560511507829e-07 9.653231876024376e-05 2.7525030091712655e-06 7.6009130095147695e-06 2.7525030091712655e-06 0.00011065524724084008" energy=-391.19986597548336 pbc="T T T"
Ni       0.03245117      -0.04628612       0.19185117        4       1.00000000       0.07783204      -0.06657744       0.25935819
Ni       2.49723530      -0.01588526       0.19322884        4       1.00000000      -0.05467643      -0.01645946       0.20219029
Pt       5.11581976       0.00525852       0.13748117        4       0.00000000      -0.03241935      -0.06632494       0.32002088
Ni       7.64998222      -0.01245151       0.13565424        4       1.00000000       0.01941041      -0.08998569       0.21257584
Ni       1.27319832       2.21851328       0.11248263        4       1.00000000      -0.04336551       0.06878056       0.22874057
Pt       3.78713066       2.28799378       0.16821438        4       0.00000000      -0.11009083       0.13223579       0.19772582
Ni       6.37853521       2.27064512       0.08402705        4       1.00000000      -0.02171845       0.16107919       0.21815361
Pt       8.92056604       2.29921039       0.09486464        4       0.00000000      -0.02953517       0.05934899       0.22759234
Ni       2.53734020       4.45225657       0.08651173        4       1.00000000      -0.03189146       0.09274032       0.14436527
Ni       5.12848862       4.46330430       0.07851442        4       1.00000000      -0.02806295       0.13667830       0.12342665
Ni       7.62362576       4.46919939       0.07207232        4       1.00000000      -0.10854768       0.11977249       0.16753842
Ni      10.22801202       4.46899309       0.05739093        4       1.00000000       0.04847793       0.13235470       0.14805417
Ni       3.84980311       6.59260569       0.08162459        4       1.00000000       0.04195237      -0.05361652       0.12867797
Ni       6.37797879       6.61099471       0.07835426        4       1.00000000      -0.07666109      -0.00935304       0.05963100
Ni       8.89906658       6.58245444       0.14015033        4       1.00000000      -0.13119563      -0.06836436       0.25794287
Ni      11.52164249       6.59036689       0.02375138        4       1.00000000       0.05670510      -0.07245038       0.01239115
Ni       1.30702079       0.73702205       2.17124704        3       1.00000000       0.01776595       0.04692756       0.06008898
Ni       3.75473544       0.76329155       2.17905664        3       1.00000000      -0.09341810       0.00810883      -0.14637336
Ni       6.37882757       0.78956465       2.17581412        3       1.00000000       0.01398412      -0.01595965      -0.05780154
Pt       8.89732120       0.73229724       2.15227333        3       0.00000000       0.02868371       0.11793004      -0.16265083
Ni       2.51625443       2.97315542       2.23647607        3       1.00000000       0.02745909       0.05992823       0.08167101
Ni       5.10828418       3.00410091       2.15817461        3       1.00000000      -0.06755426       0.19903411      -0.11990327
Ni       7.61722194       3.00464342       2.17015052        3       1.00000000       0.03674876       0.03496234       0.02881124
Ni      10.23663909       3.03102230       2.15449952        3       1.00000000       0.04787276       0.07717827      -0.02171371
Ni       3.82750174       5.13921545       2.16430774        3       1.00000000       0.00170111      -0.04059796       0.00522424
Ni       6.35776816       5.16248094       2.10183776        3       1.00000000      -0.07863615       0.01213975      -0.07414130
Ni       8.91783975       5.11232015       2.12268498        3       1.00000000      -0.01427000      -0.17534915      -0.00901372
Ni      11.50677105       5.12391326       2.13810159        3       1.00000000       0.15323089      -0.16095574       0.07176758
Ni       5.14214163       7.28981321       2.13075730        3       1.00000000      -0.00457053      -0.18182356       0.02156418
Ni       7.59932646       7.34677036       2.09600256        3       1.00000000      -0.08686307      -0.07233947      -0.04988907
Pt      10.25508533       7.26357765       2.16506348        3       0.00000000       0.05875555      -0.06529339      -0.10650601
Ni      12.76821387       7.30717785       2.09066673        3       1.00000000       0.09758297      -0.25453386      -0.05047131
Pt       0.06965473       1.52014628       4.28056180        2       0.00000000       0.04233208       0.02801175       0.12675134
Ni       2.52853226       1.52678888       4.26604625        2       1.00000000       0.10501101       0.16313056      -0.11701375
Pt       5.09072429       1.49813179       4.19304353        2       0.00000000      -0.06480166       0.00217199      -0.01918369
Ni       7.62744545       1.48696671       4.27477666        2       1.00000000       0.05340650      -0.04236429      -0.06105858
Ni       1.30101004       3.71449111       4.32332472        2       1.00000000       0.06954751       0.02718209      -0.08755058
Ni       3.75877262       3.75190228       4.26376536        2       1.00000000      -0.03220054       0.08585764      -0.19505855
Pt       6.35137904       3.69491178       4.29378494        2       0.00000000       0.00063530      -0.03699851      -0.01793615
Ni       8.95493920       3.74131705       4.23789014        2       1.00000000       0.10686913       0.05493720      -0.20906104
Ni       2.53049753       5.81402726       4.31719800        2       1.00000000      -0.04602488      -0.04078303      -0.19297620
Ni       5.05771119       5.84839768       4.30524091        2       1.00000000      -0.05217165      -0.13381102      -0.15843761
Pt       7.62189600       5.87838650       4.22356109        2       0.00000000       0.01754067       0.01917098      -0.07155718
Ni      10.25799661       5.83790752       4.28793600        2       1.00000000       0.03146016      -0.08831558       0.00636781
Pt       3.81964743       7.96176660       4.25520789        2       0.00000000      -0.00232101      -0.11301883       0.11846796
Ni       6.35843145       8.06588528       4.23873274        2       1.00000000      -0.08162171      -0.01098385      -0.15027568
Pt       8.88315181       8.09604437       4.19935335        2       0.00000000      -0.07271201       0.01661995       0.03217719
Ni      11.49538691       8.04027322       4.24192825        2       1.00000000       0.01677547      -0.10752681      -0.02887435
Pt      -0.02199329      -0.07283760       6.53614932        1       0.00000000       0.13502365      -0.08595580       0.15778592
Pt       2.50136797       0.01103330       6.49545352        1       0.00000000      -0.11402199       0.01049046       0.14425668
Pt       5.09417636       0.00345209       6.39979089        1       0.00000000       0.10786724       0.01247921      -0.32650925
Pt       7.61658111      -0.02545313       6.46747460        1       0.00000000      -0.09777927      -0.07384486       0.06100869
Ni       1.25655573       2.26859488       6.45789387        1       1.00000000       0.03941500       0.09979515      -0.07437089
Pt       3.78186432       2.34607454       6.38224242        1       0.00000000       0.02852255       0.21504023      -0.26222159
Ni       6.34809687       2.26995976       6.44897076        1       1.00000000      -0.04622727       0.03823193      -0.06093558
Pt       8.88353888       2.33801215       6.34848182        1       0.00000000       0.01398237       0.12350341      -0.37006380
Ni       2.51134099       4.46108994       6.42285091        1       1.00000000       0.00922507       0.08819032      -0.14672193
Ni       5.09148231       4.46850376       6.44210592        1       1.00000000      -0.02939233       0.10256895      -0.06670994
Ni       7.57593779       4.42811834       6.45215401        1       1.00000000      -0.15990707       0.02610644      -0.02678765
Ni      10.25501082       4.42656995       6.39369241        1       1.00000000       0.21846574      -0.03578146      -0.15744821
Ni       3.81566727       6.51225926       6.44365303        1       1.00000000      -0.01364969      -0.16803767      -0.07003067
Ni       6.33372100       6.54888888       6.43757880        1       1.00000000      -0.00404958      -0.03941891      -0.12431088
Pt       8.94014555       6.49805638       6.48988813        1       0.00000000       0.04101091      -0.16219613       0.15696859
Ni      11.50603163       6.56040957       6.38429549        1       1.00000000       0.06510420      -0.02366638      -0.18773860
