64
Lattice="10.245617699614217 -0.016073904768930943 0.01364743693299933 5.108888439939203 8.927856559384987 0.08081859090791846 0.0 0.0 21.608292908225746" Properties=species:S:1:pos:R:3:tags:I:1:initial_magmoms:R:1:forces:R:3 unique_id=cfe9147ebab948b2b05bb323bf88c0fa energy=-376.1774303394973 stress="0.005208760204526928 -0.0001919209376540361 -0.00011278829787912244 -0.0001919209376540361 0.005482007997141714 0.0004786750523816832 -0.00011278829787912244 0.0004786750523816832 -0.0017332185155298618" pbc="T T T"
Pt       0.08797784       0.09418987       0.00000000        0       0.00000000      -0.12928920       0.03697295      -0.16496745
Ni       2.56180638       0.03849815       0.01313742        0       1.00000000      -0.03701826       0.16412316       0.17399825
Pt       5.03014849      -0.05020187       0.03276545        0       0.00000000       0.08117527       0.08037803       0.18737481
Pt       7.68232754      -0.00696807       0.15369971        2       0.00000000       0.02715418       0.04487683      -0.48904887
Ni       1.28382231       2.24036899       0.06432342        1       1.00000000      -0.03118069       0.01460766       0.34552908
Ni       3.77523680       2.19722970       0.04106532        0       1.00000000      -0.13027005      -0.04251151       0.30259271
Pt       6.40131201       2.21936287       0.03459752        0       0.00000000       0.11315605      -0.00892265      -0.07856568
Ni       9.01870436       2.25165320       0.15914982        2       1.00000000       0.10532835       0.11702231      -0.04161736
Pt       2.45037433       4.40787180       0.07347676        1       0.00000000       0.11151968       0.03683855       0.20188343
Pt       5.08736030       4.45510316       0.00718502        0       0.00000000      -0.11304135       0.08393496      -0.30091119
Pt       7.76697394       4.48193449       0.07878331        1       0.00000000      -0.06190169      -0.15622915      -0.71818232
Ni      10.25521782       4.45196801       0.07108727        1       1.00000000      -0.04119680      -0.11218846       0.21271647
Pt       3.78657425       6.68891809       0.14918425        1       0.00000000      -0.06442576      -0.09814933      -0.71713148
Ni       6.43334775       6.73192147       0.16420680        2       1.00000000       0.01902277       0.02422661      -0.41630440
Ni       8.97844671       6.69283979       0.07199739        1       1.00000000       0.01382290      -0.07104153       0.15582426
Ni      11.45467527       6.65830974       0.11601068        1       1.00000000      -0.12064742      -0.06011663       0.32541006
Ni       1.30446770       0.83561632       2.16062746        3       1.00000000       0.08240022       0.14922498       0.04260462
Ni       3.83669941       0.76822336       2.18176387        3       1.00000000       0.01499108       0.05218057       0.12704354
Ni       6.40815047       0.74539605       2.22306224        3       1.00000000      -0.00699251       0.12688332       0.17634804
Ni       8.94453562       0.80173080       2.21680624        3       1.00000000      -0.15526340       0.09919994       0.22583133
Ni       2.51473117       2.98500719       2.19920825        3       1.00000000      -0.10264782       0.03102580       0.13163300
Pt       5.06436018       2.91978166       2.29566943        4       0.00000000      -0.08431975       0.06084888       0.00005906
Ni       7.71933726       2.92267967       2.24421029        3       1.00000000       0.02520066      -0.13370344       0.26944158
Ni      10.27583524       2.96536532       2.17305987        3       1.00000000       0.15976191       0.05685046      -0.08635196
Ni       3.75771284       5.19432643       2.26209575        4       1.00000000      -0.13034153      -0.11460810       0.25108066
Pt       6.41009371       5.18746851       2.26273967        4       0.00000000      -0.00970880      -0.12216497       0.08827221
Pt       9.07782402       5.17397072       2.24921143        3       0.00000000       0.18255786      -0.02052759      -0.06239483
Ni      11.56303246       5.20726238       2.24186118        3       1.00000000       0.19075851      -0.04216782       0.25677896
Pt       5.04995546       7.52819673       2.28043557        4       0.00000000      -0.11555591       0.13063231      -0.00592596
Pt       7.75903200       7.52593883       2.20127348        3       0.00000000       0.14535276       0.04767805       0.00867731
Ni      10.28756174       7.45418962       2.23435958        3       1.00000000       0.17570737       0.00319826       0.08781687
Ni      12.74457354       7.41754613       2.29062331        4       1.00000000      -0.06295231      -0.14207154       0.14727873
Pt      -0.03444550       1.57948802       4.26662782        5       0.00000000      -0.02703762       0.11829505      -0.13071051
Pt       2.64193109       1.58183451       4.35503178        6       0.00000000       0.05071834       0.04496240      -0.07767287
Ni       5.14806298       1.52728623       4.39012363        6       1.00000000       0.06507060      -0.02288074       0.01603801
Ni       7.65576544       1.55525992       4.30476192        5       1.00000000      -0.03280608       0.07495151      -0.30797883
Ni       1.30520657       3.77620883       4.37095411        6       1.00000000       0.02731315      -0.00503969      -0.16665852
Ni       3.82376708       3.74807592       4.39511875        6       1.00000000      -0.07748088      -0.00649561      -0.07666330
Ni       6.40361662       3.67954567       4.38310151        6       1.00000000       0.01619609      -0.18864582      -0.18633167
Ni       8.95366734       3.73222424       4.34148590        5       1.00000000      -0.03388142      -0.08152189      -0.24804195
Ni       2.53294610       5.94600522       4.34898147        5       1.00000000      -0.01223768      -0.09239498      -0.30190561
Pt       5.07926304       5.89223478       4.37363956        6       0.00000000       0.04732471      -0.04146809      -0.02998541
Ni       7.70422984       5.98390082       4.37792811        6       1.00000000       0.05566672       0.06738277      -0.23793859
Pt      10.25646388       5.93766769       4.45105706        7       0.00000000      -0.00711063      -0.08872644       0.04349817
Ni       3.80684581       8.23657534       4.38446700        6       1.00000000      -0.10062469       0.09062772      -0.21996000
Pt       6.43335727       8.23469973       4.42383690        6       0.00000000       0.02340270      -0.02009324      -0.01323296
Ni       8.97743734       8.22275028       4.44439267        6       1.00000000       0.00154479       0.00508990      -0.05851647
Pt      11.50168700       8.23459045       4.33651609        5       0.00000000       0.06435947       0.01485071       0.00024353
Ni       0.03762508       0.06456972       6.41191932        8       1.00000000      -0.05648056       0.00536167       0.23230194
Ni       2.60818612       0.07568716       6.50162813        9       1.00000000       0.16673664       0.06276290      -0.21341555
Ni       5.07596874       0.04519956       6.40237552        8       1.00000000      -0.09867440       0.12276642      -0.06676751
Pt       7.63999087       0.05712453       6.43667369        8       0.00000000      -0.03270181       0.10341053       0.56846130
Ni       1.32946745       2.29142809       6.51298315        9       1.00000000       0.12414789       0.08165777      -0.36404616
Ni       3.85618627       2.28037166       6.49893239        9       1.00000000       0.04258976       0.00534907      -0.34692055
Ni       6.35144591       2.27420865       6.39901732        8       1.00000000      -0.04503968      -0.03450221       0.01484630
Pt       9.02494123       2.28652041       6.54165189        9       0.00000000      -0.04103480       0.03804250       0.13500125
Ni       2.53787195       4.46259063       6.42402660        8       1.00000000       0.00028789      -0.13171411      -0.15892239
Ni       5.09566087       4.43946589       6.42706221        8       1.00000000      -0.05024517      -0.17441422       0.25743626
Pt       7.69158754       4.49967430       6.39892264        8       0.00000000      -0.02240073      -0.01691113       0.64591914
Ni      10.29660618       4.51033297       6.54127732        9       1.00000000       0.09832208      -0.16244760      -0.18275820
Pt       3.76867891       6.68820975       6.47289770        9       0.00000000      -0.17599482      -0.02701766       0.78314745
Pt       6.45533562       6.77365836       6.60829291       10       0.00000000       0.01552502      -0.08531710       0.49829354
Ni       9.00030288       6.76134942       6.54835113        9       1.00000000      -0.06979712       0.08778836      -0.24458858
Ni      11.47926873       6.70408491       6.55631150       10       1.00000000       0.03318595       0.01999036      -0.19896473
