64
Lattice="10.37396672173528 -0.04319251887208736 0.02345566303384436 5.1495775422709755 8.958054258085877 -0.0016845567106338686 0.019151468670526698 -0.012645320890148639 8.900427814136025" Properties=species:S:1:pos:R:3:tags:I:1:initial_magmoms:R:1:forces:R:3 unique_id=26389b72da384ffc92097bf008a0ebfe stress="0.0004427677382560155 -2.5251976778585593e-06 -4.370495335186097e-06 -2.5251976778585593e-06 0.000436832625621969 -2.5435798178896163e-07 -4.370495335186097e-06 -2.5435798178896163e-07 0.00040831989545588726" energy=-401.59790323655113 pbc="T T T"
Ni       0.04325159       0.01933704       0.16683741        4       1.00000000       0.18297940       0.05331001       0.22562433
Ni       2.55615151       0.00042108       0.19813721        4       1.00000000      -0.12051477       0.07404210       0.41194229
Pt       5.11673332      -0.06305805       0.13236542        4       0.00000000      -0.10179680       0.04044194       0.22100540
Pt       7.83986461      -0.11580273       0.17237901        4       0.00000000       0.02232143      -0.11303779       0.30323010
Ni       1.25569696       2.24650954       0.10172962        4       1.00000000      -0.16448097       0.04659989       0.27066438
Pt       3.78454371       2.28425956       0.12523427        4       0.00000000      -0.12206152       0.10708226      -0.07574702
Pt       6.48359090       2.27294352       0.17097725        4       0.00000000       0.00865353       0.09239432       0.21252464
Ni       9.12199041       2.22488794       0.17834479        4       1.00000000       0.10945916       0.08203765       0.26549217
Ni       2.56637961       4.49385187       0.07319513        4       1.00000000       0.04938780       0.05543655       0.04026852
Ni       5.13383799       4.49274757       0.17974381        4       1.00000000      -0.05961970       0.10401829       0.35594621
Pt       7.84852107       4.49036197       0.12409604        4       0.00000000       0.13993758       0.02641884      -0.10233921
Ni      10.38604476       4.43448753       0.08947152        4       1.00000000       0.13868557      -0.09589716       0.14029161
Ni       3.85402643       6.67633582       0.18176136        4       1.00000000       0.00249273      -0.21691891       0.38131395
Pt       6.43430024       6.74197249       0.20188704        4       0.00000000      -0.02985419      -0.01380607      -0.00172332
Ni       9.05694548       6.67238111       0.08493269        4       1.00000000       0.01190220      -0.03476339       0.10647482
Ni      11.64970704       6.63060896       0.08620542        4       1.00000000       0.03248296      -0.15396192       0.07562692
Ni       1.33213661       0.75542275       2.19980671        3       1.00000000       0.17548525       0.13320062      -0.06594846
Ni       3.83853944       0.75854825       2.24608807        3       1.00000000      -0.06709107       0.07124347      -0.02181991
Pt       6.43804740       0.77438884       2.31477327        3       0.00000000      -0.12081678       0.08172310      -0.11874473
Pt       9.19931404       0.74948332       2.24254136        3       0.00000000       0.07449114       0.06556468      -0.00873384
Ni       2.58839428       2.97266039       2.24013780        3       1.00000000      -0.01515095       0.03800742       0.06575937
Ni       5.13117788       3.02366168       2.26989002        3       1.00000000      -0.23339751       0.13626949       0.04029657
Ni       7.81088882       3.02036736       2.26126945        3       1.00000000       0.14523172       0.15971892      -0.02649420
Ni      10.37652529       2.95268934       2.23684579        3       1.00000000       0.11851435       0.11355718       0.04609203
Ni       3.90538949       5.21426386       2.24101100        3       1.00000000       0.09820439      -0.05652208       0.12426933
Ni       6.45165542       5.21427310       2.26186792        3       1.00000000      -0.04450927       0.13444921      -0.06586000
Ni       9.03031084       5.16238495       2.27102063        3       1.00000000      -0.05779145      -0.17129661       0.20034478
Pt      11.70679712       5.12625630       2.18710348        3       0.00000000       0.11265208      -0.12229357       0.03366199
Ni       5.15526456       7.41780110       2.22881004        3       1.00000000      -0.07435676      -0.18858824      -0.05954334
Ni       7.73295333       7.44072754       2.23114599        3       1.00000000      -0.02601594      -0.11343690      -0.08328656
Pt      10.28993359       7.34932552       2.21052953        3       0.00000000       0.00776024      -0.15054337      -0.21979837
Ni      12.98017443       7.36777048       2.24334429        3       1.00000000       0.06006289      -0.21212354      -0.00296147
Ni       0.02235223       1.51638750       4.40950149        2       1.00000000       0.13723108       0.01570482      -0.05725630
Pt       2.62403318       1.53552630       4.37049031        2       0.00000000       0.01330075      -0.03278387      -0.10529085
Ni       5.16185544       1.51451249       4.42292670        2       1.00000000      -0.00997204       0.15499667      -0.06170573
Pt       7.84253662       1.53581337       4.39257562        2       0.00000000       0.11284892       0.06142713       0.10832227
Pt       1.29332043       3.72306484       4.46097341        2       0.00000000      -0.02430156      -0.05417667      -0.05434030
Ni       3.88873229       3.74839203       4.40159266        2       1.00000000      -0.02231111       0.11958994      -0.24323829
Pt       6.45590211       3.79312802       4.32103750        2       0.00000000      -0.07445821      -0.04439258      -0.03377896
Ni       9.06588613       3.71707023       4.41621860        2       1.00000000      -0.02158435       0.02333454      -0.25314456
Ni       2.60481633       5.91743755       4.41176787        2       1.00000000       0.05992414      -0.21663863      -0.17575785
Ni       5.14872427       5.92258693       4.37316678        2       1.00000000      -0.09550371      -0.05981627      -0.21337159
Ni       7.76873109       5.91106997       4.40063558        2       1.00000000      -0.04400070      -0.00995181      -0.26533503
Pt      10.30657800       5.86582408       4.50446544        2       0.00000000      -0.07277253      -0.03834627      -0.04580598
Pt       3.88980102       8.12976972       4.33380978        2       0.00000000      -0.02435477      -0.13442054       0.02488243
Pt       6.44683803       8.16298963       4.29691962        2       0.00000000      -0.07023154      -0.04288567      -0.07778433
Pt       9.01342132       8.16916047       4.36899108        2       0.00000000       0.02270205       0.02441692      -0.02102290
Pt      11.66446310       8.11306847       4.39650988        2       0.00000000       0.05425242      -0.13065632       0.01656749
Pt       0.03653086       0.03853590       6.64627571        1       0.00000000      -0.01535330       0.01123747       0.03771514
Pt       2.61544621       0.03609787       6.68369065        1       0.00000000      -0.01360368       0.08040199       0.21556562
Pt       5.17701415      -0.07251599       6.56195173        1       0.00000000       0.00245318      -0.11665315      -0.35683102
Pt       7.78737442      -0.06043996       6.60234090        1       0.00000000       0.03164078       0.07015664      -0.22175716
Ni       1.32706465       2.28815903       6.61497674        1       1.00000000       0.11188554       0.13783350      -0.04846116
Ni       3.85564483       2.25139803       6.54256477        1       1.00000000      -0.11420616       0.06850372      -0.24224159
Pt       6.46482571       2.24737511       6.55954350        1       0.00000000       0.03229695       0.10072795      -0.23261662
Pt       9.16136764       2.32700867       6.64401546        1       0.00000000       0.14475672       0.21214091       0.16008320
Ni       2.53766883       4.44633675       6.60617700        1       1.00000000      -0.18244947      -0.07513047      -0.12915163
Pt       5.10783126       4.42440836       6.61399768        1       0.00000000      -0.14029769      -0.06105101       0.09534928
Ni       7.82043352       4.47514297       6.54187776        1       1.00000000       0.07877840       0.08728217      -0.29926108
Ni      10.39006169       4.47451424       6.64193455        1       1.00000000       0.10188367       0.17219719       0.02727697
Pt       3.79833706       6.63867758       6.62282588        1       0.00000000      -0.14389980      -0.01505446       0.16956234
Pt       6.53275810       6.64274132       6.54658845        1       0.00000000      -0.00801004      -0.01880385      -0.18596371
Ni       9.08783324       6.63677502       6.62761587        1       1.00000000      -0.00522187      -0.10092107      -0.08297215
Ni      11.62573583       6.61312458       6.63459354        1       1.00000000      -0.07466882      -0.16059530      -0.11606491
