64
Lattice="10.328765519666602 -0.013441949385045676 0.03521912631555274 5.152741690189462 8.88275956473729 -0.002050766778186898 0.028756296219910542 -0.018535936824112736 8.808404021402293" Properties=species:S:1:pos:R:3:tags:I:1:initial_magmoms:R:1:forces:R:3 unique_id=d1b09e8ef9f841dba67e0c72b45d622c stress="0.00022525478330080728 4.928798654643915e-06 -1.6196953162056596e-05 4.928798654643915e-06 0.0002313224759717472 1.082507206150279e-05 -1.6196953162056596e-05 1.082507206150279e-05 0.00022071969579089135" energy=-398.2632470599994 pbc="T T T"
Ni      -0.02061483       0.02166112       0.20581554        4       1.00000000      -0.07845313       0.09837463       0.35857061
Ni       2.58512459      -0.00089860       0.21978716        4       1.00000000       0.02595743      -0.00860819       0.39204898
Ni       5.16730712      -0.02062040       0.18157504        4       1.00000000       0.00303279       0.14958873       0.24927609
Ni       7.77654099      -0.04907353       0.13660509        4       1.00000000       0.09942729      -0.10589180       0.20361278
Ni       1.27561274       2.20845567       0.18051271        4       1.00000000      -0.04119381      -0.09859851       0.32400982
Pt       3.81609119       2.21772787       0.11996275        4       0.00000000      -0.02886809       0.03972025      -0.13504873
Pt       6.48519591       2.15099590       0.21071181        4       0.00000000       0.08358067      -0.11225881       0.18635680
Ni       9.05657718       2.17178959       0.17433964        4       1.00000000       0.00863214      -0.19010134       0.12127609
Ni       2.56675288       4.45803453       0.05462014        4       1.00000000      -0.00843403       0.01292635      -0.04750689
Ni       5.15551263       4.43993063       0.16443617        4       1.00000000       0.21095041      -0.10113539       0.21934338
Pt       7.81739987       4.44400360       0.11989451        4       0.00000000       0.16821625      -0.02383030      -0.10207633
Ni      10.35167887       4.44047216       0.08242517        4       1.00000000       0.10697161      -0.01823000       0.00487491
Ni       3.83123167       6.68732421       0.08571788        4       1.00000000      -0.05941254       0.11875599       0.07988782
Pt       6.42373632       6.70921789       0.20731866        4       0.00000000      -0.06866653       0.03970956       0.16249528
Ni       9.05591675       6.66814420       0.09164407        4       1.00000000       0.00811920       0.02756307       0.00080514
Ni      11.63428930       6.66202909       0.07568912        4       1.00000000       0.12218526       0.07598896      -0.08386702
Ni       1.29548779       0.71944303       2.16940010        3       1.00000000      -0.03193702       0.00913859      -0.01129025
Ni       3.87487475       0.74958004       2.21384680        3       1.00000000       0.06116595       0.05010454       0.03411768
Ni       6.48875861       0.73189016       2.26728155        3       1.00000000       0.09012479       0.03216703       0.15496052
Ni       9.01795503       0.70653489       2.21857482        3       1.00000000      -0.14936063       0.00042587      -0.01293049
Ni       2.59172563       2.93605300       2.20953742        3       1.00000000      -0.05529200       0.06668604      -0.00954411
Ni       5.16280353       2.92519294       2.25555136        3       1.00000000      -0.07770176      -0.14448684       0.03382506
Ni       7.75506911       2.92972351       2.26034816        3       1.00000000       0.06024254      -0.10126180      -0.05986096
Pt      10.28082840       2.88468134       2.22952497        3       0.00000000      -0.07567651       0.00317566       0.10672943
Pt       3.89558743       5.16750001       2.16126730        3       0.00000000      -0.04061452      -0.00508956      -0.03969453
Ni       6.49346198       5.16202041       2.23383636        3       1.00000000       0.12254994       0.02345862      -0.05324008
Ni       9.00537059       5.17375196       2.27114910        3       1.00000000      -0.03676653      -0.00554739       0.16940006
Pt      11.61286723       5.17924010       2.18928510        3       0.00000000      -0.05190583       0.02022379      -0.05795800
Ni       5.13648672       7.44037348       2.19628584        3       1.00000000      -0.14682827       0.06043925      -0.07379503
Ni       7.74633101       7.39307196       2.21658741        3       1.00000000       0.03119616      -0.08214774      -0.00344907
Pt      10.30151436       7.41453794       2.14302074        3       0.00000000       0.00983081      -0.04905753      -0.02657688
Ni      12.93097304       7.42481826       2.19194328        3       1.00000000      -0.00851047       0.02384151      -0.13009422
Ni      -0.01709587       1.50079309       4.35231380        2       1.00000000       0.01027671       0.08905149      -0.01602709
Pt       2.64510946       1.52870857       4.29782143        2       0.00000000      -0.04724841       0.03634827      -0.01455917
Ni       5.18495586       1.48066272       4.34764484        2       1.00000000       0.07563578      -0.04132307      -0.19106690
Ni       7.78081322       1.47532021       4.34591270        2       1.00000000       0.07296672       0.05942416      -0.20387866
Pt       1.27585209       3.77306743       4.39649055        2       0.00000000       0.01701480      -0.01934637       0.04402354
Ni       3.88171361       3.68341557       4.37506914        2       1.00000000       0.02760955       0.03470245      -0.17985183
Pt       6.51686656       3.65915097       4.28635643        2       0.00000000      -0.03909138      -0.07605514       0.07054313
Ni       9.04620792       3.71018509       4.39205687        2       1.00000000       0.02869031       0.06015976      -0.15128976
Ni       2.57366525       5.90788396       4.42110222        2       1.00000000      -0.00192825       0.06902079      -0.05853724
Pt       5.13563473       5.88135528       4.33307638        2       0.00000000       0.07741541       0.01657140       0.04525508
Ni       7.81067892       5.85641966       4.36505036        2       1.00000000       0.04869823      -0.07771614      -0.18639869
Ni      10.30684429       5.87937984       4.44195251        2       1.00000000      -0.06222894       0.02875636      -0.08163082
Pt       3.84550816       8.17340665       4.30828081        2       0.00000000       0.01208163       0.08493697      -0.04512965
Pt       6.45526388       8.15238749       4.26174911        2       0.00000000      -0.01489187       0.03993350       0.04844279
Pt       9.04911905       8.06518821       4.35217903        2       0.00000000      -0.06774315       0.02688929       0.09922090
Pt      11.64122223       8.11515082       4.37782849        2       0.00000000      -0.02314973      -0.01325462      -0.04986419
Pt      -0.04890368      -0.04199267       6.60211630        1       0.00000000      -0.06499533      -0.05203957       0.22839933
Pt       2.63184029      -0.01341445       6.62693064        1       0.00000000       0.00086530       0.02856544       0.23507896
Pt       5.22638902      -0.09488622       6.62037295        1       0.00000000       0.03004142      -0.28605407       0.15005248
Ni       7.75961706      -0.06703181       6.57614442        1       1.00000000       0.00043752      -0.09464513      -0.09357951
Pt       1.33773947       2.29928420       6.60417565        1       0.00000000       0.04968641       0.18217716       0.21585348
Ni       3.88835596       2.22198873       6.46905525        1       1.00000000       0.00797102      -0.08220132      -0.28993159
Pt       6.46727045       2.17894167       6.48607374        1       0.00000000      -0.02517812      -0.01137384      -0.23289432
Pt       9.04543101       2.26523267       6.53803331        1       0.00000000       0.03435225       0.10348281      -0.01569347
Ni       2.57351539       4.48737563       6.52969034        1       1.00000000      -0.14932868       0.21771540      -0.17387171
Pt       5.07360314       4.40774735       6.58064184        1       0.00000000      -0.18901781       0.04078970       0.07402422
Ni       7.80419401       4.44233482       6.46454434        1       1.00000000       0.03365105       0.01012134      -0.29434575
Ni      10.33023029       4.49517686       6.55296995        1       1.00000000      -0.05274357       0.20502473      -0.13185878
Ni       3.80800797       6.63710318       6.54193906        1       1.00000000      -0.19466950       0.02061236      -0.13865832
Pt       6.51740958       6.58365899       6.50393635        1       0.00000000       0.04829598      -0.08678494      -0.21451518
Ni       9.09245897       6.57227786       6.54234669        1       1.00000000       0.07537017      -0.15489640      -0.18770607
Ni      11.64932425       6.58591923       6.55718282        1       1.00000000       0.02859290      -0.16463606      -0.21426305
