64
Lattice="10.759345224524079 0.005339774813551695 0.002026036765350466 5.38429699290106 9.306670448031545 0.000900600701833847 0.0 0.0 22.020468093145908" Properties=species:S:1:pos:R:3:tags:I:1:initial_magmoms:R:1:forces:R:3 unique_id=0f3f2b9c1f064bf3964d87e71c5f53c9 stress="0.0035174417654325954 -1.5947891807925e-05 -9.420664719325786e-05 -1.5947891807925e-05 0.0035370205136423458 1.733733339326498e-05 -9.420664719325786e-05 1.733733339326498e-05 -0.0010237652227303527" energy=-401.1325831545133 pbc="T T T"
Ni      -0.00606622      -0.00060850       0.08146804        1       1.00000000       0.03292298       0.02397063       0.33866641
Pt       2.68600183       0.03336635       0.00850842        0       0.00000000      -0.03694862      -0.04914575       0.11685700
Pt       5.38423541       0.03918457       0.00000000        0       0.00000000      -0.00244261      -0.05928371       0.08908893
Ni       8.07401701       0.00811391       0.08181559        1       1.00000000      -0.02372348       0.01252260       0.30993471
Pt       1.36339405       2.29635699       0.08460183        1       0.00000000      -0.13925672      -0.02216603      -0.34922315
Ni       4.04037790       2.32094397       0.02263185        0       1.00000000      -0.00738832      -0.01197354       0.46467773
Pt       6.70763981       2.29937003       0.00762968        0       0.00000000       0.12790671       0.00037627       0.04187460
Pt       9.41009330       2.26565576       0.09072807        1       0.00000000       0.03853964      -0.10421343      -0.40088790
Pt       2.71170777       4.62401480       0.08931685        1       0.00000000      -0.01678905       0.09897933      -0.42762815
Pt       5.36500311       4.62098873       0.08385504        1       0.00000000       0.00534072       0.13225493      -0.40585732
Pt       8.06682293       4.64347256       0.08745205        1       0.00000000      -0.06117220      -0.06853211      -0.47489765
Pt      10.76554669       4.64841698       0.09246108        1       0.00000000       0.06605593      -0.10392617      -0.49161617
Pt       4.03885463       7.04222094       0.09153037        1       0.00000000       0.03062398       0.07835741      -0.36271707
Pt       6.70974169       7.02115548       0.08470856        1       0.00000000      -0.05307620       0.05290809      -0.30288238
Pt       9.41859544       6.99915042       0.08215141        1       0.00000000      -0.03316475       0.11148309      -0.41774169
Pt      12.12580541       7.02134166       0.09063590        1       0.00000000       0.05572191       0.03478638      -0.41854156
Pt       1.33951476       0.75830825       2.36423044        3       0.00000000       0.01719758      -0.02471311       0.34857350
Pt       4.03468011       0.78670846       2.34643665        2       0.00000000       0.03583991       0.04089901       0.28415194
Pt       6.73237906       0.77527743       2.33697911        2       0.00000000      -0.01846600       0.01116749       0.25628733
Pt       9.41731153       0.76256939       2.31295188        2       0.00000000      -0.00399150      -0.11117443       0.16176293
Pt       2.70512977       3.08569970       2.34796908        2       0.00000000       0.11524738      -0.15667861       0.32888940
Pt       5.37312729       3.08604337       2.34652660        2       0.00000000      -0.04551197      -0.17442032       0.30208123
Pt       8.06339025       3.09507047       2.36676732        3       0.00000000      -0.08989635      -0.08374024       0.43739632
Pt      10.76496421       3.09496034       2.36684458        3       0.00000000       0.02439885      -0.07595476       0.49561727
Pt       4.04128186       5.43544078       2.36891093        3       0.00000000       0.02991504       0.02669446       0.51753455
Pt       6.72253295       5.43241545       2.36819733        3       0.00000000      -0.02415587      -0.03795635       0.47455998
Pt       9.41445672       5.43603744       2.37335686        3       0.00000000      -0.02996224       0.04178769       0.44662292
Pt      12.11261761       5.43366899       2.37035004        3       0.00000000       0.02886602       0.00614696       0.46634344
Pt       5.39160853       7.77581209       2.36924341        3       0.00000000       0.03253017       0.06653168       0.37548964
Pt       8.06397065       7.77424326       2.39747467        3       0.00000000       0.05767222       0.12780780       0.50240634
Pt      10.75990223       7.77185816       2.37212940        3       0.00000000      -0.07304636       0.14231061       0.45487313
Pt      13.45747808       7.77806332       2.34825446        2       0.00000000      -0.02743880       0.10160498       0.39122820
Pt       0.02509125       1.51212229       4.67280963        4       0.00000000       0.04837694      -0.13710458      -0.42693417
Pt       2.69534759       1.51034564       4.72839024        4       0.00000000       0.06105675      -0.10166004      -0.17680113
Pt       5.37003040       1.54878316       4.77968806        5       0.00000000      -0.05562253       0.00115077       0.17677995
Pt       8.05583753       1.55099549       4.70062623        4       0.00000000      -0.03938639      -0.06482863      -0.32432763
Pt       1.35285933       3.86292688       4.67103045        4       0.00000000       0.02376747      -0.12082986      -0.49949757
Pt       4.03946936       3.85232588       4.68939672        4       0.00000000      -0.02300239      -0.18403244      -0.38833169
Pt       6.72203913       3.86417428       4.69912400        4       0.00000000      -0.03250849      -0.09739442      -0.38313814
Pt       9.41437374       3.87726346       4.66973194        4       0.00000000       0.00797878      -0.05796671      -0.47151989
Pt       2.70030985       6.20811058       4.67497574        4       0.00000000       0.05938996       0.06727263      -0.48171703
Pt       5.40145848       6.23034307       4.67872076        4       0.00000000       0.00400624       0.04806612      -0.45271860
Pt       8.05615937       6.24296847       4.67299275        4       0.00000000      -0.03636751       0.07657128      -0.44474344
Pt      10.75595193       6.21958763       4.67121600        4       0.00000000      -0.04108166       0.07772746      -0.47562828
Pt       4.07181914       8.53967271       4.67121481        4       0.00000000       0.02968397       0.06238667      -0.39291348
Ni       6.73295155       8.53725914       4.69721381        4       1.00000000       0.00720311       0.04942736      -0.32848726
Pt       9.38433272       8.55784387       4.73560254        4       0.00000000      -0.06446789       0.13119047      -0.17262606
Pt      12.09633690       8.55204612       4.70101897        4       0.00000000      -0.05765724       0.09639729      -0.34611913
Pt       0.03652430      -0.00099542       7.00144712        7       0.00000000       0.13314033       0.04184288      -0.07355962
Ni       2.70591996       0.01370010       6.94279394        6       1.00000000       0.05018158       0.02630509      -0.41916358
Ni       5.36958408       0.03088475       6.94617462        6       1.00000000      -0.06535826       0.08601711      -0.44913194
Pt       8.02047397       0.03661000       7.02046809        7       0.00000000      -0.17936578       0.10263338      -0.08881593
Pt       1.40619867       2.28573143       6.95105763        7       0.00000000       0.08270624      -0.05236881       0.38109857
Ni       4.05210858       2.30414619       6.99450440        7       1.00000000       0.04421008      -0.11536776      -0.65726941
Ni       6.70312136       2.31360196       6.95342175        7       1.00000000      -0.06438254      -0.05264784      -0.35171313
Pt       9.39204821       2.31780001       6.95364133        7       0.00000000       0.05813754       0.00295133       0.34341960
Pt       2.71378978       4.61733480       6.95149706        7       0.00000000      -0.00266247      -0.03615875       0.45716544
Pt       5.38205987       4.58478053       6.94610982        6       0.00000000       0.02616799      -0.12014421       0.34660860
Pt       8.05391251       4.63746040       6.94457382        6       0.00000000      -0.02305813       0.08174373       0.40803047
Pt      10.76206188       4.65773392       6.94985537        6       0.00000000       0.03544536      -0.00327932       0.49335940
Pt       4.04121177       6.98974693       6.95352729        7       0.00000000      -0.01639813      -0.07500168       0.44503475
Pt       6.74821507       7.02342296       6.92786496        6       0.00000000       0.07808818       0.09680763       0.29976508
Pt       9.41567056       7.04986956       6.94480588        6       0.00000000       0.00289383       0.11259600       0.44237729
Pt      12.09091807       7.01846510       6.95344642        7       0.00000000      -0.06346294       0.03098703       0.45859347
