64
Lattice="10.586577239470508 0.004763550841721175 -0.027404507368783047 5.297413975776401 9.174482976866742 -0.01119272923118326 0.0 0.0 21.819544353840126" Properties=species:S:1:pos:R:3:tags:I:1:initial_magmoms:R:1:forces:R:3 unique_id=6c83597796aa45d3911b5bf7cff59ff1 stress="0.004990513471789885 0.00018661102564179153 -8.237818576633374e-05 0.00018661102564179153 0.005133129882386251 -0.00027853046201585134 -8.237818576633374e-05 -0.00027853046201585134 -0.0020289356081740206" energy=-393.32521769083394 pbc="T T T"
Pt       0.03372507      -0.02936189       0.14138543        1       0.00000000       0.06107534       0.08341640      -0.04422365
Ni       2.64602216      -0.04209463       0.12197946        1       1.00000000      -0.09635926      -0.00430383       0.05287354
Pt       5.24926428      -0.04699765       0.01927962        0       0.00000000      -0.06732280      -0.11812159       0.07298261
Ni       7.94051764      -0.00186955       0.10159621        1       1.00000000       0.01025082      -0.04387260       0.12293785
Pt       1.33261681       2.24431211       0.12563339        1       0.00000000      -0.12146632      -0.14954846      -0.40045544
Pt       3.96709429       2.25522512       0.00000000        0       0.00000000       0.03478352      -0.01428449      -0.18785874
Pt       6.62831150       2.26418292       0.02521456        0       0.00000000       0.02737579       0.05612317      -0.06697002
Pt       9.23068471       2.25066279       0.12937077        1       0.00000000      -0.06423178      -0.03793294      -0.31657719
Pt       2.65764976       4.60009572       0.11721656        1       0.00000000       0.06763002       0.16143498      -0.42762561
Pt       5.31498254       4.64013962       0.13599792        1       0.00000000      -0.02096534       0.18611035      -0.50887276
Pt       7.92061959       4.65680690       0.13391890        1       0.00000000      -0.12836180      -0.08356334      -0.40025209
Pt      10.56414213       4.61626690       0.09476715        1       0.00000000      -0.01326447      -0.11445334      -0.46501765
Pt       3.98553374       6.91759658       0.04235383        0       0.00000000      -0.04441064      -0.02696410       0.09579340
Ni       6.64286013       6.90174700       0.12480910        1       1.00000000      -0.05654574      -0.00204571       0.15933810
Ni       9.23890243       6.90863927       0.04971730        0       1.00000000       0.01475073       0.02459898       0.40883262
Pt      11.88049073       6.92587418       0.10106488        1       0.00000000      -0.10101241       0.05882682      -0.38058192
Ni       1.29006146       0.74541861       2.32415147        3       1.00000000      -0.03962757      -0.10963253       0.43289874
Pt       3.95316545       0.73582700       2.28198802        3       0.00000000       0.09945890       0.03525604       0.20057227
Pt       6.68984611       0.78670778       2.30195431        3       0.00000000       0.13347779       0.04899513       0.19913091
Ni       9.26835430       0.76638201       2.32206189        3       1.00000000       0.02351952      -0.04478681       0.48615439
Pt       2.63353632       3.05522664       2.34307885        3       0.00000000       0.07485916      -0.05048699       0.24580620
Pt       5.33087408       3.10161217       2.31058145        3       0.00000000       0.00857418      -0.04288605       0.20943563
Ni       7.93781833       3.05097611       2.29396486        3       1.00000000       0.04425612       0.00146154       0.38015444
Pt      10.55937269       2.96146307       2.35151119        4       0.00000000       0.00506223      -0.16423099       0.33208271
Ni       3.98362469       5.37937543       2.31280145        3       1.00000000       0.06374576       0.08837137       0.36417640
Ni       6.60305597       5.36891098       2.28501583        3       1.00000000      -0.05009220       0.08650119       0.40888512
Pt       9.22906680       5.37380172       2.29673590        3       0.00000000       0.04486095       0.00895294       0.20368229
Pt      11.94128142       5.37228578       2.35205163        4       0.00000000       0.08827171      -0.01995117       0.36059021
Pt       5.30478629       7.67078648       2.35496223        4       0.00000000       0.05604149       0.02597892       0.29100945
Pt       7.91710563       7.65139521       2.21130731        2       0.00000000       0.02061348      -0.01054543       0.04915405
Ni      10.57494613       7.65168802       2.27334226        3       1.00000000       0.02124288       0.04077339       0.27552971
Pt      13.27763824       7.66425277       2.31964045        3       0.00000000       0.18708908       0.07491048       0.21149680
Ni      -0.03223193       1.48049614       4.52194676        5       1.00000000      -0.08877144      -0.24461661      -0.43067335
Pt       2.55353478       1.50025333       4.50971810        5       0.00000000      -0.05691392      -0.11722812      -0.26290936
Pt       5.30346464       1.52894462       4.62667023        6       0.00000000      -0.03368703       0.03153543      -0.14118293
Ni       7.96637772       1.50634556       4.50040642        5       1.00000000       0.17026790      -0.12708100      -0.41288426
Ni       1.30880186       3.82101737       4.54908198        5       1.00000000      -0.05984381      -0.02894038      -0.38018694
Pt       3.91372770       3.85618512       4.51162442        5       0.00000000      -0.04761778      -0.07756277      -0.28396152
Pt       6.64222529       3.79726610       4.49789003        5       0.00000000       0.04289757      -0.05413389      -0.32045011
Pt       9.28032272       3.73698128       4.47435121        5       0.00000000       0.09036140      -0.10732326      -0.27518708
Ni       2.65243679       6.12917669       4.55005474        6       1.00000000       0.04896231       0.08663386      -0.31948329
Pt       5.21914228       6.18695610       4.51669702        5       0.00000000      -0.10736667       0.15766591      -0.16217284
Pt       7.89700622       6.15391082       4.51179995        5       0.00000000      -0.07312793       0.11422170      -0.23907058
Pt      10.61317696       6.11499440       4.49309125        5       0.00000000      -0.09158502       0.00903171      -0.21431510
Ni       3.97184758       8.44288693       4.53355087        5       1.00000000      -0.00043951       0.14749192      -0.33376181
Ni       6.57659993       8.43967658       4.51636112        5       1.00000000      -0.07127981       0.04815313      -0.30326158
Pt       9.25612831       8.40236108       4.54521140        5       0.00000000       0.03986436      -0.04542338      -0.15473801
Pt      11.97937865       8.42622376       4.49232662        5       0.00000000       0.10457797       0.08352557      -0.26295083
Pt      -0.02739935      -0.03086473       6.66438882        7       0.00000000       0.03509398       0.02841631       0.11410133
Pt       2.70637739      -0.00454318       6.81954435        8       0.00000000      -0.07513048       0.03130609      -0.12680154
Ni       5.27887584       0.01137236       6.71782482        7       1.00000000       0.03204045      -0.00696848      -0.09885709
Pt       7.88766991       0.01895121       6.76928820        8       0.00000000       0.03634606       0.08118326      -0.09660423
Pt       1.33059514       2.29471937       6.70259533        7       0.00000000      -0.10451354       0.10363960       0.34610849
Ni       3.97541632       2.28334082       6.70438539        7       1.00000000      -0.02375540       0.00973358      -0.09251821
Ni       6.58059086       2.27589651       6.71348683        7       1.00000000       0.02206732      -0.00496727      -0.08230228
Pt       9.20271792       2.27257720       6.69055733        7       0.00000000      -0.03311843      -0.14577874       0.34435969
Pt       2.64770095       4.61549758       6.69730325        7       0.00000000      -0.19761045       0.09829099       0.43082089
Pt       5.27046255       4.55947756       6.73356687        7       0.00000000       0.10304958      -0.02776976       0.33368171
Pt       7.92705553       4.59862089       6.73695519        7       0.00000000      -0.10000443      -0.04814248       0.47653283
Pt      10.56592852       4.61790843       6.70424925        7       0.00000000       0.15858831      -0.08541824       0.62503536
Ni       3.94876700       6.88894459       6.70690063        7       1.00000000      -0.13375852       0.03957647      -0.18647317
Pt       6.60854903       6.89667727       6.80950215        8       0.00000000      -0.00723578       0.04243101       0.01977546
Ni       9.25697883       6.90624508       6.78508835        8       1.00000000       0.06492089       0.02467479      -0.33132599
Pt      11.87825125       6.93080063       6.70772833        7       0.00000000       0.07344275       0.03974174       0.45657393
