64
Lattice="10.24658782838999 0.010675715963315006 0.0012787270457758479 5.132539355422812 8.784083825083336 -0.07223486040828878 0.0 0.0 21.541265598327666" Properties=species:S:1:pos:R:3:tags:I:1:initial_magmoms:R:1:forces:R:3 unique_id=3ff95ffe162741b984fce8857d62cfc6 stress="0.002224264241677945 2.0904696640153497e-05 9.847531367972699e-05 2.0904696640153497e-05 0.0013539500445629675 -0.00021859242532496528 9.847531367972699e-05 -0.00021859242532496528 -0.005200558263856767" energy=-371.54561519351034 pbc="T T T"
Ni       0.04268258      -0.05705689       0.18208318        2       1.00000000       0.09286308      -0.02145464      -0.23088397
Ni       2.49816039      -0.03001771       0.20079171        2       1.00000000       0.00151076      -0.00179956      -0.20317781
Pt       5.11312539      -0.03182031       0.13446011        1       0.00000000      -0.09175654       0.38506139      -1.48148093
Ni       7.70939788      -0.05098679       0.18698318        2       1.00000000      -0.05135071      -0.01291541      -0.46402101
Ni       1.28201593       2.19833741       0.08773035        1       1.00000000      -0.02340897       0.03796740       0.33831952
Pt       3.75647222       2.26034362       0.16136086        2       0.00000000       0.11068496      -0.04995111      -0.65289311
Pt       6.41971761       2.27809930       0.06210732        1       0.00000000      -0.07298024      -0.07598971      -0.21182043
Pt       9.04205530       2.24542901       0.09671837        1       0.00000000      -0.00827703       0.11950483      -0.64966317
Ni       2.56597403       4.43395703       0.00421276        0       1.00000000       0.08136838       0.03920973       0.22230666
Ni       5.11974862       4.47497983       0.05709829        1       1.00000000      -0.07966796       0.04617932       0.27551976
Ni       7.66114327       4.45927413       0.02088488        0       1.00000000      -0.00565133       0.00951668       0.09867156
Ni      10.28993063       4.42758886       0.00629344        0       1.00000000       0.04107878       0.00704897       0.19113541
Ni       3.86301406       6.57017664       0.03847423        0       1.00000000       0.04515903       0.00694496       0.35190868
Ni       6.39085901       6.58032583       0.04569009        0       1.00000000      -0.01336663       0.04680658       0.33626075
Ni       8.92319332       6.55543137       0.08611214        1       1.00000000      -0.14766667       0.04929475      -0.40091440
Ni      11.58089126       6.55257277       0.00000000        0       1.00000000       0.06367369       0.05822968       0.12508022
Ni       1.30867498       0.72001655       2.19949169        4       1.00000000      -0.00518387       0.02834627       0.20922039
Ni       3.76594646       0.73920130       2.18441041        4       1.00000000      -0.14656407      -0.06322712       0.19971434
Ni       6.43082798       0.75421283       2.18390608        4       1.00000000       0.05445831       0.04639151       0.19538715
Pt       9.00278551       0.71987481       2.20660529        4       0.00000000       0.06507929      -0.12498166       0.20174015
Ni       2.55490922       2.87764882       2.24715217        4       1.00000000       0.03716855      -0.09831256       0.23001134
Ni       5.10833495       2.98641875       2.16943549        4       1.00000000      -0.00624179       0.10043772       0.07918605
Ni       7.66108969       2.90991759       2.20689642        4       1.00000000      -0.09728434      -0.08891674       0.17108402
Ni      10.30761684       2.89096387       2.22297899        4       1.00000000       0.10932279      -0.07630137       0.23278247
Ni       3.89826725       5.10640776       2.14137242        3       1.00000000       0.01670550      -0.03057435       0.07236171
Ni       6.35899075       5.13558055       2.11268404        3       1.00000000      -0.00881153      -0.02244575       0.02940918
Pt       8.89214505       5.04828473       2.15327872        4       0.00000000      -0.00201018      -0.12041273       0.03539482
Pt      11.62168593       5.04452862       2.15731740        4       0.00000000       0.03346283      -0.09137850       0.05418653
Ni       5.16926992       7.24822713       2.09040700        3       1.00000000      -0.02952272      -0.04965427       0.07086879
Ni       7.59501621       7.30899178       2.08700783        3       1.00000000      -0.11278450      -0.05714904       0.12902421
Pt      10.25206973       7.27602994       2.10560196        3       0.00000000       0.05733461      -0.19280932       0.14252155
Ni      12.87374482       7.26515022       2.06667423        3       1.00000000       0.12542171      -0.07582851       0.06507430
Ni       0.06497988       1.46794539       4.28668343        6       1.00000000       0.10821541      -0.04573241      -0.11107580
Ni       2.48658384       1.48182937       4.26255646        6       1.00000000      -0.06475839      -0.02625974      -0.11560288
Pt       5.09662721       1.49222972       4.20103112        5       0.00000000      -0.03326676      -0.06321949      -0.31574238
Ni       7.70884519       1.46473603       4.28808345        6       1.00000000      -0.02342530      -0.07356047      -0.23991761
Ni       1.29271326       3.61085532       4.32435149        6       1.00000000       0.04825005      -0.05276236      -0.03622484
Ni       3.80097815       3.70532437       4.24555087        5       1.00000000       0.01373989       0.05761336      -0.18914930
Pt       6.43393896       3.70926551       4.28061843        6       0.00000000       0.02216802       0.01633248      -0.05728825
Ni       9.01351006       3.65906470       4.26537206        6       1.00000000       0.03404383       0.02205564      -0.13172387
Ni       2.59676862       5.74007442       4.31310721        6       1.00000000       0.04209795      -0.05940682      -0.06273286
Ni       5.13409023       5.80466083       4.27702888        6       1.00000000       0.05265836      -0.03038467      -0.14169664
Ni       7.65019873       5.82881726       4.27664417        6       1.00000000      -0.07883401       0.04757746      -0.10707806
Ni      10.27537216       5.74010458       4.31016935        6       1.00000000       0.02116939      -0.01511304      -0.07841860
Pt       3.93155456       7.93661338       4.22350461        5       0.00000000       0.07799519       0.03312028      -0.02591617
Ni       6.39806153       7.99713094       4.19995806        5       1.00000000      -0.05748459      -0.00810124      -0.19404551
Pt       8.85704410       7.99148790       4.18868154        5       0.00000000      -0.06700395       0.04543140      -0.13631763
Pt      11.58989905       7.94645648       4.21391860        5       0.00000000       0.00419019      -0.09046441      -0.17282605
Pt       0.01922017      -0.08910760       6.51783307        9       0.00000000      -0.14190776       0.16911706       0.22708461
Pt       2.52938644      -0.03323470       6.51586205        9       0.00000000       0.17111338       0.13849934       0.24816555
Pt       5.12995543      -0.03863964       6.40657206        8       0.00000000      -0.19511655       0.08100803       1.43945367
Pt       7.69358559      -0.07924078       6.54126560        9       0.00000000       0.13562981       0.22081066       0.43187309
Ni       1.27642143       2.21996848       6.40522120        8       1.00000000       0.02291447       0.02970935      -0.18296014
Pt       3.80675742       2.30712812       6.36898082        8       0.00000000      -0.12591910      -0.02282197       0.62529054
Ni       6.41095318       2.20963182       6.35777040        8       1.00000000       0.02406497      -0.00501117       0.24869475
Pt       8.98770904       2.26647113       6.31355804        7       0.00000000      -0.02951732      -0.18836253       0.73001358
Ni       2.53362168       4.40668235       6.38535097        8       1.00000000       0.05551612      -0.03848708      -0.26235306
Ni       5.13557082       4.41410896       6.41918967        8       1.00000000      -0.06667922       0.00684641      -0.27266244
Ni       7.63460018       4.35505216       6.42139139        8       1.00000000      -0.03504889      -0.03436108      -0.07911718
Ni      10.33225451       4.35224592       6.38686751        8       1.00000000       0.03700812      -0.00861119      -0.19452149
Ni       3.85249477       6.44836976       6.40564999        8       1.00000000      -0.01797642      -0.01668075      -0.27203897
Ni       6.38276455       6.47701369       6.38789429        8       1.00000000       0.00328896       0.04473325      -0.30188008
Pt       8.96938270       6.40464142       6.43604701        8       0.00000000       0.06962006       0.05643329       0.09697839
Ni      11.56866740       6.46583220       6.39923691        8       1.00000000      -0.03950905       0.08321498      -0.12857909
