64
Lattice="10.15555090837842 -0.02482785059492419 -0.010299900520683664 5.056273904852698 8.761161251334295 -0.010293332607108243 0.0 0.0 21.50960880278484" Properties=species:S:1:pos:R:3:tags:I:1:initial_magmoms:R:1:forces:R:3 unique_id=1b13f1b65d2e40788e7e16cb8c350119 stress="0.003706762259858609 -6.276488541158511e-05 -0.00013756447431195263 -6.276488541158511e-05 0.0033767701260013754 8.774314325902133e-05 -0.00013756447431195263 8.774314325902133e-05 -0.0026803717524643052" energy=-368.6997595093748 pbc="T T T"
Ni       0.03240591      -0.00567736       0.14209323        1       1.00000000       0.14128604       0.14536961      -0.64174498
Ni       2.52505151      -0.03474257       0.17867388        2       1.00000000       0.02204304      -0.02150108      -0.07863966
Ni       5.08768971      -0.02588046       0.07561699        1       1.00000000      -0.09690178       0.02012729       0.14814633
Ni       7.57912939      -0.03081333       0.15397590        2       1.00000000      -0.08397316       0.08080972      -0.65668182
Ni       1.26515572       2.20553072       0.10269222        1       1.00000000       0.01589955      -0.00195327       0.27418940
Pt       3.79310360       2.18927282       0.17574627        2       0.00000000      -0.05594993      -0.00838378      -0.62242636
Ni       6.33407275       2.18555100       0.09104558        1       1.00000000      -0.03304947       0.04146360       0.15867708
Pt       8.88189268       2.24044120       0.00000000        0       0.00000000       0.03331320       0.05243300      -0.34804225
Ni       2.50196631       4.40587707       0.08841974        1       1.00000000       0.03073037       0.01144336       0.30192945
Ni       5.06430896       4.39198947       0.05480108        1       1.00000000      -0.13629863      -0.04263531       0.11748002
Ni       7.60346931       4.39085302       0.05068668        1       1.00000000       0.14474119       0.05529480      -0.00982300
Ni      10.16980678       4.39682579       0.08000708        1       1.00000000      -0.02277561       0.12725240       0.24283073
Ni       3.79141841       6.53502148       0.03571934        0       1.00000000      -0.00318726      -0.07666945       0.04736407
Ni       6.34737726       6.56112219       0.03141477        0       1.00000000       0.10468414       0.05659559       0.02106052
Ni       8.84568079       6.53877833       0.12956659        1       1.00000000      -0.12582733      -0.07545233      -0.19222125
Ni      11.39454211       6.52487349       0.02564225        0       1.00000000      -0.08696496      -0.06123132       0.13961682
Ni       1.33050917       0.76955158       2.18615705        4       1.00000000       0.08992256       0.18181840       0.14368241
Ni       3.75922943       0.71309548       2.19045975        4       1.00000000      -0.13185116      -0.03336285       0.11389190
Ni       6.30635584       0.75052985       2.12850290        3       1.00000000      -0.07505401       0.06256186      -0.05285875
Pt       8.92024101       0.77478273       2.16162557        4       0.00000000       0.11282471       0.10621361       0.01190566
Ni       2.50850976       2.92867727       2.20361095        4       1.00000000       0.00085878      -0.00703103       0.11245402
Ni       5.06309709       2.90976587       2.18810104        4       1.00000000      -0.03275661       0.04163748       0.05674745
Ni       7.60849541       2.92187609       2.16090867        4       1.00000000       0.09327580      -0.03755648       0.07623089
Ni      10.18081055       2.94591130       2.16826713        4       1.00000000       0.02103204       0.02704790       0.03219759
Ni       3.77044589       5.03877335       2.16909248        4       1.00000000      -0.00468978      -0.18186875       0.03857001
Pt       6.37866070       5.06529373       2.12111387        3       0.00000000       0.08685840      -0.02056080      -0.00115114
Ni       8.89687519       5.05643939       2.17019416        4       1.00000000       0.09418518      -0.14511000       0.08797816
Ni      11.39693686       5.03452833       2.14055506        3       1.00000000      -0.05086434      -0.08348236       0.01678955
Pt       5.13080018       7.28667859       2.13937275        3       0.00000000       0.01448649      -0.03922579       0.02781963
Ni       7.60737719       7.31640797       2.17687072        4       1.00000000      -0.00730182      -0.00072843       0.20766598
Pt      10.06562440       7.27612145       2.17757014        4       0.00000000       0.02223636      -0.01556667       0.06226374
Pt      12.63895240       7.19886363       2.12995269        3       0.00000000       0.00689851      -0.14268421       0.04398151
Ni       0.04499182       1.47311406       4.32256412        6       1.00000000       0.11178350      -0.07218415      -0.12787897
Ni       2.48839741       1.43748525       4.26216811        6       1.00000000      -0.04781730      -0.07906033      -0.21400408
Pt       5.01524188       1.39013088       4.23873621        5       0.00000000      -0.13879583      -0.10846897       0.03621182
Pt       7.63640643       1.48147597       4.31719501        6       0.00000000       0.04910671      -0.02874596      -0.04850368
Pt       1.25555232       3.66163470       4.30859267        6       0.00000000       0.00593035      -0.03157047       0.01391740
Ni       3.77400823       3.70226463       4.27713185        6       1.00000000      -0.03203955       0.05092240      -0.20995826
Pt       6.32299338       3.71343506       4.36769752        7       0.00000000      -0.05094898       0.03856879       0.07137277
Ni       8.89772629       3.68960648       4.30973118        6       1.00000000      -0.00648475       0.18235249      -0.14382014
Ni       2.51283621       5.80908489       4.34628979        6       1.00000000      -0.05370598      -0.04906743      -0.04834783
Ni       5.05314325       5.82345085       4.35584638        7       1.00000000       0.06055565       0.03376320      -0.07207688
Ni       7.61864615       5.86120427       4.30149021        6       1.00000000       0.06858664       0.08008599      -0.16516785
Ni      10.13633787       5.81796337       4.29922271        6       1.00000000      -0.02942200      -0.04300106      -0.13449957
Pt       3.80203975       7.94933767       4.32889943        6       0.00000000      -0.00051551       0.01427667       0.10774855
Ni       6.37666712       8.00997565       4.28311714        6       1.00000000       0.11933599      -0.02506530      -0.10947024
Ni       8.83691619       7.98057996       4.28376971        6       1.00000000      -0.13138567      -0.05750902      -0.14103174
Ni      11.35922332       7.94871124       4.32315806        6       1.00000000      -0.07596173      -0.14870039      -0.01317775
Pt      -0.00097204       0.00919178       6.48542678       10       0.00000000      -0.06407288       0.08622496       0.46679217
Pt       2.56006272      -0.01703101       6.42981489        9       0.00000000       0.00466557       0.04147146       0.11550050
Ni       5.07690322      -0.02904402       6.43174163        9       1.00000000      -0.06536353       0.00354430      -0.04041065
Pt       7.52980779      -0.05193111       6.50960880       10       0.00000000       0.05581802      -0.06064199       0.54683983
Ni       1.23329445       2.23556414       6.43669742        9       1.00000000       0.05848928      -0.00342632      -0.05955602
Pt       3.79780458       2.28129870       6.38798033        9       0.00000000      -0.10091427       0.20860296       0.66267374
Ni       6.34955484       2.21158506       6.46364227       10       1.00000000      -0.02376521       0.05933585       0.06932546
Ni       8.89739986       2.23775356       6.33490822        8       1.00000000       0.10127501       0.09170615       0.45526554
Ni       2.51122376       4.43292495       6.43798554        9       1.00000000       0.01314220       0.00681625      -0.20754171
Ni       5.06490540       4.43287458       6.44182863        9       1.00000000      -0.10339952       0.01868355      -0.01842466
Ni       7.60127910       4.34982002       6.44290584        9       1.00000000       0.13393191      -0.03324205      -0.04127232
Ni      10.15689128       4.33478809       6.42867717        9       1.00000000      -0.01012733      -0.01364903      -0.22119285
Ni       3.78854142       6.49148479       6.43475565        9       1.00000000      -0.03119506       0.00542516      -0.04071624
Ni       6.30498560       6.50270229       6.40835740        9       1.00000000       0.07537578       0.04156057      -0.18903853
Pt       8.90408567       6.47661465       6.42272229        9       0.00000000      -0.01500118      -0.09851954      -0.01239254
Ni      11.42016759       6.49589433       6.40488692        9       1.00000000       0.03508917      -0.12555346      -0.16704901
