64
Lattice="10.117409258049987 0.004271112495676114 -0.02798285618551705 5.062403520948669 8.72011819988835 -0.06832025982436572 0.0 0.0 21.517120035737506" Properties=species:S:1:pos:R:3:tags:I:1:initial_magmoms:R:1:forces:R:3 unique_id=45c93361de1f4f9499f94effc44fa0d8 energy=-367.5274197601554 stress="0.00454822961697206 4.266856561031424e-05 -0.00020102865368350204 4.266856561031424e-05 0.004171403037437165 -0.00047082884526577145 -0.00020102865368350204 -0.00047082884526577145 -0.0018722271808993152" pbc="T T T"
Pt       0.04580673       0.05055833       0.24900939        2       0.00000000      -0.01887754      -0.00182315      -0.44532145
Ni       2.51107216       0.01543778       0.19098155        2       1.00000000      -0.01685325       0.07978224       0.23227952
Pt       4.96298386       0.02394700       0.20052016        2       0.00000000      -0.08633423      -0.08927190      -0.94693222
Ni       7.60227123       0.02669769       0.23874805        2       1.00000000       0.05515046      -0.15112246      -0.41275455
Ni       1.29835673       2.21496073       0.16959011        2       1.00000000      -0.01546949      -0.08541360       0.34523406
Ni       3.74763129       2.21370302       0.16284349        2       1.00000000      -0.04672863      -0.11708760       0.23503928
Ni       6.30622641       2.18224926       0.12419215        1       1.00000000      -0.07647365      -0.01466617       0.02605484
Ni       8.88167389       2.17518235       0.11856615        1       1.00000000       0.11675468       0.02747642       0.01773285
Ni       2.52815176       4.27583455       0.14949498        1       1.00000000      -0.00680131       0.10233929       0.36485608
Ni       5.02799199       4.28332436       0.11227799        1       1.00000000      -0.01071806      -0.14459782       0.05526691
Pt       7.61425127       4.36607931       0.00000000        0       0.00000000       0.07771922       0.01001138      -0.38667885
Ni      10.14309558       4.28851135       0.13358492        1       1.00000000      -0.03079536      -0.10205395       0.26796079
Pt       3.83633877       6.46730416       0.12661991        1       0.00000000      -0.09181010       0.06206467      -0.05261773
Ni       6.36114406       6.56732670       0.10562047        1       1.00000000       0.06063332       0.11119382      -0.05555295
Ni       8.81539354       6.54143020       0.20861703        2       1.00000000      -0.05331885       0.00423757      -0.12957294
Pt      11.34272494       6.46433371       0.10639561        1       0.00000000       0.01442389       0.06081685       0.04599764
Ni       1.29684970       0.74601807       2.32070207        4       1.00000000      -0.03857043       0.06139987       0.09160675
Ni       3.69403963       0.72837425       2.27410279        4       1.00000000      -0.07046375       0.01403292       0.07301777
Pt       6.32521489       0.65642949       2.27492509        4       0.00000000       0.00257511      -0.08346102      -0.14512380
Ni       8.90738049       0.69710396       2.28180424        4       1.00000000       0.14219949       0.00900733       0.16235703
Ni       2.51104238       2.89729803       2.24569272        3       1.00000000      -0.04056000       0.00631918       0.16402836
Ni       4.98216122       2.91020149       2.19737380        3       1.00000000      -0.06592982      -0.01364289      -0.02411345
Pt       7.66633506       2.91515087       2.22729151        3       0.00000000       0.15086654      -0.07828361      -0.03287621
Ni      10.18884701       2.89921214       2.22430262        3       1.00000000       0.11551264      -0.02869639       0.11196974
Ni       3.72278347       5.03021250       2.24182467        3       1.00000000      -0.12361731      -0.05262431       0.05328430
Pt       6.29628717       5.13165875       2.20404971        3       0.00000000      -0.04877792       0.09517696      -0.21221126
Ni       8.91857045       5.11151463       2.23924031        3       1.00000000       0.09309247      -0.00831668       0.10406684
Ni      11.38009128       5.03643202       2.25049153        4       1.00000000      -0.00145347      -0.03236654       0.11671564
Ni       5.05513016       7.30171380       2.26189183        4       1.00000000       0.01028662       0.08948259       0.15700585
Ni       7.60220875       7.30389463       2.20813503        3       1.00000000      -0.02890666       0.05490714       0.03756390
Ni      10.07686804       7.20155158       2.26257494        4       1.00000000       0.04011501      -0.06850597       0.22298951
Ni      12.66455548       7.20637221       2.24359908        3       1.00000000       0.01418453      -0.19593378       0.19591623
Ni       0.05773419       1.47363058       4.33401072        6       1.00000000       0.09412812       0.09534501      -0.11065103
Ni       2.45921118       1.44202481       4.37300814        7       1.00000000      -0.06475524       0.02424799      -0.05686260
Pt       4.95168395       1.51307553       4.32461471        6       0.00000000      -0.11270130       0.14321915       0.15524061
Pt       7.65651741       1.46255610       4.40445761        7       0.00000000       0.03886182       0.06428403       0.18286544
Ni       1.25821375       3.61292415       4.36087787        7       1.00000000       0.01196876       0.04672481      -0.12363828
Ni       3.70483419       3.63791320       4.35963927        7       1.00000000      -0.22135980       0.10774428      -0.12939870
Ni       6.31775746       3.63970350       4.37763746        7       1.00000000      -0.02774407       0.09361317      -0.20399815
Ni       8.91365581       3.66770112       4.36176373        7       1.00000000       0.20053514       0.09467058      -0.10825160
Ni       2.47597162       5.76052655       4.32811607        6       1.00000000      -0.06762133      -0.05877832      -0.13605300
Pt       5.02324424       5.79475137       4.36967157        7       0.00000000       0.00361863       0.06471810      -0.00576302
Ni       7.60334619       5.78949756       4.29803280        6       1.00000000       0.09964174       0.05859438      -0.17542829
Ni      10.12558127       5.76449720       4.28473145        6       1.00000000      -0.01575224      -0.00032170      -0.14058116
Ni       3.78279369       7.94560124       4.26386277        6       1.00000000      -0.06165313       0.06977641      -0.17293001
Ni       6.36913043       7.98838598       4.25379985        6       1.00000000       0.01900370       0.05017648      -0.12698732
Ni       8.79760400       7.93596678       4.24436722        5       1.00000000       0.02711034       0.02722430      -0.18203857
Ni      11.37304379       7.87850855       4.27464697        6       1.00000000      -0.00499852      -0.09001777      -0.09707242
Pt       0.05890250      -0.01361591       6.39071208        9       0.00000000      -0.06320045       0.03484040       0.44478838
Ni       2.51057732      -0.00163582       6.45621076       10       1.00000000       0.05973143       0.02282836      -0.23787500
Pt       4.99753206      -0.00886514       6.40198239        9       0.00000000       0.01940995      -0.14779539       1.04367027
Pt       7.58540838      -0.06760400       6.51712004       10       0.00000000       0.03194106      -0.14514604       0.52424958
Ni       1.27943915       2.20487605       6.45045330       10       1.00000000       0.00587075       0.02864139      -0.30675678
Ni       3.72728583       2.21890888       6.47835470       10       1.00000000      -0.04953283       0.04382085      -0.18484885
Ni       6.29918282       2.22936460       6.47394394       10       1.00000000      -0.06525644      -0.03601769       0.04416941
Ni       8.87514749       2.23124901       6.46225744       10       1.00000000       0.16015759      -0.01336342       0.00867673
Ni       2.50973637       4.31901752       6.42896623        9       1.00000000      -0.00210511       0.05236586      -0.33877811
Ni       5.03551817       4.31007206       6.44908724        9       1.00000000      -0.07057987      -0.04301271      -0.19398233
Ni       7.55211352       4.29214928       6.29932130        8       1.00000000       0.05209999       0.03003273       0.37303036
Ni      10.13983716       4.29158201       6.40567063        9       1.00000000       0.03978332       0.04572679      -0.31219951
Ni       3.75832451       6.45186942       6.37468344        9       1.00000000      -0.07919912      -0.00986553       0.31818705
Ni       6.30703889       6.47353243       6.43229266        9       1.00000000       0.00585471      -0.03049721      -0.04177204
Pt       8.80751726       6.43208940       6.41748314        9       0.00000000       0.07628379      -0.09786807      -0.05730978
Ni      11.38940707       6.43622225       6.30651334        8       1.00000000      -0.06059556      -0.04629163       0.11111019
