64
Lattice="10.733778156681995 -0.007399918718271935 0.012569107245859022 5.360480560745039 9.293491749398715 0.013930775597168314 0.010262633091557878 0.00720892721125579 9.333699171601484" Properties=species:S:1:pos:R:3:tags:I:1:initial_magmoms:R:1:forces:R:3 unique_id=5c9c54b22cfe42389b446f5772a5b380 stress="0.0005282295247975785 4.808767620357071e-06 -3.5064464768444157e-06 4.808767620357071e-06 0.0005224776293825464 2.2061361324545066e-07 -3.5064464768444157e-06 2.2061361324545066e-07 0.00040921409093759575" energy=-426.5690356556964 pbc="T T T"
Ni      -0.01720076      -0.01271544       0.11025186        4       1.00000000      -0.05888400      -0.08424508       0.37898990
Pt       2.66385337       0.00265552       0.12744241        4       0.00000000      -0.11422921      -0.04869825       0.15593496
Ni       5.38371037      -0.00554726       0.10414569        4       1.00000000       0.04252584      -0.01987780       0.36511752
Ni       8.05775578      -0.02474918       0.11796650        4       1.00000000       0.08461889      -0.11131818       0.39256783
Pt       1.34293795       2.30501185       0.12459063        4       0.00000000      -0.03571093      -0.07027554       0.13562096
Pt       4.03848164       2.35723780       0.11345098        4       0.00000000       0.01452911       0.14370224       0.08602499
Pt       6.69320075       2.28356249       0.11380005        4       0.00000000       0.00377267      -0.13139127       0.03684657
Pt       9.38614224       2.25728495       0.11842008        4       0.00000000      -0.04574553      -0.10900778       0.06193279
Ni       2.70108832       4.66308208       0.11249390        4       1.00000000       0.09571592       0.07512175       0.39565963
Ni       5.34704062       4.65587303       0.11456825        4       1.00000000      -0.06871603       0.03648000       0.36275513
Pt       7.99959494       4.64994846       0.13022223        4       0.00000000      -0.12404824       0.02170286       0.12085511
Pt      10.76644641       4.64414583       0.12350372        4       0.00000000       0.07236359       0.05227228       0.16401910
Ni       4.01682313       6.97260097       0.12725532        4       1.00000000      -0.03068502       0.06606620       0.38943349
Pt       6.63021438       6.95723813       0.13658247        4       0.00000000      -0.19705557      -0.08704333       0.04561435
Pt       9.40208287       6.99634079       0.12176891        4       0.00000000       0.04993966       0.07182016       0.10475537
Pt      12.15587253       7.01247961       0.14549390        4       0.00000000       0.33244152       0.18109969       0.09802908
Ni       1.33912318       0.76977721       2.33003205        3       1.00000000      -0.01813449      -0.05999958      -0.00086343
Pt       4.01250651       0.76771944       2.33305690        3       0.00000000       0.01903935       0.01160370      -0.00757661
Pt       6.73364006       0.73029462       2.29872971        3       0.00000000       0.06274621      -0.07687963      -0.08969706
Pt       9.40697225       0.71523935       2.30197082        3       0.00000000      -0.00385875      -0.10202149      -0.08053331
Pt       2.67911274       3.09567072       2.33174900        3       0.00000000       0.04391809       0.05276964       0.02680129
Pt       5.38079161       3.14741999       2.33306653        3       0.00000000       0.05170154       0.12614390       0.00950885
Pt       8.03716262       3.10733411       2.36716356        3       0.00000000       0.02328618      -0.09184107       0.03167247
Pt      10.74314121       3.06279791       2.37213400        3       0.00000000      -0.02709078      -0.04002245       0.07191272
Pt       4.04550170       5.45844574       2.26226092        3       0.00000000       0.05079825       0.08658145      -0.26982161
Ni       6.70066911       5.42913709       2.35414661        3       1.00000000      -0.04473866       0.09166194       0.04870490
Pt       9.34888232       5.43345554       2.39508552        3       0.00000000      -0.11002805       0.06037246       0.10509760
Pt      12.10888654       5.44218567       2.34458082        3       0.00000000       0.05445553       0.06076535       0.01664778
Pt       5.34057748       7.75027404       2.30758004        3       0.00000000      -0.07441298       0.02636761      -0.05489698
Pt       8.00453439       7.72758175       2.39214065        3       0.00000000      -0.13263232      -0.09970419       0.08457004
Pt      10.75922170       7.75209427       2.34364527        3       0.00000000       0.00115142      -0.03094183      -0.02754740
Ni      13.42509659       7.74240112       2.32806108        3       1.00000000       0.09461678      -0.00264162      -0.07595027
Pt       0.01292215       1.53570557       4.61160925        2       0.00000000       0.00693184      -0.11244008      -0.21136126
Pt       2.67817199       1.53891813       4.61859071        2       0.00000000      -0.01908164      -0.03320684      -0.23983926
Pt       5.37016795       1.54301584       4.63508990        2       0.00000000       0.01096771      -0.01104221      -0.23576824
Pt       8.05580036       1.54694596       4.64515211        2       0.00000000       0.00880285      -0.03565046      -0.16227784
Pt       1.34778565       3.88478266       4.63519551        2       0.00000000       0.04571363       0.05201916      -0.12127994
Pt       4.03318423       3.88591443       4.63308824        2       0.00000000       0.02372299       0.07739540      -0.18509433
Pt       6.72144004       3.92023666       4.62182178        2       0.00000000      -0.02185096       0.10924395      -0.19642842
Pt       9.37599483       3.89840949       4.65021430        2       0.00000000      -0.00736993      -0.01844656      -0.08391936
Pt       2.69454156       6.20887594       4.62021867        2       0.00000000       0.10136059       0.04358146      -0.22512617
Pt       5.40895245       6.19441121       4.61582268        2       0.00000000       0.05557201       0.01787782      -0.30478923
Ni       8.04500408       6.19395652       4.66492590        2       1.00000000      -0.05310289       0.01995813      -0.10424079
Pt      10.70140285       6.19573820       4.65325946        2       0.00000000       0.00579312       0.02354429      -0.15385294
Pt       4.02468949       8.51104700       4.62034485        2       0.00000000      -0.01350897      -0.08279364      -0.16118805
Pt       6.71517348       8.50214560       4.62478433        2       0.00000000      -0.06480508       0.00690990      -0.17392334
Pt       9.37761126       8.49112981       4.64029781        2       0.00000000      -0.00079790      -0.03355985      -0.17041155
Pt      12.07965675       8.51469313       4.63367142        2       0.00000000       0.04588104      -0.01205620      -0.18427208
Pt       0.00333608       0.00047926       6.99132824        1       0.00000000      -0.01289231      -0.02612444       0.08338503
Pt       2.68800151       0.00127859       6.91837570        1       0.00000000      -0.01995847       0.00481212      -0.05050127
Pt       5.37569864      -0.00171310       6.99427808        1       0.00000000       0.00205556      -0.01513010       0.06711922
Pt       8.06041405      -0.00521811       7.00786853        1       0.00000000       0.00523331      -0.01860484       0.10573351
Pt       1.34575611       2.32748638       6.92203653        1       0.00000000      -0.00681911      -0.01811048      -0.06852429
Pt       4.03280512       2.33144216       6.92866361        1       0.00000000      -0.00396244       0.00196688      -0.10084844
Pt       6.71451791       2.32578366       6.92671057        1       0.00000000      -0.00658820       0.01648774      -0.13152076
Pt       9.39626129       2.32036111       6.92732780        1       0.00000000      -0.00640443      -0.01452295      -0.09811619
Pt       2.69162550       4.65507289       7.00531748        1       0.00000000       0.01280932       0.01992277       0.11754763
Pt       5.36798265       4.65582585       6.99933108        1       0.00000000      -0.02881637       0.02019934       0.08320970
Pt       8.04769739       4.66025267       6.90441828        1       0.00000000      -0.03843333       0.00957508      -0.07777524
Pt      10.74005912       4.64674600       6.92563281        1       0.00000000       0.01664201       0.00111780      -0.05062245
Pt       4.02865772       6.97630810       7.01712794        1       0.00000000       0.00746815      -0.00121312       0.14277082
Pt       6.71199432       6.96544047       6.91514552        1       0.00000000      -0.04836933       0.00172645      -0.07319552
Pt       9.38614079       6.96900659       6.91073140        1       0.00000000      -0.01767124       0.00682558      -0.07525072
Pt      12.08312276       6.97242831       6.94475952        1       0.00000000       0.00982846       0.00111578      -0.04182397
