64
Lattice="10.766498392466838 0.004697933553941384 -0.007740000831296703 5.387317726036421 9.313872436549467 -0.022843208995635585 -0.006319684215131515 -0.0178881125970344 9.384630752641922" Properties=species:S:1:pos:R:3:tags:I:1:initial_magmoms:R:1:forces:R:3 unique_id=d3f0ae1583eb45139771151b5923b7c9 stress="0.0005850895894523311 -1.8919388355187137e-07 1.6765601141380834e-06 -1.8919388355187137e-07 0.0005929249507228423 -8.007676517630974e-07 1.6765601141380834e-06 -8.007676517630974e-07 0.0004577988187117535" energy=-429.70896421492796 pbc="T T T"
Pt       0.00371018       0.00127497       0.08771040        4       0.00000000       0.00451012      -0.00233858       0.02747146
Pt       2.71031639       0.02400133       0.08331901        4       0.00000000       0.02488093       0.01575443       0.02232874
Pt       5.36405605       0.02507076       0.08162592        4       0.00000000      -0.01937682       0.00748485       0.01307473
Pt       8.07079808       0.00500257       0.07986005        4       0.00000000      -0.01753768      -0.02253370       0.04369480
Pt       1.38532054       2.32919658       0.08025961        4       0.00000000       0.05253349      -0.00551666       0.04462035
Ni       4.03621858       2.33363966       0.07788862        4       1.00000000      -0.01064579       0.00141281       0.28955576
Pt       6.69447523       2.32856902       0.08192850        4       0.00000000      -0.04735870      -0.01520907       0.07051547
Pt       9.42204967       2.33289345       0.07610460        4       0.00000000       0.00566659      -0.00544741       0.07580143
Pt       2.71117607       4.62626435       0.00747327        4       0.00000000       0.01677772      -0.03980546      -0.06796912
Pt       5.36344195       4.62756006       0.07314278        4       0.00000000      -0.04317325      -0.03876071       0.06463405
Pt       8.07690100       4.65827840       0.07112855        4       0.00000000      -0.00432776      -0.00745776       0.07859852
Pt      10.77206505       4.65893061       0.06268665        4       0.00000000       0.02725283      -0.00663423       0.07584692
Pt       4.03702124       6.97606824       0.06520779        4       0.00000000      -0.02191112      -0.03259872       0.01956354
Pt       6.73516682       6.98668312       0.06402769        4       0.00000000       0.00118190       0.00103072       0.07616186
Pt       9.42312177       6.99413006      -0.00519836        4       0.00000000       0.00593894       0.01555540      -0.05071993
Pt      12.11560820       6.98355790       0.05444529        4       0.00000000       0.00461181      -0.01766952       0.05582982
Pt       1.34479400       0.77445613       2.37268226        3       0.00000000      -0.00365680       0.01911660       0.04866792
Pt       4.03622159       0.77729270       2.36275044        3       0.00000000      -0.00035272      -0.03652159       0.08161512
Pt       6.72850231       0.77079815       2.37570927        3       0.00000000       0.00803952      -0.03004263       0.08274543
Pt       9.41774676       0.76219455       2.39749108        3       0.00000000      -0.00509200      -0.06390605       0.13142744
Pt       2.70189681       3.09985438       2.34776405        3       0.00000000      -0.01935005       0.02642427       0.07937000
Pt       5.36980875       3.09408701       2.34430103        3       0.00000000      -0.00289518       0.00895696       0.13295649
Pt       8.08392898       3.10776903       2.39135364        3       0.00000000       0.04120757       0.02643854       0.16271855
Pt      10.76012755       3.11231544       2.38863629        3       0.00000000      -0.00595226       0.05512374       0.18367008
Pt       4.02320953       5.43196664       2.38999996        3       0.00000000      -0.05568885      -0.00596943       0.14141034
Pt       6.72538044       5.43091567       2.36410434        3       0.00000000      -0.02551771       0.02451951       0.12183585
Pt       9.42582322       5.42663452       2.39170398        3       0.00000000       0.02505719      -0.03088819       0.15877046
Pt      12.12697732       5.43652821       2.38557641        3       0.00000000       0.03969798       0.03660248       0.17307160
Pt       5.37543530       7.76154404       2.38456662        3       0.00000000      -0.01394866       0.01405384       0.11151903
Pt       8.09263802       7.76137106       2.38384232        3       0.00000000       0.06352337       0.00139029       0.15696443
Pt      10.75654089       7.76118841       2.38334618        3       0.00000000      -0.03986908       0.00105910       0.15122284
Pt      13.46737741       7.75397688       2.40672752        3       0.00000000       0.03342802      -0.05128627       0.24328532
Pt      -0.02342346       1.54928399       4.66516050        2       0.00000000       0.04121645       0.06021422      -0.03879375
Pt       2.70253453       1.52375974       4.66349984        2       0.00000000       0.02720539       0.00960848      -0.06366855
Pt       5.36583529       1.51832346       4.66256826        2       0.00000000      -0.02481805      -0.02617043      -0.04422575
Pt       8.09611327       1.53779024       4.65689740        2       0.00000000      -0.02215168      -0.03365769      -0.03524072
Pt       1.34063275       3.91265843       4.68904425        2       0.00000000       0.00366023       0.09939584      -0.01878660
Pt       4.00273653       3.90612706       4.68661852        2       0.00000000      -0.04929527       0.03193012       0.01946855
Pt       6.75544979       3.88167410       4.65821442        2       0.00000000      -0.01801721       0.05755945      -0.06087723
Ni       9.42308669       3.87675513       4.67225824        2       1.00000000       0.03550799       0.02164893      -0.03688625
Ni       2.69319268       6.20780194       4.68223842        2       1.00000000      -0.02866952       0.02241336       0.00282740
Pt       5.33360020       6.23433381       4.65224074        2       0.00000000      -0.05103813       0.05270655      -0.06310251
Pt       8.11860981       6.21858091       4.67488919        2       0.00000000       0.02641589       0.06229664      -0.01171736
Pt      10.75550865       6.21662830       4.67094843        2       0.00000000      -0.01871141       0.06539118      -0.03684192
Ni       4.02820439       8.51540962       4.66745643        2       1.00000000      -0.03845558      -0.03684888      -0.01106932
Pt       6.72914515       8.52513976       4.64525132        2       0.00000000      -0.01194955       0.02346170      -0.06509888
Ni       9.42277985       8.52052006       4.67185772        2       1.00000000       0.02636241      -0.03484752      -0.01551961
Pt      12.13977810       8.49370666       4.64388195        2       0.00000000       0.08700004      -0.05778162      -0.03335842
Pt      -0.00906565      -0.02171546       6.91087077        1       0.00000000       0.00266744      -0.02575223      -0.16998229
Pt       2.71342949      -0.03905369       6.91649838        1       0.00000000       0.02965510      -0.04965847      -0.15354117
Pt       5.35386262      -0.04858712       6.90926232        1       0.00000000      -0.01243586      -0.12997133      -0.17848831
Pt       8.07365804      -0.02299408       6.90437629        1       0.00000000      -0.01012509      -0.01264262      -0.14048864
Pt       1.36200947       2.34322249       6.92588249        1       0.00000000       0.04822016       0.03148033      -0.12733091
Pt       4.01726851       2.34070205       7.00157471        1       0.00000000      -0.01623166       0.02209203       0.02423825
Pt       6.71774442       2.31623643       6.92692032        1       0.00000000      -0.04884827      -0.02245019      -0.13177296
Pt       9.42081073       2.33898054       6.90573079        1       0.00000000       0.01830409       0.05771468      -0.14054573
Ni       2.68972396       4.64557945       6.92893114        1       1.00000000      -0.01563361       0.02444848      -0.36001685
Pt       5.34960490       4.64997767       6.92195223        1       0.00000000      -0.00064342       0.03438374      -0.11632227
Pt       8.10188775       4.67200234       6.90141920        1       0.00000000       0.04785692       0.04830854      -0.11954388
Pt      10.76936932       4.67328796       6.89604393        1       0.00000000      -0.02030870       0.03627069      -0.09886826
Pt       4.00405322       6.94769562       6.87541787        1       0.00000000      -0.07950771      -0.05350492      -0.16657298
Pt       6.75426848       6.96946029       6.90854996        1       0.00000000      -0.00221153      -0.02685063      -0.11704286
Ni       9.42189544       6.97408266       6.91259949        1       1.00000000       0.03772762       0.01126376      -0.37138282
Pt      12.10702469       6.94047968       6.88454693        1       0.00000000       0.01959901      -0.10478975      -0.11970668
