64
Lattice="10.33113300604117 0.0035588541718663096 0.04236897521561854 5.168648561141784 8.930450435816912 0.027718158050300392 0.0 0.0 21.559755052537657" Properties=species:S:1:pos:R:3:tags:I:1:initial_magmoms:R:1:forces:R:3 unique_id=9d034920617d47058ae29c0c0980d839 stress="0.0056936285553436435 0.00017898465898042457 0.0005570603265869446 0.00017898465898042457 0.005734972009007073 0.00018109128965861898 0.0005570603265869446 0.00018109128965861898 -0.0019738696737043333" energy=-376.64939843706674 pbc="T T T"
Ni      -0.01319425       0.02828247       0.12349177        1       1.00000000      -0.03489594       0.04855815       0.03107261
Ni       2.58582249       0.00660617       0.14072031        1       1.00000000       0.00765162       0.02875149      -0.07024584
Ni       5.17211254      -0.00910971       0.10750244        1       1.00000000       0.01628700       0.21560464      -0.33037366
Ni       7.77443480      -0.03036773       0.06806243        1       1.00000000       0.03713184      -0.04942615       0.43184910
Ni       1.27651636       2.22768203       0.01920826        0       1.00000000       0.01153544      -0.07164477       0.32185697
Pt       3.82072008       2.23532807       0.13207653        1       0.00000000       0.05607710      -0.02268520      -0.51959227
Pt       6.49483976       2.17441885       0.14705937        1       0.00000000       0.02300805      -0.07691670      -0.47761216
Ni       9.06791690       2.19971100       0.10930163        1       1.00000000      -0.06143206      -0.12866525      -0.02241857
Ni       2.57001809       4.47790937       0.00000000        0       1.00000000      -0.00563035      -0.02366555       0.16035824
Ni       5.16629073       4.46801304       0.10894848        1       1.00000000       0.18356659      -0.09099093      -0.29897953
Pt       7.82827448       4.47763822       0.06456908        1       0.00000000       0.02302090      -0.04993030       0.03022765
Ni      10.36668138       4.47603614       0.02320204        0       1.00000000       0.04485968       0.01256083       0.19508655
Ni       3.84969023       6.72691022       0.11770122        1       1.00000000      -0.03467577       0.19078797      -0.13524264
Pt       6.44672139       6.75277567       0.15630944        2       0.00000000      -0.05327642       0.04517061      -0.54910138
Ni       9.07147068       6.71482101       0.04288695        0       1.00000000      -0.04713100      -0.00950342       0.20467812
Ni      11.64319852       6.71207105       0.03401795        0       1.00000000       0.12913959       0.06842810       0.23676732
Ni       1.29698592       0.73572644       2.09331965        3       1.00000000      -0.01313031       0.01326711      -0.04957000
Ni       3.87942526       0.75175291       2.15593512        4       1.00000000       0.07418205      -0.00138052       0.18100682
Ni       6.49128129       0.75155091       2.20205727        4       1.00000000       0.08687857       0.06773592       0.25824730
Ni       9.02415994       0.73457723       2.14628177        3       1.00000000      -0.14049204       0.00997061      -0.00228240
Ni       2.58379595       2.96920543       2.15917765        4       1.00000000      -0.10092064       0.05842838       0.08407659
Ni       5.17860997       2.95612011       2.20096714        4       1.00000000      -0.04355834      -0.12989277       0.28115848
Ni       7.76494289       2.96083116       2.19777433        4       1.00000000       0.06966188      -0.10323290       0.15193558
Pt      10.29880648       2.92103336       2.16301142        4       0.00000000       0.00739175       0.01627202       0.04027206
Pt       3.90451775       5.19355775       2.11243643        3       0.00000000       0.01249685      -0.07773407       0.01905783
Ni       6.50685693       5.20114859       2.17734703        4       1.00000000       0.13588598      -0.04085159       0.15936699
Ni       9.01872314       5.21825973       2.21733277        4       1.00000000      -0.08187105      -0.03496619       0.24619043
Pt      11.62296455       5.22303793       2.14720699        3       0.00000000      -0.07024659      -0.03296480       0.02706407
Ni       5.15562426       7.49073945       2.14140450        3       1.00000000      -0.10189222       0.09120691       0.02529660
Ni       7.76194408       7.44442579       2.17109253        4       1.00000000       0.06410308      -0.05997143       0.09994930
Pt      10.31650503       7.46722244       2.10121441        3       0.00000000      -0.01171186      -0.00348351      -0.05824357
Ni      12.94430017       7.48476491       2.15515492        4       1.00000000      -0.02990469       0.09028883      -0.04553838
Ni      -0.00907048       1.52807525       4.28938591        6       1.00000000      -0.03766872       0.05964974      -0.19729871
Pt       2.60218516       1.53733345       4.20377519        5       0.00000000      -0.02581429       0.01837623      -0.08754941
Ni       5.19724419       1.50349385       4.27703860        6       1.00000000       0.00365620       0.01251066      -0.37251390
Ni       7.79241449       1.50815097       4.28535971        6       1.00000000       0.07446460       0.05181113      -0.35799661
Pt       1.27451099       3.77694420       4.38714159        7       0.00000000      -0.06642816      -0.02497941       0.03269543
Ni       3.88942615       3.73308845       4.29480832        6       1.00000000       0.04453903      -0.01631030      -0.25137285
Pt       6.53502522       3.69326330       4.22645635        5       0.00000000      -0.00500775      -0.04575319      -0.02971817
Ni       9.05945879       3.75164181       4.33835142        6       1.00000000       0.01259189       0.03628920      -0.25089229
Ni       2.57115315       5.93917084       4.33844191        6       1.00000000      -0.00644688       0.00554165      -0.13609855
Pt       5.16925445       5.92821567       4.25999665        6       0.00000000      -0.01409076      -0.00501830      -0.10454598
Ni       7.83164195       5.90583734       4.31336181        6       1.00000000       0.09224027      -0.09303714      -0.27323043
Ni      10.32507189       5.93163068       4.39478729        7       1.00000000      -0.05584722       0.02956791      -0.09309224
Pt       3.86999499       8.24957028       4.24072103        5       0.00000000      -0.00132308       0.10597236      -0.08677367
Pt       6.47050641       8.20277231       4.21263971        5       0.00000000      -0.02231144       0.05787229      -0.18763322
Pt       9.06419391       8.13161078       4.31856666        6       0.00000000      -0.08059146      -0.01631420       0.00726799
Pt      11.66251002       8.18204298       4.33045615        6       0.00000000      -0.01919945       0.00063807      -0.00450049
Pt      -0.00698914       0.04194828       6.52402502        9       0.00000000       0.02492463      -0.00487507       0.13325299
Pt       2.60869153       0.00672263       6.55975505       10       0.00000000       0.04084227      -0.04587291       0.36160425
Pt       5.23281117      -0.08921578       6.55439695       10       0.00000000      -0.09303465       0.09255679       0.37477400
Ni       7.76538940       0.00001681       6.51058574        9       1.00000000       0.02689130       0.05862362      -0.11670880
Ni       1.30168593       2.28664103       6.48592417        9       1.00000000      -0.02549453      -0.02456583      -0.12597370
Pt       3.83973839       2.28165882       6.42815435        8       0.00000000       0.21473748      -0.07846728       0.54088497
Pt       6.52456699       2.20526237       6.43202486        8       0.00000000      -0.05783145      -0.05682555       0.54554995
Pt       9.11122286       2.32899415       6.48796545        9       0.00000000       0.00237026       0.13639883      -0.07679149
Ni       2.53799802       4.48035773       6.48154731        9       1.00000000      -0.02604771       0.06889897      -0.11274330
Pt       5.17155086       4.46741815       6.53164715        9       0.00000000      -0.03897408      -0.05321071       0.37046292
Ni       7.83109972       4.48857720       6.41631356        8       1.00000000       0.08353017       0.05092432      -0.03312955
Ni      10.35996802       4.52029361       6.51106709        9       1.00000000      -0.09894758       0.13236633      -0.22562404
Pt       3.76655802       6.69788348       6.53914395        9       0.00000000       0.00840521      -0.05881973       0.06887130
Pt       6.55662249       6.65349782       6.45768884        9       0.00000000       0.01170039      -0.02021259       0.52704897
Ni       9.10929277       6.62615952       6.50138283        9       1.00000000       0.02097269      -0.14188593      -0.21217047
Ni      11.61292470       6.64412684       6.51697263        9       1.00000000      -0.13891588      -0.18097548      -0.25237311
