64
Lattice="10.214262714599869 0.009795598801958695 -0.04344152134332282 5.1156145947077105 8.811720606798211 -0.04129539892780084 -0.03546985364712218 -0.018455145933586468 8.715244016965908" Properties=species:S:1:pos:R:3:tags:I:1:initial_magmoms:R:1:forces:R:3 unique_id=a6215e50b9dc440b8198e6c334e5114a stress="0.00010681827289209245 -4.431108397119822e-06 1.659078499076871e-05 -4.431108397119822e-06 0.00011769286044505112 1.9886707728369477e-06 1.659078499076871e-05 1.9886707728369477e-06 0.00011622637369330252" energy=-393.4415807108161 pbc="T T T"
Ni       0.00282217       0.01392595       0.17715883        4       1.00000000       0.05338913       0.02667539       0.22640996
Ni       2.53759698       0.00214870       0.19036917        4       1.00000000      -0.07784230       0.00642749       0.30147398
Ni       5.10654768      -0.00385893       0.14555956        4       1.00000000      -0.03605022       0.10486599       0.25459613
Ni       7.65448857      -0.03603448       0.14115232        4       1.00000000      -0.04926540      -0.10972064       0.26646713
Ni       1.23677069       2.21008990       0.10239941        4       1.00000000      -0.10994447       0.01550958       0.18874639
Pt       3.76698502       2.22113627       0.16279466        4       0.00000000      -0.14685955       0.03188316       0.21787115
Pt       6.43162567       2.21778272       0.06879316        4       0.00000000       0.03664884       0.00271515      -0.07799733
Ni       8.97440094       2.23621758       0.10741789        4       1.00000000       0.07726147       0.11902240       0.16060740
Ni       2.54910322       4.43552456       0.04557368        4       1.00000000      -0.02633069       0.05600201      -0.01147947
Ni       5.08576257       4.42745085       0.07352488        4       1.00000000      -0.09985392       0.00457555       0.15589531
Ni       7.67732207       4.40543976       0.03234039        4       1.00000000       0.02058482      -0.00756962       0.08676050
Ni      10.22309167       4.39598203       0.01018009        4       1.00000000       0.01390703      -0.03138785       0.00952115
Ni       3.79966568       6.59923838       0.07459694        4       1.00000000      -0.07992843      -0.02196083       0.15070310
Pt       6.37028860       6.60598863       0.05734289        4       0.00000000      -0.07928127      -0.02561932      -0.18134546
Ni       8.94925508       6.61374672       0.09394170        4       1.00000000      -0.05383700       0.02928892       0.18533446
Ni      11.51617416       6.61176200       0.00075166        4       1.00000000       0.03370503      -0.04775080      -0.03565131
Ni       1.29479605       0.74586123       2.19524966        3       1.00000000       0.00856241       0.04877279       0.12746229
Ni       3.77413837       0.74485362       2.17471574        3       1.00000000      -0.12515843       0.01068819      -0.00077415
Ni       6.39036215       0.75163278       2.16654653        3       1.00000000       0.09373653       0.03292415       0.03430777
Pt       8.94644928       0.77650845       2.12678712        3       0.00000000       0.06054297       0.11800008       0.04244772
Ni       2.53248763       2.90522138       2.23372717        3       1.00000000       0.00747011      -0.11247710       0.14276940
Ni       5.09478047       2.97832059       2.17568846        3       1.00000000      -0.07370531       0.11604676      -0.06107704
Ni       7.64894880       2.93513182       2.16994595        3       1.00000000       0.01167940      -0.01178105       0.03333188
Ni      10.24154399       2.91534602       2.14856447        3       1.00000000       0.14110562       0.00445998       0.12425976
Ni       3.85470335       5.12557368       2.13433859        3       1.00000000       0.00784590      -0.04667463      -0.09226902
Ni       6.34642424       5.12841962       2.13821284        3       1.00000000      -0.01087698       0.00340657      -0.09366110
Pt       8.88149447       5.09580642       2.15469141        3       0.00000000      -0.00719011      -0.01480353       0.02602667
Pt      11.55867979       5.09276747       2.14019104        3       0.00000000       0.10794378      -0.11150356       0.01408582
Ni       5.11092987       7.32749174       2.14543615        3       1.00000000      -0.00055459      -0.01001943      -0.03970420
Ni       7.60583440       7.36799053       2.14258913        3       1.00000000      -0.15210642      -0.05479488       0.02422664
Pt      10.25320611       7.38121550       2.09905364        3       0.00000000       0.08265318      -0.01060392       0.03561704
Ni      12.79481271       7.32950336       2.08815230        3       1.00000000       0.10095210      -0.11828933      -0.03519745
Ni       0.02802887       1.50502520       4.30927070        2       1.00000000       0.06632838       0.06680164      -0.04062050
Ni       2.46874902       1.50264128       4.26559887        2       1.00000000      -0.05943699       0.04408475      -0.07021950
Pt       5.10130045       1.46748571       4.20433749        2       0.00000000      -0.08817267       0.01313724       0.04090292
Ni       7.66963819       1.47809539       4.27800107        2       1.00000000       0.08847299       0.00389741      -0.02881762
Ni       1.26478311       3.65149124       4.34444142        2       1.00000000       0.02536794      -0.03497268      -0.05379074
Ni       3.75046361       3.70039487       4.25848687        2       1.00000000      -0.11513149       0.01596324      -0.22363991
Pt       6.44368956       3.67797967       4.28038702        2       0.00000000       0.06334651      -0.05440145      -0.08778133
Ni       8.97915734       3.68161800       4.27676245        2       1.00000000       0.20850825      -0.01555255      -0.07452500
Ni       2.50580014       5.82974531       4.34554384        2       1.00000000      -0.03322722      -0.03891696      -0.04376533
Pt       5.08001334       5.85355308       4.27948957        2       0.00000000      -0.03923975      -0.03946434      -0.13834980
Ni       7.65353871       5.85607334       4.27912154        2       1.00000000      -0.00165437       0.01183875      -0.11333495
Ni      10.24454215       5.81943210       4.30080662        2       1.00000000       0.08175546      -0.08547608      -0.03645165
Pt       3.78926763       8.06382891       4.23370124        2       0.00000000      -0.07304103       0.00459626       0.13202365
Ni       6.36522040       8.08668134       4.22890777        2       1.00000000      -0.11239801       0.09285173      -0.15871342
Pt       8.87142040       8.03541205       4.20578079        2       0.00000000      -0.08618763      -0.04743359       0.11574899
Ni      11.48825733       8.02777836       4.24304420        2       1.00000000      -0.02332047      -0.09196928      -0.01756525
Pt      -0.01556826      -0.04370787       6.49258666        1       0.00000000       0.09713778      -0.07132559       0.07125835
Pt       2.50793891      -0.00074297       6.47717411        1       0.00000000      -0.10488172       0.03531194       0.15350937
Pt       5.10190082      -0.02787076       6.48913007        1       0.00000000       0.08928900      -0.01166104       0.03096045
Pt       7.63089388      -0.04906327       6.46684155        1       0.00000000      -0.07963541      -0.05797122       0.11561497
Ni       1.24851774       2.25730682       6.42088306        1       1.00000000       0.02717017       0.10400918      -0.16630976
Pt       3.78080158       2.31903459       6.37075780        1       0.00000000       0.02047224       0.22626316      -0.30848405
Ni       6.36936845       2.23789406       6.36579217        1       1.00000000      -0.01726062       0.01646314      -0.24153368
Pt       8.93128391       2.29717253       6.40240339        1       0.00000000       0.03077247       0.09929844       0.04342292
Ni       2.50275371       4.44217892       6.41197096        1       1.00000000      -0.02506582       0.11136768      -0.21981273
Ni       5.09512339       4.43476991       6.43919458        1       1.00000000       0.02997313       0.11679243      -0.07677417
Ni       7.60673366       4.39988345       6.41876822        1       1.00000000      -0.13065425      -0.01333941      -0.09768342
Ni      10.26227469       4.39537253       6.37837099        1       1.00000000       0.27945087      -0.03373032      -0.19895481
Ni       3.79570444       6.52249095       6.43816853        1       1.00000000      -0.01713540      -0.13783052      -0.07023138
Ni       6.35772652       6.54739084       6.34328327        1       1.00000000       0.05076151      -0.01057415      -0.28827826
Pt       8.93158454       6.46232879       6.42778907        1       0.00000000       0.07432932      -0.16236137       0.07424499
Ni      11.50583659       6.53048863       6.37240540        1       1.00000000       0.04410360      -0.05200409      -0.20181444
