64
Lattice="10.31085005862741 0.005017046688568363 0.020313169120946772 5.159769919197975 8.923028106945429 0.013156826528894584 0.0 0.0 21.534057389022205" Properties=species:S:1:pos:R:3:tags:I:1:initial_magmoms:R:1:forces:R:3 unique_id=b97e8ccedc4345d9878569b907fe1553 energy=-375.6739382713163 stress="0.005687650797290497 0.0002105487561153059 0.00037627224693444287 0.0002105487561153059 0.005830804056788929 0.00012979463197874616 0.00037627224693444287 0.00012979463197874616 -0.0019069819033312157" pbc="T T T"
Ni      -0.01615862       0.02570436       0.12345423        1       1.00000000      -0.03684740       0.02186867      -0.00319237
Ni       2.57931981       0.00577301       0.13434989        1       1.00000000       0.00414473       0.02777975      -0.11208237
Ni       5.16059866      -0.00856297       0.09630581        1       1.00000000       0.01135748       0.22403051      -0.36079425
Ni       7.75827320      -0.03257390       0.05102475        1       1.00000000       0.03319022      -0.06738602       0.42222634
Ni       1.27295548       2.22566094       0.01326044        0       1.00000000       0.02103222      -0.06928050       0.29670019
Pt       3.81196093       2.24057442       0.12261279        1       0.00000000       0.03807715      -0.00413478      -0.52723975
Pt       6.47750072       2.17525353       0.13092877        1       0.00000000      -0.00857352      -0.05814451      -0.48231914
Ni       9.04841432       2.19693129       0.08591441        1       1.00000000      -0.07541485      -0.12046129      -0.05255581
Ni       2.58153648       4.48169416       0.00547666        0       1.00000000       0.11334758       0.01236258       0.23617082
Ni       5.13090083       4.47781079       0.12807178        1       1.00000000      -0.00441232       0.00262077      -0.03370267
Pt       7.80945324       4.47389353       0.04346120        0       0.00000000      -0.00064393      -0.03675351       0.01922455
Ni      10.34984988       4.47484868       0.00000000        0       1.00000000       0.06612047       0.03617169       0.21499850
Ni       3.84091851       6.69839231       0.12903511        1       1.00000000      -0.04284868       0.00333178       0.01559774
Pt       6.42616772       6.74289904       0.13597658        1       0.00000000      -0.08333459       0.03962536      -0.56081179
Ni       9.05276746       6.70882902       0.01620586        0       1.00000000      -0.06935159      -0.01776935       0.16557000
Ni      11.62597357       6.70433943       0.00584705        0       1.00000000       0.14597373       0.05374326       0.21706101
Ni       1.28967006       0.73381916       2.07862066        2       1.00000000      -0.01869132       0.01051255      -0.05125319
Ni       3.86955204       0.75139954       2.13771487        2       1.00000000       0.10199408      -0.00317894       0.17182345
Ni       6.47420714       0.75109884       2.17932807        3       1.00000000       0.08023354       0.07057067       0.25002436
Ni       9.00275048       0.73333037       2.11608894        2       1.00000000      -0.12145134       0.02247325       0.00406504
Ni       2.59468891       2.98944308       2.14740455        2       1.00000000       0.01301229       0.13932540       0.07805804
Ni       5.14458682       2.98678104       2.17761607        3       1.00000000      -0.11462785      -0.01709721       0.22554502
Ni       7.74565717       2.96074371       2.17210883        3       1.00000000       0.07106792      -0.08323380       0.14714948
Pt      10.28174210       2.92817685       2.12962101        2       0.00000000       0.05002429       0.05664502       0.01870591
Ni       3.88837257       5.19621791       2.10641565        2       1.00000000       0.04258708      -0.09474220      -0.03095014
Ni       6.45572698       5.19444115       2.14413240        2       1.00000000       0.08908073      -0.06525268       0.07904731
Ni       9.00266917       5.21437009       2.18797071        3       1.00000000      -0.04721346      -0.03945852       0.24034715
Pt      11.66438719       5.22097265       2.11099952        2       0.00000000       0.03946480      -0.01754789       0.00066743
Ni       5.12243477       7.45630256       2.11424624        2       1.00000000      -0.13523411       0.03979532      -0.02558430
Ni       7.74248814       7.43592988       2.14201677        2       1.00000000       0.06061353      -0.08909760       0.08624368
Pt      10.30094841       7.44979718       2.06733617        2       0.00000000       0.01675357      -0.06097420      -0.05015233
Ni      12.93008948       7.45939255       2.11262796        2       1.00000000      -0.00409227       0.06557039      -0.02367776
Ni      -0.01779746       1.52527896       4.27178952        5       1.00000000      -0.03609359       0.05044401      -0.20376291
Pt       2.58781824       1.53480429       4.17765786        4       0.00000000      -0.03411062       0.00823257      -0.08390570
Ni       5.17728731       1.50260964       4.24658928        4       1.00000000      -0.00712472       0.02491250      -0.38021790
Ni       7.76914889       1.50675711       4.25135284        5       1.00000000       0.07566757       0.05777634      -0.34737782
Pt       1.26717255       3.77467708       4.36444221        6       0.00000000      -0.04526516      -0.02716332       0.04351570
Ni       3.87098074       3.73315498       4.24856019        4       1.00000000       0.01039056      -0.03529163      -0.30272611
Pt       6.50885362       3.69199800       4.19294937        4       0.00000000      -0.02256221      -0.02349363       0.00230490
Ni       9.03338885       3.74907030       4.30069723        5       1.00000000       0.00569207       0.04190846      -0.25461604
Ni       2.56456212       5.92946570       4.29936801        5       1.00000000      -0.00832167       0.01987901      -0.14131984
Pt       5.12023246       5.90670814       4.17678281        4       0.00000000      -0.07124740      -0.01689012      -0.16631819
Ni       7.80542580       5.89937482       4.27689911        5       1.00000000       0.05038023      -0.08623290      -0.27834928
Ni      10.29900980       5.92536740       4.35154082        6       1.00000000      -0.04114600       0.03553222      -0.11810063
Pt       3.85537292       8.23784679       4.21080259        4       0.00000000       0.00413325       0.10854425      -0.06042938
Pt       6.44617763       8.18577169       4.17807458        4       0.00000000      -0.05381858      -0.01992842      -0.19435107
Pt       9.03839615       8.12294135       4.27862312        5       0.00000000      -0.08198272      -0.02500833       0.01398006
Pt      11.63293517       8.17218374       4.28710333        5       0.00000000      -0.00106575      -0.00387582       0.01925887
Pt      -0.01956348       0.03985308       6.50382806        8       0.00000000       0.02719594       0.00098845       0.16283169
Pt       2.59148758       0.00521708       6.53405739        8       0.00000000       0.04597864      -0.06008671       0.38591510
Pt       5.21195076      -0.09019626       6.52470300        8       0.00000000      -0.09879315       0.10286360       0.41608263
Ni       7.73860423      -0.00009138       6.47270301        8       1.00000000       0.03971966       0.06266187      -0.09020662
Ni       1.28684695       2.28357467       6.45898300        8       1.00000000      -0.01211722      -0.02596286      -0.10303468
Pt       3.82084255       2.27955074       6.39934015        7       0.00000000       0.22049514      -0.07006905       0.56434018
Pt       6.50015914       2.20326646       6.39495114        7       0.00000000      -0.05684155      -0.04059857       0.57626534
Pt       9.08307843       2.32826808       6.44624079        7       0.00000000       0.00250791       0.12630358      -0.04485932
Ni       2.52021222       4.47577851       6.45445566        8       1.00000000      -0.00524120       0.07838959      -0.09729290
Pt       5.14915884       4.46606159       6.49857111        8       0.00000000      -0.04664956      -0.03588657       0.25559673
Ni       7.80590583       4.48456733       6.37450638        7       1.00000000       0.07273710       0.05900067      -0.00905731
Ni      10.32796595       4.51712265       6.46415937        8       1.00000000      -0.08531261       0.12694589      -0.20402410
Pt       3.75019707       6.68891903       6.50781165        8       0.00000000       0.03675646      -0.07294123       0.00213233
Pt       6.52878357       6.64461042       6.41401580        7       0.00000000      -0.00696136      -0.02489640       0.47494333
Ni       9.08121275       6.61832962       6.45722264        8       1.00000000       0.00759090      -0.13174152      -0.19034417
Ni      11.57580353       6.63655801       6.47047262        8       1.00000000      -0.11992853      -0.18622988      -0.22178306
