64
Lattice="10.356116974276926 -0.0007939300727906854 0.007655042718888277 5.17737092352659 8.899254976395632 0.009932508670388782 0.0 0.0 21.543652572787913" Properties=species:S:1:pos:R:3:tags:I:1:initial_magmoms:R:1:forces:R:3 unique_id=bcf2873955d647cfaa6ad244ee15d8f0 stress="0.005237865122405116 5.6352128717573355e-05 0.00026716287830336655 5.6352128717573355e-05 0.005202046659211333 0.00015623905661789317 0.00026716287830336655 0.00015623905661789317 -0.0025149724723185583" energy=-376.92365013782205 pbc="T T T"
Ni       0.00088899       0.02305406       0.10780197        1       1.00000000       0.10011718      -0.00588758      -0.18335902
Ni       2.58729166       0.00838199       0.14027609        1       1.00000000      -0.03226404       0.01852648      -0.11556748
Ni       5.17321141      -0.00567455       0.08337086        1       1.00000000       0.00346934       0.17151645      -0.32931763
Ni       7.77237383      -0.03993498       0.11194976        1       1.00000000      -0.09563826      -0.09554808      -0.22373959
Ni       1.26467866       2.22911407       0.11726155        1       1.00000000      -0.07696479       0.03614370       0.07233099
Pt       3.82692273       2.22808258       0.03953794        0       0.00000000      -0.03932885       0.00472059      -0.00256924
Pt       6.49730495       2.17784786       0.03818182        0       0.00000000       0.07185016      -0.06949479       0.02083533
Ni       9.10257349       2.22998226       0.07662950        1       1.00000000       0.06699134       0.12341303      -0.06751450
Ni       2.57200284       4.46297322       0.05510035        1       1.00000000      -0.07271524      -0.06882955      -0.22764241
Ni       5.17498325       4.45751949       0.08979410        1       1.00000000       0.16620997      -0.07282008      -0.30640644
Pt       7.84393879       4.46208014       0.03522829        0       0.00000000       0.02365192      -0.00420723       0.01535132
Ni      10.37691725       4.44587072       0.01353255        0       1.00000000       0.04674922      -0.09794982       0.22628771
Ni       3.85084112       6.69899025       0.02192863        0       1.00000000      -0.03363780       0.11704311       0.28751475
Pt       6.45006279       6.72547886       0.12730247        1       0.00000000      -0.00488144       0.04576973      -0.56547946
Ni       9.08206610       6.68720908       0.01088784        0       1.00000000      -0.09009880       0.00182599       0.14165957
Ni      11.66492840       6.67739025       0.00000000        0       1.00000000       0.11101024       0.02128718       0.21592275
Ni       1.30554979       0.76701860       2.08896871        3       1.00000000       0.00367856       0.08709181       0.05023009
Ni       3.87500695       0.76650090       2.12820082        3       1.00000000       0.03065778       0.07276566       0.14996301
Ni       6.46866143       0.77068359       2.15416797        4       1.00000000      -0.03342914       0.16197746       0.18395133
Pt       9.06796679       0.79207835       2.11252120        3       0.00000000      -0.02372718       0.13506784       0.10290698
Ni       2.57206966       2.94496340       2.13150893        3       1.00000000      -0.03394003      -0.02736428       0.10899584
Ni       5.18395586       2.93733069       2.16813118        4       1.00000000      -0.02841755      -0.11735869       0.19944243
Ni       7.78616307       2.97965974       2.16783240        4       1.00000000       0.06145262       0.06577094       0.14685580
Ni      10.35320696       2.96019563       2.14903428        3       1.00000000      -0.00439755       0.00959334       0.14884873
Pt       3.90208580       5.17363415       2.09310250        3       0.00000000       0.05049448      -0.04798697       0.01594983
Ni       6.51357204       5.17620139       2.15598907        4       1.00000000       0.12179536      -0.05929867       0.13308715
Ni       9.03617900       5.16953409       2.16969708        4       1.00000000      -0.09759036      -0.11854540       0.20375337
Pt      11.62462282       5.12988339       2.11435482        3       0.00000000      -0.05261070      -0.08241714       0.03383451
Ni       5.16556912       7.43494524       2.12715625        3       1.00000000      -0.09518243       0.02274056       0.05418185
Ni       7.77172044       7.41608724       2.13932093        3       1.00000000       0.02777066      -0.05089697       0.08475895
Pt      10.33396604       7.43103589       2.04707661        2       0.00000000      -0.02506215      -0.05179666      -0.12201634
Ni      12.95171219       7.41539603       2.10581006        3       1.00000000       0.00943545      -0.03201838      -0.00220726
Ni      -0.01532473       1.55461155       4.26367522        6       1.00000000       0.00916935       0.12205387      -0.17078423
Pt       2.60961206       1.58721570       4.20701038        5       0.00000000      -0.01047575       0.02247339      -0.01069688
Ni       5.18989179       1.52032174       4.27900939        6       1.00000000      -0.01371178       0.01980784      -0.23475577
Ni       7.78004767       1.50908952       4.27669226        6       1.00000000       0.08399361      -0.09450498      -0.23272801
Ni       1.28124118       3.70658964       4.27205144        6       1.00000000      -0.04817222      -0.09300732      -0.21343011
Ni       3.87876570       3.70474415       4.28178147        6       1.00000000       0.03895955       0.00808856      -0.26203187
Pt       6.53239561       3.64868722       4.23717647        5       0.00000000       0.01297313      -0.01303018      -0.09235270
Ni       9.07311943       3.68897791       4.26407866        6       1.00000000       0.06299037      -0.14784209      -0.32480767
Ni       2.57713175       5.90830904       4.30486735        6       1.00000000      -0.02646939      -0.07146343      -0.19239594
Pt       5.16275430       5.88343921       4.25689291        6       0.00000000       0.00010829      -0.06132040      -0.02102333
Ni       7.79552411       5.88413128       4.27489584        6       1.00000000      -0.01133067      -0.07815577      -0.31540369
Pt      10.34279123       5.83569681       4.36537177        7       0.00000000       0.03004053      -0.02391864       0.03400332
Pt       3.86996855       8.16989649       4.25502200        6       0.00000000       0.00716738       0.02166577       0.05436556
Pt       6.47424115       8.19045688       4.18093830        5       0.00000000      -0.07108129       0.17674326      -0.14886166
Pt       9.05649967       8.15094258       4.25772996        6       0.00000000      -0.09911323       0.03364032      -0.04474182
Pt      11.66077565       8.18261966       4.24317944        5       0.00000000       0.02651691       0.03112644      -0.07698641
Pt      -0.00868033      -0.01707135       6.51853804        9       0.00000000       0.10507768       0.16828393       0.31639974
Pt       2.62529041       0.00541616       6.54365257        9       0.00000000      -0.02178103      -0.01060199       0.35163699
Pt       5.18846988       0.01091490       6.51081226        9       0.00000000      -0.00508845       0.14370058       0.32349639
Pt       7.74871985      -0.02911130       6.53778830        9       0.00000000      -0.08082200       0.18250778       0.26994702
Pt       1.28431131       2.29072626       6.47710876        9       0.00000000      -0.09047561       0.05013855       0.04913275
Ni       3.90351243       2.23747457       6.37705077        8       1.00000000      -0.01924977      -0.05576370       0.08219771
Ni       6.47159105       2.22384971       6.37700922        8       1.00000000       0.00018524      -0.18869185       0.11657319
Pt       9.00818699       2.32012435       6.43836626        8       0.00000000      -0.06918029      -0.08807033      -0.00627577
Pt       2.56033503       4.52712916       6.44505626        8       0.00000000       0.02508691      -0.09913154      -0.04342089
Pt       5.18665652       4.36834837       6.50092250        9       0.00000000       0.02519898      -0.05020973       0.19341711
Ni       7.80470807       4.46326813       6.37694620        8       1.00000000       0.00604540       0.09129930       0.00842619
Ni      10.33147851       4.48880021       6.47278044        9       1.00000000      -0.03015426      -0.05497503      -0.09080686
Ni       3.86437077       6.66249490       6.46574826        9       1.00000000       0.06825197      -0.02396323      -0.13725879
Pt       6.53470538       6.60973329       6.42613083        8       0.00000000       0.15267095      -0.13763458       0.60409086
Ni       9.10073465       6.61985729       6.47282684        9       1.00000000      -0.05466876       0.00312587      -0.09658060
Ni      11.63638098       6.65702741       6.47651418        9       1.00000000      -0.05810972       0.12479578      -0.13918673
