64
Lattice="10.76477084976114 0.0018314307874449673 0.01108038152097926 5.383971490467771 9.321201445855394 -0.012051945703265851 0.0 0.0 22.0113443214648" Properties=species:S:1:pos:R:3:tags:I:1:initial_magmoms:R:1:forces:R:3 unique_id=d249b72c22b94a979a3b9ac6351c4670 energy=-404.1173558530984 stress="0.003020172835669181 -4.5490261094485245e-05 2.115845765883962e-05 -4.5490261094485245e-05 0.002783926809791712 0.00017878346236326086 2.115845765883962e-05 0.00017878346236326086 -0.001768422345625591" pbc="T T T"
Pt      -0.00628852       0.00372190       0.05567430        1       0.00000000       0.02114944       0.04983764      -0.22317737
Pt       2.68951776       0.00207653       0.06611989        1       0.00000000      -0.05370886       0.01705200      -0.37824703
Pt       5.38382354      -0.00635098       0.06896660        1       0.00000000      -0.00081956      -0.05735853      -0.39902361
Pt       8.08160655      -0.00870432       0.08150382        1       0.00000000       0.04594312      -0.12333570      -0.13375002
Pt       1.31403031       2.36829937       0.07668955        1       0.00000000      -0.12033733       0.10102206      -0.20807601
Pt       4.02892351       2.33391843       0.06246097        1       0.00000000      -0.08765902       0.04270258      -0.39074653
Pt       6.74144755       2.33217958       0.06465609        1       0.00000000       0.06256582       0.02293603      -0.27728725
Pt       9.44636996       2.36531186       0.01495484        0       0.00000000       0.12400205       0.04254573       0.18273877
Pt       2.66115132       4.66267040       0.05744196        1       0.00000000      -0.02002989      -0.04006572      -0.30744036
Pt       5.37843889       4.66484114       0.05540491        1       0.00000000       0.00151794      -0.00087399      -0.34622699
Pt       8.11106628       4.65509725       0.06175719        1       0.00000000      -0.02350222       0.01798605      -0.30456292
Ni      10.76301338       4.65372705       0.06355787        1       1.00000000       0.02210263      -0.04388754       0.37091901
Pt       4.02684418       6.99333289       0.00000000        0       0.00000000      -0.12483926       0.04590388       0.05295354
Pt       6.72776241       6.98920005       0.05066444        1       0.00000000       0.03929441      -0.00877675      -0.33020864
Pt       9.44177005       6.96128814       0.06694205        1       0.00000000       0.02902610      -0.01824129      -0.26187971
Pt      12.10818411       6.96832128       0.07634646        1       0.00000000       0.11715090       0.03283631      -0.18451655
Pt       1.31810601       0.80059802       2.34478791        2       0.00000000      -0.14739469       0.03677286       0.47157499
Pt       4.03891796       0.77347562       2.35183144        3       0.00000000      -0.00881084       0.00068857       0.49825421
Pt       6.75771569       0.74372671       2.35321619        3       0.00000000       0.11726590      -0.02800484       0.46498489
Pt       9.42141733       0.76738291       2.37880007        3       0.00000000       0.01277173       0.01728938       0.47311277
Pt       2.65524261       3.11209731       2.34075089        2       0.00000000      -0.05020071       0.05463974       0.47741787
Pt       5.38653844       3.10534613       2.34452620        2       0.00000000       0.01999513       0.03930831       0.52561690
Pt       8.12298383       3.09220837       2.35343120        3       0.00000000       0.15397496      -0.11844668       0.44292711
Ni      10.76355454       3.10891534       2.32695996        2       1.00000000      -0.04382512       0.01828014       0.36354075
Pt       4.01031502       5.47245881       2.34492944        2       0.00000000      -0.14200888       0.11642782       0.45628988
Pt       6.73419537       5.43633867       2.34166933        2       0.00000000       0.00421033       0.01853491       0.53266522
Pt       9.46105136       5.39638541       2.31700348        2       0.00000000       0.16285515      -0.15477192       0.32385943
Pt      12.09985324       5.42399085       2.32287676        2       0.00000000      -0.06827568      -0.10270156       0.33920070
Pt       5.33218737       7.77564471       2.36578232        3       0.00000000      -0.19088338       0.05788803       0.51650615
Pt       8.07433620       7.76050108       2.34190045        2       0.00000000      -0.04807978      -0.03935432       0.55121733
Pt      10.80798775       7.75457120       2.34653672        2       0.00000000       0.10295781      -0.05974416       0.51022027
Ni      13.46602365       7.76534955       2.34160653        2       1.00000000       0.03659382      -0.01402803       0.48114349
Pt      -0.02431728       1.52909112       4.65592016        5       0.00000000      -0.09004354       0.00322680      -0.36306244
Pt       2.68342831       1.54403430       4.65194530        5       0.00000000      -0.08878266       0.00288658      -0.47099663
Pt       5.39952300       1.53968515       4.65395608        5       0.00000000       0.10584881      -0.04809131      -0.49965086
Pt       8.11208408       1.52076838       4.68171510        5       0.00000000       0.12512137       0.00886600      -0.30826325
Pt       1.33768726       3.87715208       4.62060842        4       0.00000000      -0.03665320       0.07640022      -0.52685812
Pt       4.03607155       3.88860414       4.64472056        4       0.00000000      -0.06846480       0.07939156      -0.52631716
Pt       6.73705723       3.87868534       4.65335033        5       0.00000000       0.01859853       0.03992269      -0.54360830
Pt       9.43831094       3.85470462       4.65591594        5       0.00000000       0.05499465      -0.09748811      -0.36276790
Pt       2.72659292       6.25649517       4.64581107        4       0.00000000       0.06708116       0.13997282      -0.38575893
Pt       5.35278098       6.24842487       4.66919513        5       0.00000000      -0.12073822       0.14723130      -0.28693423
Pt       8.07351714       6.20365538       4.65061013        5       0.00000000      -0.01961164      -0.03402798      -0.53892987
Pt      10.78067075       6.19995449       4.64791388        4       0.00000000       0.06171388      -0.05760813      -0.45477971
Ni       4.03874721       8.53007202       4.65696873        5       1.00000000      -0.00288528      -0.03761646      -0.40757382
Pt       6.69029395       8.54164470       4.63719513        4       0.00000000      -0.09626106       0.07172695      -0.52994981
Pt       9.42908650       8.53462371       4.64316695        4       0.00000000       0.04833748      -0.03911498      -0.50704506
Pt      12.17069091       8.53125005       4.62499482        4       0.00000000       0.13934340       0.00068358      -0.55963361
Pt      -0.03492318      -0.01889054       6.91817519        6       0.00000000      -0.16117639      -0.09044798       0.17842714
Pt       2.68503942      -0.01268365       6.93690844        6       0.00000000      -0.14502444      -0.01128376       0.35560333
Pt       5.40077242      -0.01175567       6.94265941        6       0.00000000       0.14716259      -0.03840905       0.36366665
Pt       8.12011718      -0.02216989       6.92358822        6       0.00000000       0.13374045      -0.12722600       0.11962589
Pt       1.31121563       2.32105425       6.93652917        6       0.00000000      -0.07313303      -0.02267204       0.16927079
Pt       4.04421908       2.32560840       6.93666940        6       0.00000000      -0.01739792       0.07663185       0.40554741
Pt       6.77130544       2.31668794       6.93545571        6       0.00000000       0.07764512      -0.02269703       0.31700891
Ni       9.42865850       2.31990588       6.95234460        7       1.00000000      -0.00616153      -0.02385675      -0.37549721
Pt       2.70627480       4.67441757       6.93578854        6       0.00000000      -0.05109307       0.00736251       0.25276014
Pt       5.37758754       4.67582423       6.92910306        6       0.00000000       0.03488319       0.00106127       0.31329409
Pt       8.09713712       4.62191707       6.94326150        6       0.00000000      -0.04920177       0.01430915       0.34761214
Pt      10.75893905       4.62232691       7.01134432        7       0.00000000       0.04935797       0.00801789      -0.07134608
Ni       4.04389009       6.98527253       6.93017122        6       1.00000000      -0.01334548       0.07447556      -0.36286150
Pt       6.69998813       6.98236333       6.92637826        6       0.00000000      -0.00764388       0.00686488       0.35172989
Pt       9.42926711       6.97202753       6.94027597        6       0.00000000      -0.00146507      -0.06591615       0.40347837
Pt      12.15303093       6.98085753       6.93843258        6       0.00000000       0.04225234       0.03436312       0.21380946
