64
Lattice="10.460532838373629 0.027789556627830198 0.01729570083741551 5.254332881186425 9.092922955778894 -0.01590935318662699 0.0 0.0 21.67181860633329" Properties=species:S:1:pos:R:3:tags:I:1:initial_magmoms:R:1:forces:R:3 unique_id=91897dc5a19947e582f46ffa2baa5522 energy=-383.0266907730417 stress="0.006016105444513958 5.146068518871492e-05 0.0002509390330955475 5.146068518871492e-05 0.00597213424225854 -0.00018874138712305724 0.0002509390330955475 -0.00018874138712305724 -0.0018443323936357687" pbc="T T T"
Ni      -0.03850872      -0.00228525       0.10507253        1       1.00000000      -0.23318447      -0.08792603      -0.07284371
Ni       2.63040100      -0.01089391       0.09772620        1       1.00000000       0.11454670      -0.08518401      -0.15060859
Ni       5.25191839      -0.01971358       0.09135124        1       1.00000000       0.12041642       0.07282456      -0.15272784
Ni       7.87045837      -0.01874192       0.06011257        1       1.00000000       0.02601812      -0.08083289       0.63249323
Ni       1.30780508       2.27903681       0.08850305        1       1.00000000       0.07058908       0.07256236      -0.20022614
Pt       3.87967630       2.31709378       0.08919736        1       0.00000000      -0.00545161       0.14620565      -0.68953889
Pt       6.56330917       2.21445438       0.08865649        1       0.00000000      -0.05032021      -0.12806059      -0.21225566
Ni       9.17556050       2.25941579       0.09609074        1       1.00000000      -0.07928193      -0.16995544       0.02018569
Ni       2.62135372       4.55344611       0.08051095        1       1.00000000      -0.02986247      -0.05144860      -0.23109181
Ni       5.24591723       4.55434658       0.08168854        1       1.00000000       0.18097107      -0.06620353      -0.10294735
Pt       7.92357633       4.57951712       0.08960005        1       0.00000000       0.01452823       0.01879140      -0.15867096
Ni      10.49709632       4.58111981       0.00000000        0       1.00000000       0.01288945       0.05658922       0.29911467
Ni       3.91994142       6.84657857       0.09876098        1       1.00000000      -0.06155330       0.20163351       0.02221179
Pt       6.54217136       6.87096573       0.13401283        1       0.00000000      -0.06750076       0.04772492      -0.35866802
Ni       9.19910487       6.83769328       0.01321170        0       1.00000000      -0.02478714      -0.03336469       0.39810750
Ni      11.79910142       6.84957125       0.00201402        0       1.00000000       0.15128225       0.06864230       0.40055966
Pt       1.28140754       0.70428675       2.08860674        2       0.00000000      -0.02033453      -0.04519108       0.05453749
Pt       3.98446576       0.76972842       2.19011613        3       0.00000000       0.13680695      -0.00212336       0.15173209
Ni       6.58008056       0.75039692       2.20995309        3       1.00000000       0.15882372      -0.04467983       0.13100423
Ni       9.11501367       0.74059625       2.15405406        3       1.00000000      -0.19420107      -0.05435127      -0.08179524
Ni       2.61898495       3.04078831       2.16920999        3       1.00000000      -0.05087775       0.01775615       0.23249974
Ni       5.25930413       3.03644665       2.20570593        3       1.00000000       0.13342031      -0.00588272       0.22607449
Pt       7.81683489       3.02913696       2.30827410        4       0.00000000      -0.07039591       0.00321421       0.13775173
Pt      10.43953634       3.06460881       2.11622241        2       0.00000000      -0.12359839       0.11965388      -0.02089891
Pt       3.98766629       5.31739070       2.08520675        2       0.00000000       0.07165971       0.03404274      -0.01264139
Ni       6.58507505       5.31423721       2.20184032        3       1.00000000       0.17544885      -0.06877180       0.25026922
Ni       9.14836013       5.33970083       2.22767469        3       1.00000000      -0.10481293       0.05108614       0.24819347
Pt      11.77462775       5.33673812       2.10723687        2       0.00000000       0.01181076       0.00213340       0.01180128
Ni       5.22248105       7.58392114       2.14780074        2       1.00000000      -0.14023785       0.03383489       0.09336722
Ni       7.87864640       7.53424150       2.17833105        3       1.00000000       0.11938444      -0.18973498       0.17848795
Pt      10.48486143       7.56426019       2.09697896        2       0.00000000      -0.01451284      -0.01416054      -0.03252153
Ni      13.11728681       7.63948764       2.13339707        2       1.00000000      -0.02366470       0.12415024      -0.13689059
Pt      -0.07634975       1.53969741       4.32688685        5       0.00000000      -0.12335526       0.06768570      -0.17473097
Pt       2.63553707       1.51170719       4.33618918        5       0.00000000      -0.11391614      -0.03686430      -0.12219971
Ni       5.28991973       1.52170600       4.35370202        6       1.00000000       0.05586171       0.05287996      -0.38924817
Ni       7.82639803       1.54658616       4.36737676        6       1.00000000      -0.06668322       0.03077813      -0.20552355
Pt       1.23950632       3.82685546       4.37451933        6       0.00000000      -0.12824829       0.04245656      -0.09081295
Pt       4.00736649       3.75012539       4.28839340        5       0.00000000       0.03936849      -0.02827850      -0.19337703
Ni       6.59484088       3.77122480       4.36771961        6       1.00000000       0.03231424       0.01112715      -0.24645095
Ni       9.13928880       3.83901269       4.37200159        6       1.00000000      -0.06120491       0.11326156      -0.28251102
Pt       2.58667673       6.07271814       4.36067662        6       0.00000000      -0.01389773       0.00791896      -0.13600797
Pt       5.33169037       6.00942873       4.29292091        5       0.00000000       0.12640400      -0.09408504      -0.15064690
Ni       7.92234443       6.01487351       4.33535621        5       1.00000000       0.12068166      -0.15402649      -0.40522736
Ni      10.42980799       6.04695590       4.43150332        6       1.00000000      -0.07736419      -0.06215306      -0.05051688
Pt       3.92145238       8.35383973       4.28291076        5       0.00000000       0.03041925       0.00240583      -0.20486196
Pt       6.58313840       8.29156163       4.28795682        5       0.00000000      -0.03478478       0.01890462      -0.17148926
Pt       9.19969552       8.23976256       4.36658562        6       0.00000000      -0.02150239      -0.08177547      -0.07819614
Pt      11.79616380       8.40526741       4.35189871        6       0.00000000      -0.07052552       0.07885823      -0.08865803
Pt      -0.03664427      -0.01177158       6.66987228        9       0.00000000       0.13183058      -0.00533787       0.16063085
Pt       2.65410891      -0.04724228       6.67181861        9       0.00000000       0.03187571       0.01479824       0.35972219
Pt       5.29415497      -0.09645053       6.66340229        9       0.00000000      -0.06389022       0.13620462       0.08217118
Ni       7.83820196      -0.00101886       6.60947988        8       1.00000000       0.02972560       0.01371759      -0.26422168
Pt       1.28889937       2.29616779       6.66359872        9       0.00000000       0.06650772      -0.06413711       0.28373165
Pt       3.95447749       2.25390418       6.54988798        7       0.00000000       0.05344597      -0.07780925       0.71344392
Pt       6.57507321       2.22947499       6.47877650        7       0.00000000      -0.03064966       0.03467363       0.38445872
Pt       9.14883105       2.29808689       6.62722636        8       0.00000000      -0.10521390       0.14346727       0.03635355
Pt       2.54982226       4.58714934       6.66129218        9       0.00000000       0.06161549      -0.00097227       0.19484072
Pt       5.26168645       4.54496222       6.61739777        8       0.00000000       0.04785904       0.05813414       0.24626655
Pt       7.95615176       4.58965519       6.47468838        7       0.00000000      -0.11066254      -0.01414473       0.24897695
Ni      10.46375960       4.61296669       6.58875943        8       1.00000000       0.00633535       0.10970687      -0.26638636
Pt       3.86114904       6.85299136       6.65575454        9       0.00000000       0.03810183      -0.06193510       0.06658990
Pt       6.61171072       6.80305966       6.55362957        8       0.00000000      -0.03143145      -0.04334410       0.43170870
Ni       9.23432807       6.78528143       6.57769674        8       1.00000000       0.06699995      -0.02814205      -0.26165891
Ni      11.74633062       6.81701585       6.60552790        8       1.00000000      -0.09003459      -0.12694793      -0.30023386
