64
Lattice="10.32287936584124 -0.027925701202569386 -0.0007636789257653227 5.137255316260706 8.86046849968049 -0.03778022020767332 0.0 0.0 21.550865732128297" Properties=species:S:1:pos:R:3:tags:I:1:initial_magmoms:R:1:forces:R:3 unique_id=e69a237c83044102ae024ae261ca8a2c stress="0.005560336761070615 -0.00021167354958940673 6.0208320753698176e-05 -0.00021167354958940673 0.005766041902876519 -0.00026928244449729577 6.0208320753698176e-05 -0.00026928244449729577 -0.0019105891707414564" energy=-374.79116183837533 pbc="T T T"
Ni       0.00157690       0.01946236       0.14040747        1       1.00000000       0.10785685      -0.03706701      -0.20840061
Ni       2.57528982      -0.00456827       0.17005840        2       1.00000000      -0.04279972       0.02986819      -0.12961464
Ni       5.15452031      -0.02820554       0.12637763        1       1.00000000      -0.01187827       0.19965708      -0.38378606
Ni       7.74450156      -0.06998459       0.14736064        1       1.00000000      -0.11174300      -0.11817280      -0.23590963
Ni       1.25169246       2.21839772       0.05591978        1       1.00000000      -0.08343530       0.01672152       0.45575896
Pt       3.79467841       2.21500335       0.06428053        1       0.00000000       0.01836429       0.00026801      -0.01928123
Pt       6.46322669       2.15198269       0.14532914        1       0.00000000       0.01468893      -0.04907259      -0.49765414
Ni       9.06667826       2.19090222       0.09863536        1       1.00000000       0.05254148       0.12683639      -0.08627176
Ni       2.56219119       4.44597621       0.01424757        0       1.00000000       0.06675627       0.01393584       0.26911203
Ni       5.11541516       4.43717955       0.12764679        1       1.00000000      -0.05327264       0.03293857       0.06764233
Pt       7.80440455       4.42525732       0.04844808        0       0.00000000       0.01440463      -0.01692788      -0.01869045
Ni      10.34212277       4.40019809       0.01508140        0       1.00000000       0.05345279      -0.08161351       0.28428551
Ni       3.81873511       6.64003846       0.12647210        1       1.00000000      -0.03444253      -0.05632447       0.03996071
Pt       6.40504626       6.67772277       0.12099904        1       0.00000000      -0.08139004       0.02486608      -0.55641842
Ni       9.03499073       6.64106420       0.00426820        0       1.00000000      -0.11248758      -0.02457514       0.07491005
Ni      11.61333498       6.61739049       0.00000000        0       1.00000000       0.14780251      -0.02421167       0.17641827
Ni       1.30150362       0.75227908       2.12001262        4       1.00000000       0.01651780       0.14709394      -0.01874826
Ni       3.85802626       0.74776852       2.15585324        5       1.00000000       0.02979926       0.09373553       0.19825255
Ni       6.44367516       0.73063819       2.19288449        5       1.00000000      -0.03878428       0.14857286       0.26633384
Pt       9.03947511       0.74827201       2.13655022        4       0.00000000       0.02208861       0.08230457       0.16026148
Ni       2.57376511       2.93977089       2.15713465        5       1.00000000       0.03739209       0.03109318       0.08640434
Ni       5.12053643       2.95006899       2.18075858        5       1.00000000      -0.19893232       0.01746113       0.15214421
Ni       7.76197807       2.94738880       2.18755222        5       1.00000000       0.12772473       0.07969818       0.16930471
Ni      10.32054421       2.91916551       2.15227287        5       1.00000000       0.09185646       0.01959569       0.08843649
Ni       3.88628844       5.15137379       2.15038355        5       1.00000000       0.09189164      -0.09257931       0.12939065
Ni       6.42110130       5.15275534       2.16538217        5       1.00000000      -0.05764824       0.04321785       0.12394270
Ni       9.00045952       5.11978085       2.16876847        5       1.00000000      -0.03104886      -0.14525711       0.17653290
Pt      11.64819027       5.07649676       2.10915655        4       0.00000000       0.08675486      -0.09818424       0.01869250
Ni       5.11535988       7.34097822       2.12601396        4       1.00000000      -0.12779767      -0.14178444       0.08956344
Ni       7.72028498       7.36124552       2.12221769        4       1.00000000       0.05556474      -0.08954225       0.02015258
Pt      10.28487191       7.36229125       2.03433190        3       0.00000000       0.02699578      -0.15472456      -0.09073611
Ni      12.90521925       7.32645168       2.08643699        4       1.00000000       0.03058269      -0.08672270       0.07017919
Ni      -0.00477165       1.52990538       4.28639137        7       1.00000000      -0.00491360       0.09406047      -0.19858853
Pt       2.56410298       1.57174764       4.25708843        7       0.00000000      -0.03060332       0.00625490      -0.07610270
Ni       5.14636842       1.48338236       4.26690858        7       1.00000000      -0.03006870       0.10787379      -0.33246548
Ni       7.76021612       1.47568468       4.27124147        7       1.00000000       0.07023045       0.01620067      -0.27794185
Ni       1.27931685       3.67290550       4.32742715        7       1.00000000      -0.04194358      -0.00304111      -0.12340859
Ni       3.84364544       3.70896704       4.27217179        7       1.00000000       0.02156399       0.14803961      -0.28941862
Pt       6.45502816       3.68982174       4.18340188        6       0.00000000      -0.06617487       0.00532972       0.00520512
Ni       9.02928066       3.63325374       4.26611963        7       1.00000000       0.00331673      -0.15442693      -0.34908626
Ni       2.57643143       5.81916088       4.28626686        7       1.00000000       0.06851061      -0.18240563      -0.15221592
Ni       5.12073378       5.84402548       4.23284239        6       1.00000000      -0.07689772      -0.05825396      -0.38897048
Ni       7.74139148       5.83274400       4.25157766        7       1.00000000       0.00993696      -0.02954595      -0.35126377
Pt      10.30032853       5.76501520       4.34991098        7       0.00000000       0.03665659      -0.00738551      -0.06648548
Pt       3.85102518       8.07501041       4.20961706        6       0.00000000       0.01325576      -0.04924906       0.03271978
Pt       6.41518341       8.08112256       4.15296704        6       0.00000000      -0.09141016       0.04866195      -0.17845137
Pt       8.98878405       8.08499639       4.23023894        6       0.00000000      -0.05750033       0.02535503      -0.03850537
Pt      11.60850834       8.10147939       4.22211143        6       0.00000000       0.06872455       0.01629519      -0.02322370
Pt       0.02556636       0.02394012       6.52070506        9       0.00000000       0.05937877       0.08217832       0.27953348
Pt       2.59204503       0.02985377       6.55086573       10       0.00000000       0.02582990       0.06114618       0.32508059
Pt       5.14338124      -0.09376157       6.53106024        9       0.00000000      -0.02906823       0.10175114       0.50445687
Pt       7.73454575      -0.05658163       6.54111035        9       0.00000000       0.00086716       0.22816898       0.46348728
Ni       1.30740797       2.27156161       6.44907498        8       1.00000000       0.00887857       0.09550818      -0.24474493
Ni       3.82593420       2.21847360       6.38642926        8       1.00000000      -0.01776077      -0.05782044       0.10828131
Pt       6.44027929       2.19395565       6.38438181        8       0.00000000       0.01543029      -0.10682023       0.56762411
Pt       9.09406525       2.28973244       6.43812629        8       0.00000000      -0.00934856       0.03556259       0.05428857
Ni       2.50169475       4.36861507       6.42498494        8       1.00000000      -0.08808526      -0.04861567      -0.35580813
Pt       5.07758396       4.35427297       6.45155665        9       0.00000000      -0.11420082       0.06427886       0.06177497
Ni       7.78184820       4.41629054       6.36341279        8       1.00000000       0.08417082       0.06397734      -0.04051466
Ni      10.34861166       4.40586441       6.45542853        9       1.00000000       0.11308835      -0.02635442      -0.17951722
Pt       3.77105005       6.55084063       6.46465071        9       0.00000000       0.09235473      -0.16469723       0.08957157
Pt       6.50011469       6.55352620       6.37459538        8       0.00000000      -0.10999885      -0.07355514       0.46267283
Ni       9.04200460       6.54461348       6.44909700        8       1.00000000      -0.05310740      -0.06164960      -0.08730361
Ni      11.56589775       6.53171027       6.45603502        9       1.00000000       0.02151197      -0.06792699      -0.07284795
