64
Lattice="10.399659263431865 0.005511505199207094 0.016283784522003342 5.204602735231535 8.924147999248518 -0.018442779311319765 0.01329565438677955 -0.02506426872587424 8.873887079126519" Properties=species:S:1:pos:R:3:tags:I:1:initial_magmoms:R:1:forces:R:3 unique_id=6ec279e6a74e429892a001d3a36d612f stress="0.00035661214277301484 2.3169240984152136e-06 -1.0103768057542427e-05 2.3169240984152136e-06 0.0003578748384308328 2.0618648645890734e-05 -1.0103768057542427e-05 2.0618648645890734e-05 0.0003278958868489293" energy=-401.369272206406 pbc="T T T"
Ni      -0.03557919      -0.00807203       0.19249164        4       1.00000000      -0.14434892      -0.00347697       0.36691976
Ni       2.62158722      -0.01939846       0.11333450        4       1.00000000       0.12705591      -0.05357984       0.28076725
Ni       5.20274071      -0.02656139       0.16641508        4       1.00000000       0.00389882       0.05173117       0.29081216
Ni       7.82311347      -0.04042952       0.12093394        4       1.00000000       0.07527471      -0.16880647       0.23029912
Pt       1.27927822       2.19836798       0.13924839        4       0.00000000      -0.06107382      -0.07855252       0.15851892
Pt       3.89703205       2.21932096       0.18551175        4       0.00000000       0.01623443      -0.00126396       0.12029655
Pt       6.51713551       2.15545711       0.15253105        4       0.00000000       0.10373135      -0.13365614       0.16562605
Ni       9.10631205       2.20203800       0.14790599        4       1.00000000      -0.00338876      -0.15950104       0.16049510
Ni       2.60580477       4.49102213       0.13111795        4       1.00000000       0.04195495      -0.03335762       0.17071091
Ni       5.19824520       4.47075221       0.15718617        4       1.00000000       0.17593694      -0.07670161       0.27084276
Pt       7.87214896       4.49664953       0.06861092        4       0.00000000       0.11515231      -0.00703296      -0.12374951
Ni      10.41522381       4.49911287       0.06517873        4       1.00000000       0.08582431       0.06778164       0.05828408
Ni       3.87717046       6.71771733       0.16393966        4       1.00000000      -0.04293848       0.10877131       0.26090706
Pt       6.48742412       6.75276490       0.19269313        4       0.00000000      -0.04119818       0.04072862       0.11562753
Ni       9.12860293       6.71697819       0.06844142        4       1.00000000       0.01443924       0.07285780       0.03561980
Ni      11.71433410       6.71070184       0.06533413        4       1.00000000       0.09687428       0.07973992       0.00973236
Ni       1.32482300       0.70611890       2.22909187        3       1.00000000       0.08438809       0.01865687      -0.09464005
Ni       3.88073279       0.75445033       2.26292415        3       1.00000000      -0.07966379       0.08026856       0.12039230
Ni       6.50664006       0.72071858       2.26130316        3       1.00000000       0.01060527      -0.02248279       0.11260516
Ni       9.09819688       0.70094525       2.21193223        3       1.00000000      -0.06492840      -0.04991434      -0.10347090
Ni       2.63031326       2.93665869       2.26921059        3       1.00000000       0.01395794      -0.09654244       0.10018215
Ni       5.18308153       2.94699971       2.27257636        3       1.00000000      -0.04142276      -0.14303862       0.10905878
Pt       7.80525096       2.94059729       2.28320150        3       0.00000000      -0.08409922      -0.06698195      -0.15742818
Pt      10.37895794       2.92465798       2.28232451        3       0.00000000       0.09983837      -0.06907433      -0.12514954
Pt       3.93118184       5.19075580       2.18177620        3       0.00000000      -0.02085170      -0.04022758       0.08925564
Ni       6.52918918       5.21569515       2.23224257        3       1.00000000       0.14493476       0.03809687       0.02042284
Ni       9.08310642       5.23307306       2.26152852        3       1.00000000      -0.06138986       0.05748074       0.15187871
Pt      11.70107513       5.23414299       2.19247305        3       0.00000000      -0.07747122       0.05208307      -0.03296147
Ni       5.19476610       7.47359111       2.19720570        3       1.00000000      -0.07144663       0.08320308      -0.02406773
Ni       7.80757219       7.44303086       2.22123432        3       1.00000000       0.02608181      -0.00119515      -0.00273801
Pt      10.36903442       7.46583392       2.14661941        3       0.00000000      -0.05089477      -0.02171646      -0.01321254
Ni      13.02314492       7.47479056       2.18828839        3       1.00000000      -0.04875760       0.06982688      -0.08451360
Ni      -0.01332998       1.49376405       4.37523573        2       1.00000000      -0.06086854       0.07551961      -0.08090699
Ni       2.62607182       1.49113491       4.34432736        2       1.00000000       0.05727197       0.10354140      -0.29865954
Ni       5.19091829       1.48542520       4.34786907        2       1.00000000      -0.03788423      -0.00785580      -0.28550819
Ni       7.82463624       1.48026068       4.38873790        2       1.00000000       0.01045777       0.02783586      -0.13879066
Pt       1.30140336       3.72857849       4.36925553        2       0.00000000       0.09366388       0.04739856       0.11221799
Ni       3.89705609       3.67431595       4.36445215        2       1.00000000      -0.01171016      -0.06457756      -0.14541274
Pt       6.53159243       3.69732420       4.36614445        2       0.00000000      -0.10830707       0.00126040       0.14302707
Ni       9.11548386       3.74282407       4.43053248        2       1.00000000       0.03535709       0.13158263      -0.08063581
Ni       2.58754490       5.93382901       4.39087464        2       1.00000000      -0.00241427       0.05354309      -0.10760908
Pt       5.20248172       5.93090249       4.33387827        2       0.00000000       0.03365251       0.10077583       0.11427253
Ni       7.87105526       5.90666288       4.38060027        2       1.00000000       0.10884178      -0.02409567      -0.22437769
Ni      10.37926414       5.92025067       4.44678289        2       1.00000000      -0.05744994       0.01245351      -0.07656270
Pt       3.89049091       8.22842347       4.29718449        2       0.00000000      -0.03664783       0.03169802      -0.05175276
Pt       6.53142889       8.23695126       4.29526143        2       0.00000000      -0.00507218       0.07029162       0.00467270
Pt       9.09636810       8.16237312       4.38225455        2       0.00000000      -0.03899274       0.01661495       0.03139595
Pt      11.71880836       8.16721728       4.38125063        2       0.00000000      -0.01847695      -0.00344197      -0.03677099
Pt      -0.00017130      -0.01615169       6.63486907        1       0.00000000      -0.02482016       0.00429033       0.19289401
Ni       2.62731106      -0.03806831       6.59251426        1       1.00000000       0.03227113      -0.02939663      -0.13564164
Pt       5.20315585      -0.12385289       6.65762258        1       0.00000000      -0.08102840      -0.23023051       0.18511204
Ni       7.79208891      -0.02001829       6.60548356        1       1.00000000      -0.02616223       0.02974569      -0.13037355
Pt       1.30158455       2.19709462       6.50240822        1       0.00000000       0.02990056       0.00825171      -0.32040624
Pt       3.89556289       2.16854991       6.47895527        1       0.00000000      -0.00948590      -0.06112143      -0.21765898
Pt       6.53762822       2.15893804       6.51377202        1       0.00000000      -0.03672094      -0.09273843      -0.29748837
Pt       9.10257905       2.28173227       6.56649322        1       0.00000000      -0.01670858       0.10019881       0.01058420
Pt       2.53132807       4.49738015       6.59592538        1       0.00000000      -0.10306166       0.03793247       0.08211028
Pt       5.23099575       4.44919881       6.61852963        1       0.00000000      -0.02289884       0.07696308       0.10347389
Ni       7.86827867       4.47070578       6.49179863        1       1.00000000       0.09701345       0.06022937      -0.31105951
Ni      10.36574716       4.51202979       6.56569716        1       1.00000000      -0.12508729       0.17137408      -0.22784736
Pt       3.82639679       6.72571403       6.62304014        1       0.00000000      -0.11988001       0.05972848       0.14831178
Pt       6.63587182       6.67551351       6.53097470        1       0.00000000       0.14210618       0.03200198      -0.14287953
Ni       9.14306662       6.62650060       6.56739034        1       1.00000000       0.11083796      -0.21936799      -0.23319021
Ni      11.66945507       6.66289179       6.58277989        1       1.00000000      -0.15000576      -0.11452923      -0.22186338
