64
Lattice="10.448869799364584 0.05013511166982139 0.006150628541253556 5.267853180009929 9.091380587448326 -0.04626624891861185 0.0 0.0 21.723654176470127" Properties=species:S:1:pos:R:3:tags:I:1:initial_magmoms:R:1:forces:R:3 unique_id=a304ef1629984449bce368ed90718849 stress="0.006334603468356426 0.00023453829414724382 0.0002555514689978333 0.00023453829414724382 0.006096669708419308 -0.00037206976566918375 0.0002555514689978333 -0.00037206976566918375 -0.0024361002716695446" energy=-383.18283427499193 pbc="T T T"
Ni      -0.05941352      -0.01934969       0.14521155        1       1.00000000      -0.16812714      -0.07154908      -0.11150328
Ni       2.64444432      -0.02708418       0.14157236        1       1.00000000       0.10760697      -0.05167058      -0.15500585
Ni       5.25307427      -0.01606582       0.12706920        1       1.00000000       0.13695726       0.07096348      -0.19535824
Ni       7.86625259      -0.01282352       0.08870835        1       1.00000000      -0.02900842      -0.07862934       0.55628002
Pt       1.28635423       2.28338470       0.08723248        1       0.00000000       0.22454020       0.06646399      -0.99103782
Pt       3.93688429       2.32009222       0.11757082        1       0.00000000       0.01116981       0.15179490      -0.76838562
Pt       6.58173246       2.21507737       0.10436996        1       0.00000000      -0.09851298      -0.14744896      -0.21998375
Ni       9.15252963       2.26853195       0.04666577        0       1.00000000       0.00018125      -0.11917734       0.34411760
Ni       2.64102914       4.56848372       0.09825932        1       1.00000000      -0.00061956      -0.08194041      -0.30132746
Ni       5.26078359       4.56032131       0.10111886        1       1.00000000       0.20294783      -0.04870036      -0.09805025
Pt       7.92893849       4.57899502       0.10246821        1       0.00000000      -0.03772318       0.10388760      -0.13874258
Ni      10.48237577       4.61978737       0.00727113        0       1.00000000       0.01716987       0.07637691       0.26916892
Ni       3.92579469       6.84728212       0.11832242        1       1.00000000      -0.03245714       0.14169765      -0.03479878
Pt       6.54717082       6.87207437       0.14507790        1       0.00000000      -0.04522316      -0.02056756      -0.33625579
Ni       9.20239406       6.84608891       0.01648437        0       1.00000000      -0.03809599      -0.05941922       0.39783084
Ni      11.80541754       6.86707081       0.00000000        0       1.00000000       0.13083913       0.06257483       0.42383176
Pt       1.27029126       0.66903076       2.16407042        3       0.00000000      -0.04723360      -0.14269446       0.21827922
Pt       3.98628784       0.77941004       2.22432587        3       0.00000000       0.06331005      -0.05956705       0.25436765
Ni       6.57665637       0.75462619       2.23305291        3       1.00000000       0.08726408      -0.05903826       0.13321460
Ni       9.09343428       0.75282297       2.17558697        3       1.00000000      -0.14018975       0.01102756      -0.03801178
Ni       2.62914547       3.03654236       2.20517138        3       1.00000000      -0.03689458       0.00635859       0.32345703
Ni       5.26437880       3.03544329       2.23140290        3       1.00000000       0.07237111       0.02446719       0.25735955
Pt       7.79172511       3.03481641       2.32774106        4       0.00000000      -0.01826295      -0.04335558       0.17753570
Pt      10.38739090       3.08690469       2.19181615        3       0.00000000      -0.26095497       0.07645143       0.06707286
Pt       3.99684442       5.31641061       2.10412659        2       0.00000000       0.06883311       0.00436707       0.06602636
Ni       6.59602621       5.31826476       2.21579488        3       1.00000000       0.10004638      -0.03940885       0.27784944
Ni       9.13834005       5.35686090       2.24416557        3       1.00000000      -0.06961056       0.06184967       0.19380269
Pt      11.77124842       5.34745634       2.11549258        2       0.00000000       0.02077210      -0.05792400       0.04471864
Ni       5.22198774       7.57289167       2.15657279        3       1.00000000      -0.10765955       0.01854441       0.16764526
Ni       7.88811375       7.52100052       2.19118486        3       1.00000000       0.09965859      -0.12122202       0.22130458
Pt      10.48768007       7.56905971       2.09818871        2       0.00000000      -0.04939768       0.02974272       0.02620974
Ni      13.11556721       7.65671962       2.12907834        2       1.00000000      -0.04564718       0.06795155      -0.05407690
Pt      -0.12111561       1.53798468       4.40381456        6       0.00000000      -0.15689772       0.04907293      -0.20118620
Pt       2.62985263       1.50367285       4.37446872        6       0.00000000      -0.08811278      -0.10050121      -0.24157507
Ni       5.29057720       1.52416332       4.38696674        6       1.00000000       0.03416550       0.05986438      -0.33185701
Ni       7.81518019       1.55482294       4.39945371        6       1.00000000      -0.05407226       0.02034743      -0.16940840
Pt       1.24071977       3.82829229       4.39875201        6       0.00000000      -0.07999595       0.10490831      -0.22494354
Pt       4.00813047       3.73818006       4.31623886        5       0.00000000       0.05089214       0.05807116      -0.22611220
Ni       6.59621864       3.76626727       4.40430812        6       1.00000000      -0.01328191       0.01991724      -0.23024884
Ni       9.12518975       3.84217924       4.39772716        6       1.00000000      -0.03827243       0.04019282      -0.22006455
Pt       2.59678034       6.06158300       4.38290325        6       0.00000000       0.02005017      -0.00560243      -0.12924705
Pt       5.34313508       5.99670814       4.31923516        5       0.00000000       0.03716708      -0.11817590      -0.15846176
Ni       7.92557479       6.00000414       4.35357112        6       1.00000000       0.08355585      -0.09395907      -0.31285669
Ni      10.42145901       6.04928952       4.44733360        6       1.00000000      -0.04129788      -0.01318854      -0.06200126
Pt       3.93037531       8.33594453       4.29362473        5       0.00000000       0.00177907       0.00103046      -0.17958367
Pt       6.58480876       8.28070442       4.32094231        5       0.00000000      -0.03414728       0.10244002      -0.19275203
Pt       9.20060443       8.23303745       4.37867235        6       0.00000000      -0.01079193      -0.02120700      -0.09403685
Pt      11.79380810       8.41423533       4.35711906        6       0.00000000      -0.05677536       0.04978683      -0.06159026
Pt      -0.08530528       0.01520473       6.72365418        9       0.00000000       0.14203712      -0.01756712       0.05634707
Pt       2.63601092      -0.05134746       6.72291141        9       0.00000000      -0.05874912       0.10357188       0.31367758
Pt       5.28794653      -0.09634180       6.71521198        9       0.00000000      -0.04793281       0.23806005       0.02036721
Ni       7.83148657       0.01411316       6.64821848        8       1.00000000       0.01663979       0.00299713      -0.31016247
Pt       1.22939720       2.29740359       6.58804584        8       0.00000000       0.07484764      -0.05380957       0.93268542
Pt       3.95580644       2.24455687       6.57652688        8       0.00000000       0.07252967      -0.08914621       0.74408528
Pt       6.63311310       2.21952415       6.51422146        7       0.00000000      -0.08718498       0.04736594       0.34556580
Ni       9.14273264       2.29081991       6.63041802        8       1.00000000      -0.01219060       0.05190660      -0.21600552
Pt       2.55030800       4.57067290       6.69651802        9       0.00000000       0.05587565      -0.08702144       0.16947833
Pt       5.27155460       4.52921619       6.65073001        9       0.00000000       0.15176309      -0.01740280       0.20099161
Pt       7.98338740       4.53588731       6.50538882        7       0.00000000      -0.15200461      -0.01348209       0.19316772
Ni      10.45050564       4.61096841       6.60857283        8       1.00000000       0.02347151       0.08253312      -0.28048936
Pt       3.86488563       6.84443471       6.69571173        9       0.00000000       0.09007634      -0.02449043      -0.00629677
Pt       6.61754442       6.78871215       6.57612575        8       0.00000000       0.00376510      -0.04396487       0.44380753
Ni       9.23606881       6.77267511       6.59345168        8       1.00000000       0.00083961      -0.01251254      -0.25281935
Ni      11.73566968       6.81173038       6.61713221        8       1.00000000      -0.04579704      -0.09224157      -0.29600907
