64
Lattice="10.793735682364911 0.0005266823577099455 0.004571983587707146 5.3973239614839565 9.347656090159061 -0.0005513250821164154 0.003733008967420556 -0.002675048004497885 9.465279411587742" Properties=species:S:1:pos:R:3:tags:I:1:initial_magmoms:R:1:forces:R:3 unique_id=7569d34e26ef4f9883d11de78a948cae stress="-0.00013356627943364452 -7.004219666970653e-08 -1.0344369508098922e-06 -7.004219666970653e-08 -0.00013319735146920253 7.429973816193336e-07 -1.0344369508098922e-06 7.429973816193336e-07 -7.250138774361065e-05" energy=-432.9825340108718 pbc="T T T"
Pt       0.00599346       0.00064437       0.09254061        4       0.00000000       0.03366568      -0.00670396       0.11917014
Pt       2.71810726       0.02693622       0.09062562        4       0.00000000       0.03922235       0.05027969       0.09461944
Pt       5.38089463       0.02868974       0.01994063        4       0.00000000      -0.03748459       0.06934852      -0.05404867
Pt       8.08625303       0.00418223       0.08677223        4       0.00000000      -0.04193741       0.02166639       0.09005822
Pt       1.38204300       2.33648718       0.09210271        4       0.00000000       0.07569589      -0.00787009       0.10351460
Ni       4.04937280       2.33365176       0.07969375        4       1.00000000       0.01441627      -0.01045915       0.33598559
Pt       6.71171334       2.33468717       0.09236306        4       0.00000000      -0.09119465      -0.02463839       0.08399483
Pt       9.44303863       2.33891641       0.09647845        4       0.00000000      -0.01617753       0.01063578       0.11960697
Pt       2.71794994       4.64677598       0.09421021        4       0.00000000       0.06836396      -0.05267643       0.10632986
Pt       5.39025078       4.65192559       0.11133626        4       0.00000000      -0.01293824      -0.03928095       0.09954299
Pt       8.08228806       4.67707073       0.11315539        4       0.00000000      -0.05331014      -0.00250886       0.13116179
Pt      10.79567922       4.67226466       0.09635697        4       0.00000000       0.01062760      -0.00881519       0.12135472
Pt       4.04902670       7.00417819       0.09152803        4       0.00000000      -0.01241002      -0.02322917       0.09482487
Pt       6.74629193       6.99968615       0.11097050        4       0.00000000       0.00003786      -0.02767614       0.12055100
Pt       9.44576680       7.01813001       0.09010314        4       0.00000000       0.01266211       0.05197678       0.09561696
Pt      12.14053383       7.01503488       0.08718626        4       0.00000000      -0.01154890       0.01731522       0.09423290
Pt       1.35361654       0.77285486       2.38518878        3       0.00000000       0.02188442      -0.03784930       0.10528942
Pt       4.05374433       0.79001042       2.36321480        3       0.00000000       0.04672226       0.00421194       0.03578727
Pt       6.74065468       0.78335454       2.39268990        3       0.00000000      -0.02879276       0.00662413       0.12886135
Pt       9.44462422       0.77854321       2.39182359        3       0.00000000      -0.01858148       0.00453574       0.10482402
Pt       2.71802935       3.11056344       2.36019399        3       0.00000000       0.06593942      -0.01164332       0.03507240
Pt       5.40349615       3.13636838       2.36336212        3       0.00000000       0.01314642       0.01096284       0.07895849
Pt       8.07317955       3.14572951       2.38889801        3       0.00000000      -0.07758592       0.05077091       0.08906371
Pt      10.79330553       3.11886422       2.38917031        3       0.00000000      -0.00507373       0.01519738       0.08964466
Pt       4.08383349       5.44903298       2.38903615        3       0.00000000       0.07252842      -0.00862485       0.12309418
Ni       6.74757320       5.45080956       2.37331980        3       1.00000000      -0.00433295      -0.01704032       0.04606163
Pt       9.41083097       5.45373606       2.39021809        3       0.00000000      -0.05765839       0.01483397       0.08518728
Pt      12.14609629       5.45026571       2.38889774        3       0.00000000       0.01107088      -0.00272840       0.09295031
Pt       5.41559034       7.75890990       2.39192068        3       0.00000000       0.04135947      -0.05606458       0.11991097
Pt       8.08162681       7.76247946       2.38680066        3       0.00000000      -0.00125329      -0.01600845       0.10947387
Pt      10.78743282       7.79444854       2.39286611        3       0.00000000      -0.03760956       0.04498836       0.11306983
Pt      13.49881119       7.78625969       2.39113757        3       0.00000000       0.00163448      -0.00944006       0.12553870
Pt       0.00270045       1.55673367       4.71017648        2       0.00000000       0.01451721      -0.00623839      -0.10797564
Pt       2.70740029       1.55798208       4.71021592        2       0.00000000       0.03606614       0.01738936      -0.12950426
Pt       5.39510539       1.54859320       4.73566631        2       0.00000000      -0.03241516       0.01972487      -0.05369491
Pt       8.09238965       1.55951057       4.71360395        2       0.00000000      -0.02838847       0.02737466      -0.12789627
Pt       1.35143318       3.89377848       4.71112263        2       0.00000000       0.02413580      -0.00129466      -0.12696467
Pt       4.05406089       3.88680441       4.70732701        2       0.00000000       0.01338126      -0.05369510      -0.09399652
Pt       6.74641892       3.90258703       4.69020927        2       0.00000000      -0.02840613       0.02665916      -0.18236074
Pt       9.44391133       3.89517990       4.70800409        2       0.00000000      -0.01083670       0.00398920      -0.11118856
Pt       2.70229523       6.23236855       4.70960233        2       0.00000000       0.01479116      -0.00176424      -0.11134945
Pt       5.40967140       6.22341573       4.68621114        2       0.00000000       0.04585668      -0.04649120      -0.15688935
Pt       8.08865133       6.22765676       4.68659732        2       0.00000000      -0.04002640      -0.01099844      -0.17624213
Pt      10.79260886       6.23349078       4.71042247        2       0.00000000      -0.02054453      -0.00126818      -0.14748693
Pt       4.04813816       8.56438839       4.70897135        2       0.00000000      -0.00876000      -0.01626381      -0.11247728
Pt       6.75335602       8.56497590       4.71145761        2       0.00000000       0.03897835       0.00875408      -0.07745320
Pt       9.45717782       8.57237735       4.73875396        2       0.00000000       0.00231721       0.01453943      -0.07846811
Pt      12.13248183       8.57549370       4.73973346        2       0.00000000      -0.03014275       0.02640503      -0.05701186
Pt       0.00228639      -0.00178623       7.01032834        1       0.00000000       0.00182935      -0.00309934      -0.08272453
Pt       2.73569889       0.00264076       7.01456185        1       0.00000000       0.08068425       0.01539952      -0.06583361
Ni       5.39735478       0.00181413       7.02400692        1       1.00000000      -0.01341372       0.02040577      -0.32376684
Pt       8.06540670      -0.00107503       7.01086236        1       0.00000000      -0.07481040       0.00925845      -0.09323892
Pt       1.36092205       2.33108011       7.01623999        1       0.00000000       0.04276977      -0.01907176      -0.07579641
Pt       4.06673239       2.30633561       7.08246763        1       0.00000000       0.03909969      -0.06424445       0.06500740
Pt       6.72826264       2.30453953       7.01742783        1       0.00000000      -0.04965452      -0.06296726      -0.07613152
Pt       9.44204553       2.33191911       7.01400901        1       0.00000000      -0.03545129      -0.00784420      -0.08383413
Pt       2.70412388       4.66805749       7.01492489        1       0.00000000       0.01726459      -0.01825720      -0.07646593
Pt       5.39918658       4.66521329       7.01718162        1       0.00000000       0.00693278      -0.04079960      -0.07240698
Pt       8.09672942       4.67301628       7.01476887        1       0.00000000      -0.01868620       0.00455020      -0.06656075
Pt      10.79669303       4.67835177       7.01457983        1       0.00000000      -0.00350256       0.03150839      -0.07851405
Pt       4.04600725       7.01154346       7.01159519        1       0.00000000      -0.01809825       0.00584681      -0.10325526
Pt       6.75298792       7.00947289       7.01255235        1       0.00000000       0.02779376      -0.00085972      -0.07719847
Pt       9.46480373       7.03802167       7.01275768        1       0.00000000       0.02853019       0.05971711      -0.08328148
Pt      12.12962872       7.03683666       7.01055462        1       0.00000000      -0.04289900       0.05354552      -0.09434296
