64
Lattice="10.418972052830908 0.03337206239924257 0.027840406392649328 5.238387080229881 9.054202331704673 -0.043379839935024984 0.022731596631236296 -0.05402299874727869 8.967731477791713" Properties=species:S:1:pos:R:3:tags:I:1:initial_magmoms:R:1:forces:R:3 unique_id=bbb3c606d5ea49b186089fb93aecbef8 stress="-0.003467927168112936 -4.7049854926751615e-05 3.5972620961472143e-06 -4.7049854926751615e-05 -0.003472984954656054 2.2442217549104375e-05 3.5972620961472143e-06 2.2442217549104375e-05 -0.0029311044662874777" energy=-405.62704463426036 pbc="T T T"
Ni      -0.05500778      -0.02102031       0.17690683        4       1.00000000      -0.18963449      -0.07197024       0.13911476
Ni       2.63821734      -0.02771371       0.08246776        4       1.00000000       0.14027885      -0.06367522       0.04089563
Ni       5.23664416      -0.02763021       0.17175232        4       1.00000000       0.11199879      -0.02315358       0.15486998
Ni       7.84500832      -0.02658644       0.13719480        4       1.00000000       0.04278211      -0.14588899       0.10905453
Pt       1.28234998       2.26703576       0.11663557        4       0.00000000       0.02746471      -0.02698718      -0.14384223
Pt       3.92297180       2.30085874       0.15607534        4       0.00000000       0.04829811       0.06084588      -0.06186692
Pt       6.56099969       2.19411943       0.14882670        4       0.00000000       0.07721613      -0.14530529      -0.07397942
Ni       9.12323944       2.24619753       0.09546124        4       1.00000000      -0.02419001      -0.14203397       0.07364855
Ni       2.62932525       4.55095077       0.13335117        4       1.00000000       0.07707107      -0.00799076       0.08063440
Ni       5.24152827       4.53695550       0.14098908        4       1.00000000       0.21794781      -0.04765353       0.11149971
Pt       7.90131078       4.55431493       0.14736279        4       0.00000000       0.08927110      -0.04008747      -0.01100101
Ni      10.44831789       4.58742423       0.05736226        4       1.00000000       0.04109333       0.09350244      -0.03575743
Ni       3.90431997       6.81903270       0.15395124        4       1.00000000      -0.02005134       0.07337155       0.14923646
Pt       6.52307142       6.84485168       0.18382416        4       0.00000000       0.00681628       0.00001246       0.03784233
Ni       9.16770287       6.81592021       0.05835630        4       1.00000000       0.02661813      -0.00989409       0.01900221
Ni      11.76355960       6.82668938       0.05055324        4       1.00000000       0.10933786       0.02964829      -0.05041912
Pt       1.28007432       0.65714642       2.19234865        3       0.00000000       0.00796108      -0.06008335       0.00494315
Pt       3.97184701       0.76271037       2.26161418        3       0.00000000       0.02101268       0.00289379       0.05027417
Ni       6.56118890       0.73746947       2.27625626        3       1.00000000       0.06264730      -0.06404084       0.01112638
Ni       9.07069740       0.73385090       2.22254259        3       1.00000000      -0.12229919       0.00165946      -0.06239657
Ni       2.62050651       3.02029169       2.23710496        3       1.00000000      -0.06943296      -0.00389279       0.02825320
Ni       5.24850150       3.01747621       2.26710762        3       1.00000000       0.04860427      -0.01141741       0.00423577
Pt       7.76932731       3.01089056       2.36855336        3       0.00000000      -0.06180888       0.00772167      -0.01177769
Pt      10.35833071       3.05639243       2.23907102        3       0.00000000      -0.11938154       0.02253591      -0.05497295
Pt       3.98268254       5.29081334       2.14128357        3       0.00000000       0.04930357      -0.00727313       0.06753106
Ni       6.57324897       5.28984077       2.25298417        3       1.00000000       0.11300225       0.01159885       0.03416929
Ni       9.10909266       5.32383082       2.28727801        3       1.00000000      -0.03658964       0.03882096       0.08578808
Pt      11.73287820       5.31232731       2.16669552        3       0.00000000       0.00002871      -0.02458158      -0.00156777
Ni       5.19963211       7.53894189       2.19172647        3       1.00000000      -0.09570500       0.01574098       0.02456231
Ni       7.85834556       7.48730053       2.23478729        3       1.00000000       0.05361265      -0.08952801       0.07021594
Pt      10.44770372       7.52764933       2.14717719        3       0.00000000       0.00489850      -0.03309619       0.02854383
Ni      13.07000773       7.61139661       2.18034403        3       1.00000000      -0.05048571       0.04230814      -0.05918407
Pt      -0.11598014       1.53049500       4.42730096        2       0.00000000      -0.11889000       0.02757009      -0.09260028
Pt       2.62784791       1.47856323       4.41702575        2       0.00000000      -0.08875644      -0.02122245      -0.07374345
Ni       5.28168560       1.50680286       4.41779834        2       1.00000000       0.04335968       0.04231354      -0.13406303
Ni       7.79862654       1.53393619       4.43663098        2       1.00000000      -0.06965447      -0.00369185      -0.12204852
Pt       1.24239116       3.80406383       4.42594567        2       0.00000000      -0.03002390       0.04318246      -0.07219846
Pt       3.99707170       3.71147798       4.35253865        2       0.00000000      -0.00630857       0.02267926      -0.02046328
Ni       6.57952908       3.74133438       4.43974776        2       1.00000000       0.01061937       0.00932652       0.04373009
Ni       9.10139292       3.81232639       4.43544758        2       1.00000000      -0.04189553       0.08538639      -0.13651289
Pt       2.58758378       6.03425917       4.41000021        2       0.00000000       0.02204915       0.02040623      -0.01113658
Pt       5.33124208       5.97061016       4.35832340        2       0.00000000       0.04091324      -0.04902177       0.04900809
Ni       7.90200326       5.96427116       4.38607186        2       1.00000000       0.03430548      -0.09554002      -0.14642303
Ni      10.38984102       6.01127354       4.48633331        2       1.00000000      -0.03859505      -0.01955111      -0.04732916
Pt       3.91528897       8.29920391       4.32422344        2       0.00000000      -0.00188963      -0.02706486      -0.05852042
Pt       6.56473247       8.24962541       4.37083867        2       0.00000000      -0.04485003       0.03582246      -0.00777578
Pt       9.15915862       8.19257894       4.44623233        2       0.00000000      -0.03838398      -0.00046100       0.00098356
Pt      11.74847950       8.36442674       4.40774939        2       0.00000000      -0.04040350       0.02511305      -0.01070466
Pt      -0.03791461       0.00601114       6.74298246        1       0.00000000      -0.06488629       0.06727896       0.13547691
Ni       2.63066196      -0.04326143       6.67792424        1       1.00000000      -0.01460555       0.06199178      -0.07566225
Pt       5.22516192      -0.11783235       6.75160726        1       0.00000000      -0.02562755      -0.03499029       0.16015162
Ni       7.81645500      -0.00426809       6.68496429        1       1.00000000      -0.03823144       0.00829925      -0.07852778
Pt       1.25364799       2.25409055       6.60591394        1       0.00000000      -0.06428056       0.08678665       0.00015498
Pt       3.93412737       2.18998760       6.60430925        1       0.00000000       0.01930639       0.00003598       0.00275215
Pt       6.61159058       2.19029601       6.54532599        1       0.00000000      -0.01809139      -0.01003079      -0.03525931
Ni       9.12961473       2.26062340       6.66698069        1       1.00000000      -0.02630969       0.05696794      -0.05752466
Pt       2.54986617       4.53868290       6.71717398        1       0.00000000      -0.01554180       0.04700455       0.09937660
Pt       5.26531717       4.50634969       6.67650886        1       0.00000000       0.01101458       0.05582154       0.08028598
Pt       7.96095526       4.51002782       6.53714812        1       0.00000000       0.01263447       0.02602251       0.00355406
Ni      10.42630807       4.57088611       6.64615356        1       1.00000000       0.01233161       0.14760288      -0.11659953
Pt       3.86464522       6.81366116       6.71561679        1       0.00000000      -0.05745698       0.06855683       0.14823044
Pt       6.64588972       6.80218001       6.60576427        1       0.00000000       0.07144527       0.06192036       0.05710394
Ni       9.19884900       6.74881051       6.62750262        1       1.00000000       0.07880756      -0.07565917      -0.09329753
Ni      11.70203170       6.77082006       6.65305938        1       1.00000000      -0.09979098      -0.04496271      -0.14909441
