64
Lattice="10.261176304635377 -0.0024421378477308946 0.02887134080527007 5.1284731989020065 8.82658129628444 -0.011817738937548686 0.023573351054302204 -0.02475195169828027 8.778234365968036" Properties=species:S:1:pos:R:3:tags:I:1:initial_magmoms:R:1:forces:R:3 unique_id=abd9b1f675fe4c928ab703ffa87ccb1c stress="0.0002126823520644458 3.4033343362656305e-06 -2.1277387396586232e-05 3.4033343362656305e-06 0.00021711719653750433 1.8920611304491617e-05 -2.1277387396586232e-05 1.8920611304491617e-05 0.00021042728507921632" energy=-395.07342145167615 pbc="T T T"
Ni       0.01530211      -0.00671651       0.17975239        4       1.00000000       0.02470419       0.04089171       0.36965725
Ni       2.53511993       0.01262323       0.21002862        4       1.00000000      -0.05852943       0.07998851       0.43066857
Pt       5.12245643      -0.03839918       0.14681470        4       0.00000000      -0.04085794      -0.06561652       0.34016473
Ni       7.72382936      -0.06183282       0.20973514        4       1.00000000       0.03945159      -0.07855742       0.38009429
Ni       1.29115057       2.21273230       0.10700283        4       1.00000000       0.03436657       0.03635973       0.25541060
Pt       3.76452654       2.26357650       0.18426659        4       0.00000000      -0.06133973       0.11653227       0.16743730
Pt       6.41092593       2.21166065       0.12033670        4       0.00000000       0.04283458       0.06140084       0.00768468
Pt       9.07300714       2.20413235       0.14157636        4       0.00000000       0.10733904      -0.00951450       0.19405730
Ni       2.56374743       4.45067438       0.05668700        4       1.00000000       0.07084177       0.10003086       0.00478584
Ni       5.08278213       4.45036471       0.10854940        4       1.00000000      -0.09552707       0.09828924       0.22449842
Pt       7.70918072       4.45858493       0.03983440        4       0.00000000       0.04408423       0.08735277      -0.16386141
Ni      10.32401235       4.43631082       0.07608701        4       1.00000000       0.17159745       0.05801197       0.06018862
Ni       3.81047147       6.60847005       0.09831040        4       1.00000000      -0.06572455      -0.04087635       0.18727434
Pt       6.36525705       6.67294603       0.17637401        4       0.00000000      -0.06453869       0.03157886       0.09943888
Ni       8.99910150       6.61200892       0.07671648        4       1.00000000       0.02074069      -0.02037883       0.08827442
Ni      11.58197236       6.58268858       0.08084078        4       1.00000000       0.11586194      -0.04407420       0.04327871
Ni       1.31984641       0.73940791       2.22967477        3       1.00000000       0.03453758       0.03822297       0.17803073
Ni       3.81195123       0.77040527       2.25990584        3       1.00000000      -0.00571737       0.10239973       0.07711332
Ni       6.41990556       0.77129213       2.26571903        3       1.00000000      -0.08283938       0.06510918       0.10740388
Pt       9.00587526       0.71790849       2.27687730        3       0.00000000       0.05303741       0.16702980       0.00791208
Ni       2.56398908       2.90863257       2.28233318        3       1.00000000       0.04873557      -0.10470755       0.22311648
Ni       5.11277334       2.95708124       2.26208846        3       1.00000000      -0.15560632       0.01603391       0.02778341
Ni       7.67463246       2.92039462       2.27158391        3       1.00000000       0.00794688      -0.05581853      -0.00182489
Ni      10.31902487       2.90888322       2.28055748        3       1.00000000       0.13120373      -0.08929041       0.16147963
Ni       3.89534719       5.13576933       2.21003338        3       1.00000000       0.08630383      -0.05016393       0.05773312
Ni       6.36111667       5.14121284       2.24510758        3       1.00000000      -0.04809827       0.03952958      -0.05025132
Pt       8.94252564       5.09698979       2.29277735        3       0.00000000      -0.10673655      -0.18857161      -0.14031448
Pt      11.63879100       5.07957104       2.23849440        3       0.00000000       0.12863272      -0.13366494       0.10240404
Ni       5.13888562       7.31944655       2.23152136        3       1.00000000       0.05310641      -0.12452503       0.06486980
Ni       7.64908484       7.37939611       2.22660613        3       1.00000000      -0.15311145      -0.04857882       0.01489097
Pt      10.26826630       7.32501351       2.21537490        3       0.00000000       0.02686287       0.01720803      -0.24634224
Ni      12.87484983       7.31376463       2.18032320        3       1.00000000       0.12919014      -0.17697600      -0.00060510
Ni       0.07015970       1.50362014       4.32652198        2       1.00000000       0.14292739       0.05420353      -0.04062758
Ni       2.53655257       1.50668756       4.31034521        2       1.00000000      -0.04718408       0.09267463      -0.08124276
Ni       5.12828934       1.48987338       4.31899976        2       1.00000000      -0.13075189       0.01564338      -0.17938646
Ni       7.70262289       1.48658364       4.35621719        2       1.00000000       0.00821780       0.00373578      -0.03923823
Ni       1.29934539       3.65515452       4.38317411        2       1.00000000       0.02696074      -0.01461374       0.00364866
Ni       3.82486529       3.70279753       4.31197411        2       1.00000000      -0.10640056       0.03071167      -0.21506928
Pt       6.40714000       3.67709112       4.34489594        2       0.00000000      -0.04848221      -0.02209952      -0.05428772
Ni       9.02483325       3.68591805       4.35603927        2       1.00000000       0.10476380      -0.09106598      -0.10303562
Ni       2.58882111       5.80089187       4.38754015        2       1.00000000       0.01310352      -0.15103672      -0.02745132
Ni       5.11917422       5.83191802       4.31873485        2       1.00000000      -0.02215314      -0.15723599      -0.17720531
Ni       7.70954233       5.85054730       4.35480489        2       1.00000000      -0.08934737       0.01185670      -0.09594806
Ni      10.27742217       5.80698844       4.43607347        2       1.00000000       0.07793242      -0.06538014       0.02777260
Pt       3.92389019       8.00559694       4.31782122        2       0.00000000       0.03160846      -0.12772727       0.26095998
Ni       6.41907635       8.08164247       4.29173306        2       1.00000000      -0.04832266       0.00467068      -0.11673784
Pt       8.89881652       8.07007719       4.30483798        2       0.00000000      -0.03571577       0.07758519       0.10691670
Pt      11.58849042       8.04517196       4.31144844        2       0.00000000       0.03244509      -0.03972936       0.08162351
Pt       0.02327544      -0.00375503       6.53650954        1       0.00000000      -0.00351293       0.06059979       0.14382871
Pt       2.56532263      -0.00133638       6.55175555        1       0.00000000      -0.03027593       0.05619505       0.19037950
Pt       5.14241227      -0.04297531       6.46680710        1       0.00000000       0.02550332      -0.00077123      -0.40980844
Pt       7.70598813      -0.05869318       6.59030674        1       0.00000000      -0.07613772      -0.06401575       0.19525401
Ni       1.29543484       2.26522818       6.46987623        1       1.00000000      -0.01074632       0.23269613      -0.20734918
Pt       3.84528356       2.30319219       6.40474544        1       0.00000000      -0.06817947       0.15257860      -0.25219747
Ni       6.42742685       2.23005212       6.43377079        1       1.00000000      -0.01973104       0.05673092      -0.23945296
Pt       9.00662902       2.29369014       6.40548946        1       0.00000000       0.01527758       0.10113256      -0.32280515
Ni       2.54641935       4.43970080       6.47008931        1       1.00000000      -0.12627672       0.07303331      -0.23005424
Ni       5.12182282       4.40413265       6.49483032        1       1.00000000      -0.10903253       0.05486185      -0.14641491
Ni       7.72908382       4.40495618       6.40780499        1       1.00000000       0.09157452       0.05939130      -0.41990977
Ni      10.30921201       4.43769355       6.48709958        1       1.00000000       0.08726686       0.07268274      -0.20303074
Ni       3.82745343       6.51914068       6.49261390        1       1.00000000      -0.07865437      -0.20506564      -0.10505054
Pt       6.41947221       6.50382081       6.40733304        1       0.00000000      -0.03853849       0.00739790      -0.24209894
Ni       9.02105513       6.52262378       6.49449542        1       1.00000000       0.02098430      -0.13592099      -0.20789427
Ni      11.55619976       6.51859268       6.51306017        1       1.00000000      -0.02187502      -0.06837472      -0.16653885
