64
Lattice="10.349114130517291 -0.008589964028116487 0.04894650046812697 5.1671179381927015 8.860211028595634 0.03514706615554979 0.039964650280603135 0.010063370158960291 8.808306487014622" Properties=species:S:1:pos:R:3:tags:I:1:initial_magmoms:R:1:forces:R:3 unique_id=a6fc081bfd6041c8af6231b14ab585f7 stress="0.00026398711090522275 4.333429307958617e-06 -1.8656283090621405e-05 4.333429307958617e-06 0.00027007857231425153 1.2376327375993344e-05 -1.8656283090621405e-05 1.2376327375993344e-05 0.0002563482746295656" energy=-398.4916185790481 pbc="T T T"
Ni       0.00427841       0.02555659       0.17970178        4       1.00000000       0.07693733       0.11221539       0.27429819
Ni       2.58922776       0.01245029       0.21652941        4       1.00000000       0.01401754       0.07376736       0.40599222
Ni       5.17653469      -0.00762750       0.17268865        4       1.00000000      -0.04101713       0.13196175       0.20972623
Ni       7.77451660      -0.04221864       0.21831934        4       1.00000000       0.01137115      -0.11422725       0.36492542
Ni       1.26891788       2.22297349       0.18637178        4       1.00000000      -0.08447210       0.02502602       0.26277275
Pt       3.82137327       2.22365041       0.13137189        4       0.00000000      -0.07705653       0.08851647      -0.13633019
Pt       6.48770791       2.15733264       0.14094609        4       0.00000000       0.06372402      -0.09180576      -0.09372459
Ni       9.09859174       2.21138734       0.18988753        4       1.00000000       0.15608033       0.06656274       0.14423566
Ni       2.57364987       4.45343271       0.07017190        4       1.00000000      -0.00588635       0.03543988      -0.08337524
Ni       5.16474483       4.43981626       0.18499720        4       1.00000000       0.16677579      -0.06214272       0.19523116
Pt       7.80526299       4.42642553       0.08025721        4       0.00000000       0.14888884       0.02638573      -0.21327982
Ni      10.38542630       4.42120020       0.11996952        4       1.00000000       0.11082747      -0.04260198       0.11557036
Ni       3.84418841       6.66697991       0.11304314        4       1.00000000      -0.05722092       0.10912339       0.11267451
Pt       6.44187285       6.70137000       0.23326608        4       0.00000000      -0.02936389       0.05222588       0.18483231
Ni       9.07881504       6.66822631       0.12074682        4       1.00000000       0.01732667       0.04295513       0.05737679
Ni      11.66104281       6.64479673       0.11953768        4       1.00000000       0.13179289       0.00365994      -0.00580322
Ni       1.32674039       0.77579432       2.19324491        3       1.00000000       0.04627774       0.17605167       0.01307711
Ni       3.86237446       0.78155698       2.24222891        3       1.00000000      -0.04032860       0.15795149       0.10751693
Ni       6.47510596       0.76930481       2.26123316        3       1.00000000      -0.02651216       0.12517658       0.14776910
Pt       9.07444595       0.77619209       2.22677588        3       0.00000000       0.00776351       0.12228203       0.15537686
Ni       2.58195627       2.90364808       2.26925700        3       1.00000000      -0.02298666      -0.09085791       0.16553278
Ni       5.17933955       2.91923528       2.27081333        3       1.00000000      -0.08582516      -0.14138036       0.05538481
Ni       7.75685214       2.92803691       2.27751853        3       1.00000000       0.00317356      -0.02039303      -0.05942970
Ni      10.38169804       2.91692809       2.26956298        3       1.00000000       0.07929354      -0.00725223       0.10593330
Pt       3.90848517       5.14615642       2.19341683        3       0.00000000      -0.06493492      -0.09963781      -0.02450888
Ni       6.47345638       5.14970795       2.25860811        3       1.00000000       0.05106461      -0.05011437      -0.06299170
Pt       9.01764559       5.12906290       2.30279858        3       0.00000000      -0.11123439      -0.11824855      -0.06736911
Pt      11.66966581       5.10343328       2.24000062        3       0.00000000       0.01730459      -0.07999398       0.00944093
Ni       5.17128086       7.40628548       2.23747920        3       1.00000000      -0.08810858       0.02324753      -0.02917039
Ni       7.75690922       7.41408476       2.24885591        3       1.00000000       0.04139453       0.01516008      -0.01478334
Pt      10.35571865       7.43274831       2.17618041        3       0.00000000       0.04801511      -0.04643405      -0.09873210
Ni      12.95483164       7.38207635       2.24207842        3       1.00000000       0.03156937      -0.08302574      -0.02983290
Ni       0.03092084       1.55388683       4.34733738        2       1.00000000       0.08082402       0.19055188      -0.10128206
Ni       2.61917658       1.55383215       4.34891633        2       1.00000000      -0.01306757       0.09006450      -0.17364203
Ni       5.16642386       1.51945521       4.38227248        2       1.00000000      -0.10466647       0.02452690      -0.17394788
Ni       7.79073438       1.50113179       4.39488745        2       1.00000000       0.07321379      -0.05595971      -0.09422948
Ni       1.34028346       3.66950574       4.36987298        2       1.00000000       0.08605381      -0.08612340      -0.22128510
Ni       3.84637688       3.64682057       4.39421670        2       1.00000000      -0.09903072      -0.07969611      -0.19399194
Pt       6.52288097       3.62745135       4.36008357        2       0.00000000      -0.04415514      -0.03893174      -0.08259013
Ni       9.08391948       3.65795643       4.41055512        2       1.00000000       0.07794451      -0.18095533      -0.20188365
Ni       2.59104433       5.85846301       4.44123969        2       1.00000000      -0.01012156      -0.12182820      -0.04939059
Pt       5.16280906       5.86020396       4.36523835        2       0.00000000       0.03837061      -0.07172714       0.07670402
Ni       7.79369960       5.87643739       4.41749232        2       1.00000000      -0.02936289       0.02013885      -0.11122839
Pt      10.37322748       5.81525866       4.52904581        2       0.00000000       0.04334248      -0.04065833       0.01056015
Pt       3.88197962       8.13667622       4.36088203        2       0.00000000      -0.05007978      -0.02280773       0.11502052
Pt       6.48969909       8.19674265       4.29408209        2       0.00000000      -0.00528782       0.12915993       0.04625997
Pt       9.05578176       8.16099207       4.37076447        2       0.00000000      -0.10629598       0.08945459       0.04873409
Pt      11.66531676       8.14866248       4.38382181        2       0.00000000       0.06392322       0.06311796       0.01222549
Pt       0.01385075      -0.00564037       6.59289260        1       0.00000000      -0.02792087       0.00394224       0.12958290
Pt       2.63782274       0.02575485       6.61098282        1       0.00000000      -0.02179970       0.01693725       0.19878075
Pt       5.20177584       0.00815726       6.60674530        1       0.00000000      -0.05130716      -0.05457000       0.03283678
Pt       7.76208242      -0.03923464       6.64766060        1       0.00000000      -0.01151511      -0.11993750       0.20117507
Pt       1.35821791       2.33386688       6.52217716        1       0.00000000      -0.00493169       0.16150220       0.10352407
Ni       3.90482225       2.23390188       6.45797663        1       1.00000000      -0.07572886      -0.08177746      -0.32660628
Ni       6.48448318       2.21907807       6.49023109        1       1.00000000      -0.02817391      -0.05989885      -0.26586396
Pt       9.04139224       2.30611092       6.55640131        1       0.00000000      -0.04277966       0.03570901       0.03503852
Ni       2.59493320       4.47790053       6.52779007        1       1.00000000      -0.07884082       0.16158677      -0.27924970
Pt       5.12812784       4.35592026       6.60112563        1       0.00000000      -0.10530967      -0.08600237       0.07903587
Ni       7.81006564       4.43844945       6.47447344        1       1.00000000       0.02440957       0.03352067      -0.46308483
Ni      10.37534708       4.46329280       6.60527630        1       1.00000000      -0.02222360       0.05495810       0.01338719
Ni       3.85266583       6.60439365       6.56806910        1       1.00000000      -0.09145659      -0.11151728      -0.14231859
Pt       6.53673631       6.58008045       6.53219737        1       0.00000000      -0.01352172      -0.06267672      -0.19027144
Ni       9.10524430       6.59582673       6.59665607        1       1.00000000       0.03036620      -0.04371159      -0.09533846
Ni      11.67269388       6.57993102       6.60896668        1       1.00000000       0.03047789      -0.09598467      -0.10499707
