64
Lattice="10.37557313621963 -0.02208377766900144 0.02947781004656696 5.168661455636927 9.005474690465089 0.09146972461536523 0.0 0.0 21.663285856504366" Properties=species:S:1:pos:R:3:tags:I:1:initial_magmoms:R:1:forces:R:3 unique_id=3d9bf1b5a186471c974dfcfad837b11a stress="0.001338070955412692 -6.12265870048809e-05 0.000282989045019084 -6.12265870048809e-05 0.0017106442838663027 0.0004653446051007521 0.000282989045019084 0.0004653446051007521 -0.005444155905957948" energy=-383.3983948228665 pbc="T T T"
Pt      -0.09206129       0.00232693       0.00000000        0       0.00000000      -0.18980214       0.03338538      -0.07651458
Ni       2.61968304      -0.01670938       0.01038181        0       1.00000000       0.02716020       0.07710152       0.23907491
Ni       5.21013266      -0.00849842       0.10831377        1       1.00000000       0.19114693      -0.02618342      -0.13128929
Ni       7.75378669       0.01778732       0.13872624        1       1.00000000      -0.10807143       0.04008598       0.12133674
Pt       1.28009760       2.32412365       0.07913988        1       0.00000000       0.10979910       0.08346049      -1.04294577
Pt       3.93045088       2.24059290       0.09670714        1       0.00000000       0.02257971       0.20842790      -0.91831008
Ni       6.52299166       2.21306814       0.06561218        1       1.00000000      -0.01293022      -0.08009203       0.39353566
Ni       9.03162377       2.25706158       0.13369703        1       1.00000000      -0.01438239      -0.05509169       0.01288123
Ni       2.57653374       4.52509748       0.14882033        1       1.00000000      -0.01722408      -0.07772621      -0.16316087
Pt       5.23543740       4.48270635       0.12818298        1       0.00000000       0.21587344      -0.09643004      -0.61468240
Ni       7.81922675       4.49006043       0.13832224        1       1.00000000       0.10217727       0.09910697       0.15548012
Ni      10.33204488       4.52514418       0.07886480        1       1.00000000      -0.05848300       0.15167619       0.32960986
Ni       3.86068339       6.76967666       0.16363022        2       1.00000000       0.04512193       0.08328583      -0.12734278
Pt       6.51249768       6.75521480       0.13391053        1       0.00000000      -0.15272640      -0.06875329      -0.59348320
Ni       9.08230223       6.73761763       0.09483890        1       1.00000000       0.07636867      -0.08119425       0.38463507
Pt      11.69034640       6.72672731       0.16584191        2       0.00000000       0.15082266       0.00421335      -0.68426779
Pt       1.25022364       0.72171502       2.20079983        3       0.00000000      -0.02253214      -0.07218457       0.16914168
Pt       3.94965798       0.76698909       2.18737132        3       0.00000000      -0.01801341      -0.21248109       0.17672310
Ni       6.54284609       0.76205686       2.15587603        3       1.00000000       0.02529258       0.00736339       0.06018551
Ni       9.02000308       0.71837852       2.20938798        3       1.00000000      -0.10505140      -0.02020020       0.23910505
Ni       2.60458917       3.05160024       2.21618600        3       1.00000000       0.00369225       0.02665728       0.33389175
Ni       5.20065065       3.03188891       2.24845842        3       1.00000000      -0.01488889       0.05598760       0.29760121
Pt       7.71590243       3.00279882       2.23238441        3       0.00000000      -0.09367073      -0.03584252       0.11916531
Pt      10.32354628       3.08111237       2.21540943        3       0.00000000      -0.14872984       0.03780900       0.13009314
Pt       3.86710687       5.26519714       2.21285383        3       0.00000000      -0.04298602       0.07555628       0.05655212
Ni       6.50252075       5.22952635       2.26331356        4       1.00000000       0.05963507      -0.09989826       0.25932643
Ni       9.06317435       5.25245778       2.25404399        4       1.00000000      -0.05816365      -0.02435923       0.13162901
Ni      11.65942389       5.24424246       2.24319620        3       1.00000000      -0.01665800      -0.11223637       0.19548833
Ni       5.12387123       7.52498003       2.26377028        4       1.00000000      -0.15138534       0.02210616       0.18699487
Pt       7.74865140       7.42298519       2.31144255        4       0.00000000       0.08054595       0.01193437       0.23167989
Pt      10.40399205       7.44519409       2.28255132        4       0.00000000      -0.07504134      -0.05531208       0.26934245
Ni      13.00332487       7.55310826       2.25205543        4       1.00000000       0.12943790       0.10947953       0.19045907
Pt      -0.11273588       1.47693525       4.36401272        6       0.00000000      -0.22630042       0.01357140      -0.13921224
Pt       2.59909598       1.52860242       4.35719524        6       0.00000000       0.00066270      -0.06497614      -0.29557647
Pt       5.29874291       1.62584338       4.35005837        6       0.00000000       0.13610643       0.08089948      -0.12575830
Ni       7.79416902       1.56354837       4.38844525        6       1.00000000      -0.01199031       0.12112223      -0.16385038
Pt       1.24148333       3.83519619       4.36718811        6       0.00000000      -0.13129208       0.03930866      -0.09867242
Ni       3.90927326       3.79108681       4.37943100        6       1.00000000      -0.01915281       0.05947368      -0.35982473
Ni       6.54213147       3.79512275       4.39360287        6       1.00000000       0.14128592       0.08409244      -0.25480774
Ni       9.04239488       3.80857900       4.41284822        6       1.00000000      -0.05273438      -0.03607922      -0.21882679
Pt       2.59876178       6.06153010       4.36104403        6       0.00000000       0.10326186       0.01772764      -0.20062481
Pt       5.27260409       6.05424827       4.33947210        5       0.00000000       0.05133478       0.04139318      -0.20484089
Ni       7.81309257       5.96005728       4.42458896        6       1.00000000       0.10668939      -0.23629831      -0.26474171
Ni      10.31178369       5.97984643       4.45471991        7       1.00000000      -0.12535870      -0.09125278      -0.11013260
Ni       3.90733324       8.28863055       4.40759093        6       1.00000000       0.04682770      -0.11368991      -0.32902375
Ni       6.44831820       8.29318779       4.45848897        7       1.00000000      -0.10622286       0.11694345      -0.23657932
Pt       9.03135353       8.18624966       4.53254547        7       0.00000000       0.00896082      -0.07985707       0.01059990
Pt      11.73419293       8.32664918       4.40088409        6       0.00000000       0.09458808       0.13387147      -0.19712805
Ni       0.03525231       0.04088098       6.48736923        8       1.00000000      -0.04670408      -0.08273280       0.09939765
Ni       2.60225088       0.02842532       6.58469708        9       1.00000000      -0.01564518       0.06947755      -0.04985239
Pt       5.15508936       0.01676330       6.65790765       10       0.00000000       0.01103029      -0.10490796       0.14926472
Pt       7.80309724       0.07142377       6.61210888        9       0.00000000      -0.01244530      -0.11497995      -0.07323007
Pt       1.27059440       2.23315775       6.54654790        8       0.00000000       0.07509079      -0.00444935       0.94049085
Pt       3.91595147       2.26786554       6.53802787        8       0.00000000      -0.15670198       0.21439687       0.86896259
Ni       6.50988688       2.29005357       6.59783619        9       1.00000000      -0.03161395      -0.02406299      -0.17532994
Pt       9.06282616       2.31350268       6.64469724        9       0.00000000       0.00549417       0.05314989      -0.04221745
Pt       2.56996519       4.53657551       6.65813624       10       0.00000000       0.16068281      -0.21056818       0.20866854
Pt       5.24785328       4.51541902       6.52727728        8       0.00000000      -0.02575251       0.03410908       0.48013526
Pt       7.85565423       4.57244433       6.59819134        9       0.00000000      -0.06989188       0.14880967      -0.20451948
Ni      10.35767807       4.54282977       6.62544471        9       1.00000000       0.03293899      -0.08418632      -0.20203949
Pt       3.92193801       6.84763109       6.66328586       10       0.00000000       0.05622831       0.03642427       0.06073678
Pt       6.57239180       6.88293580       6.54599937        8       0.00000000      -0.00583148      -0.06818711       0.36298769
Ni       9.07488979       6.76881283       6.66274923       10       1.00000000       0.08209053      -0.02033781      -0.05655899
Pt      11.58134452       6.73923752       6.60031995        9       0.00000000      -0.01454886       0.06214300       0.49016825
