64
Lattice="10.27512678690428 0.0025775456374789816 0.0020022867816949573 5.139795613453607 8.892274838663786 -0.009408598590749176 0.0 0.0 21.52620394322113" Properties=species:S:1:pos:R:3:tags:I:1:initial_magmoms:R:1:forces:R:3 unique_id=5346b595720e4011a38d4b9512c27734 stress="0.00559404641356575 0.00020056248214331369 0.0001714635319163536 0.00020056248214331369 0.005881177153505493 -1.1524552942401102e-05 0.0001714635319163536 -1.1524552942401102e-05 -0.0012630957777437397" energy=-375.39264066907185 pbc="T T T"
Ni       0.01124395      -0.00727366       0.11183851        1       1.00000000       0.08046132      -0.01132866      -0.05614468
Ni       2.53637834       0.00955927       0.14093890        1       1.00000000      -0.05861917       0.05784418      -0.07509021
Pt       5.12881232      -0.03851335       0.07294580        1       0.00000000      -0.03896719       0.20171587      -0.91095148
Ni       7.73089623      -0.05585450       0.11858599        1       1.00000000      -0.04691914      -0.10071731      -0.17624949
Ni       1.29075138       2.23094390       0.03750388        0       1.00000000      -0.00226706       0.04300101       0.38909238
Pt       3.77150867       2.27797501       0.12486340        1       0.00000000       0.07812743      -0.00451577      -0.46841709
Pt       6.42482650       2.23495824       0.05125127        1       0.00000000       0.02730663      -0.00421102      -0.08138074
Pt       9.08420636       2.22495466       0.05596442        1       0.00000000      -0.00631111       0.11154379      -0.45423419
Ni       2.56180768       4.47925076       0.00125691        0       1.00000000       0.10759115       0.02492478       0.28461005
Ni       5.09930655       4.48025611       0.11768156        1       1.00000000      -0.10471753       0.13140826       0.08919934
Pt       7.75037123       4.50345755       0.03347174        0       0.00000000      -0.00069360       0.03704505       0.00355079
Ni      10.32496351       4.47287738       0.00388102        0       1.00000000       0.08008811      -0.01395803       0.25149877
Ni       3.81670748       6.66097754       0.03892868        0       1.00000000      -0.00930610      -0.05240757       0.46404659
Pt       6.38207280       6.72117434       0.11058419        1       0.00000000      -0.10460416       0.05463416      -0.30022558
Ni       9.00970901       6.65723157       0.00807974        0       1.00000000      -0.05104777       0.01970534       0.10008883
Ni      11.59519489       6.63660322       0.00000000        0       1.00000000       0.08526758       0.07935313       0.23366129
Ni       1.29639925       0.73544140       2.12568941        2       1.00000000      -0.02425652      -0.00035193       0.04347215
Ni       3.83045016       0.76216018       2.16356792        3       1.00000000       0.03570685      -0.00148355       0.20669668
Ni       6.42196239       0.78241998       2.18292375        3       1.00000000      -0.05036441       0.19363034       0.24848079
Pt       9.00752619       0.73229699       2.18670600        3       0.00000000       0.01114743       0.08523739       0.01305475
Ni       2.55995406       2.96574880       2.17526225        3       1.00000000       0.04314427       0.03508936       0.08004962
Ni       5.12393178       2.98561907       2.18756471        3       1.00000000      -0.08495055       0.03086415       0.18706393
Ni       7.71187612       2.98542133       2.19022530        3       1.00000000       0.06720740       0.01715452       0.17966061
Ni      10.29936544       2.96447621       2.19217453        3       1.00000000       0.04554851      -0.06027193       0.21248393
Ni       3.89107084       5.18278551       2.15182455        3       1.00000000       0.12939735      -0.02636773       0.14426174
Ni       6.40523408       5.19151459       2.17620329        3       1.00000000      -0.03963908       0.02377678       0.13907334
Ni       8.96240550       5.15764537       2.16923419        3       1.00000000      -0.10846798      -0.21387018       0.20079054
Pt      11.62103387       5.12004693       2.11453937        2       0.00000000       0.13477561      -0.10275844       0.07896071
Ni       5.14287196       7.37636887       2.16782519        3       1.00000000       0.02201527      -0.14781558       0.18656226
Ni       7.66732464       7.40807423       2.15735484        3       1.00000000      -0.14233787      -0.04688264       0.15214085
Pt      10.24880344       7.35104836       2.12545504        2       0.00000000      -0.06528285      -0.17803829      -0.29264907
Ni      12.88184890       7.37466611       2.09820176        2       1.00000000       0.12278110      -0.13773276       0.01230582
Ni       0.00453122       1.51990341       4.27763987        5       1.00000000      -0.05068619       0.03961083      -0.18744685
Pt       2.50357202       1.54235407       4.19931823        4       0.00000000      -0.02938620      -0.05650061       0.02210766
Ni       5.14941020       1.51313365       4.26381798        5       1.00000000      -0.05954050       0.04009597      -0.35705709
Ni       7.70918182       1.50695138       4.28013515        5       1.00000000      -0.00977462      -0.04816820      -0.28148575
Ni       1.28577740       3.69277005       4.32979964        5       1.00000000       0.00048259      -0.02046906      -0.03923505
Ni       3.83544738       3.75235773       4.25149741        5       1.00000000      -0.03036297       0.09285682      -0.30785012
Pt       6.43902843       3.70356056       4.23638892        4       0.00000000      -0.06900723       0.01277970      -0.00839586
Ni       8.99793565       3.69131245       4.25132065        5       1.00000000       0.00017087      -0.09823927      -0.41600205
Ni       2.60583579       5.86499444       4.32661840        5       1.00000000       0.09259840      -0.15876754      -0.06549711
Ni       5.13093768       5.90049314       4.24434578        4       1.00000000       0.05036837      -0.17747403      -0.36284037
Ni       7.69282461       5.89587187       4.25839047        5       1.00000000      -0.08422359      -0.08023248      -0.37130024
Pt      10.27242263       5.82195244       4.36865507        6       0.00000000       0.05666466       0.00741631       0.02948499
Pt       3.92497700       8.07672783       4.26202384        5       0.00000000       0.10732604      -0.12440951       0.11986825
Ni       6.41340603       8.12713215       4.23374371        4       1.00000000      -0.05774715      -0.02348527      -0.38837786
Pt       8.90806437       8.12379989       4.24110921        4       0.00000000      -0.14801092       0.01381528      -0.01256487
Pt      11.60712162       8.15442871       4.21994164        4       0.00000000       0.08096822      -0.05347038      -0.09810041
Pt       0.00831845       0.01686402       6.49245204        9       0.00000000       0.07286014       0.16854338       0.21244447
Pt       2.56228358       0.00001208       6.52620394        9       0.00000000      -0.02155148      -0.03117715       0.35566607
Pt       5.14629565      -0.03925160       6.40780510        8       0.00000000      -0.00953051       0.15499676       0.98273582
Pt       7.70645088      -0.03799254       6.52362522        9       0.00000000       0.01534275       0.19329334       0.28668923
Ni       1.27211624       2.28872429       6.44550167        8       1.00000000      -0.07479826       0.18418937      -0.26586192
Pt       3.81796949       2.27709461       6.39051582        8       0.00000000       0.10056285       0.06048310       0.45168928
Ni       6.43823454       2.23741120       6.37576651        8       1.00000000      -0.03049072      -0.02536862       0.04509559
Pt       9.00187113       2.32259132       6.34183196        7       0.00000000      -0.01049411      -0.02458923       0.49736801
Ni       2.51348750       4.47802958       6.43382781        8       1.00000000      -0.06787073       0.01099440      -0.39266737
Pt       5.10504537       4.46372422       6.46683970        9       0.00000000      -0.06419758       0.01597590      -0.02976020
Ni       7.74330539       4.45643867       6.37022474        8       1.00000000       0.04715901       0.10038333      -0.08818890
Ni      10.30731789       4.45771470       6.46458764        9       1.00000000       0.04484318      -0.08414179      -0.17132351
Ni       3.80785866       6.62192019       6.45058733        9       1.00000000      -0.07920278      -0.06810342      -0.25674368
Pt       6.45810590       6.62153193       6.35215367        8       0.00000000       0.03698477       0.03310009       0.31543304
Ni       9.02066181       6.59568375       6.46425478        9       1.00000000       0.00291231      -0.10291102      -0.09994448
Ni      11.57594486       6.59745886       6.47050309        9       1.00000000       0.05581749       0.00475630      -0.20340197
