64
Lattice="10.243926354583433 -0.009776833534286303 0.021917763970897126 5.113496191082458 8.777390803846835 -0.03139277571889278 0.0 0.0 21.49855595259221" Properties=species:S:1:pos:R:3:tags:I:1:initial_magmoms:R:1:forces:R:3 unique_id=076e941ef6bb4992a62a4b992e9c0e59 stress="0.005528282008924456 2.686910832986229e-05 0.0002002509295008203 2.686910832986229e-05 0.004906604721983288 -3.687584975444867e-05 0.0002002509295008203 -3.687584975444867e-05 -0.0011582444081759923" energy=-371.0835999041137 pbc="T T T"
Ni       0.03714133      -0.04557133       0.13515691        1       1.00000000       0.13240987      -0.08067754      -0.13253532
Ni       2.50888138      -0.03234921       0.16114922        2       1.00000000      -0.05062840      -0.04678877      -0.05524585
Pt       5.11547916      -0.04225461       0.10474586        1       0.00000000      -0.09781305       0.19609715      -1.10269051
Ni       7.70888970      -0.06139816       0.15298674        2       1.00000000      -0.03210259      -0.02881664      -0.35040020
Ni       1.27939466       2.19714960       0.05414869        1       1.00000000      -0.01585267       0.03793732       0.38070551
Pt       3.76136121       2.24919937       0.12673880        1       0.00000000       0.03978851       0.00172362      -0.41316373
Pt       6.41605532       2.26095335       0.06201337        1       0.00000000       0.00794678       0.03734055      -0.12364508
Pt       9.03365456       2.23570812       0.08448353        1       0.00000000       0.00963684       0.12593688      -0.58353574
Ni       2.55146789       4.42614130       0.00000000        0       1.00000000       0.08953653       0.04436040       0.24940980
Ni       5.11745998       4.45793101       0.04974209        0       1.00000000      -0.04708466       0.15467569       0.37762557
Ni       7.67907413       4.44781807       0.05925195        1       1.00000000       0.03197132       0.09245920       0.33892311
Ni      10.25955173       4.41322156       0.02845729        0       1.00000000       0.00387963       0.07880653       0.28058330
Ni       3.84251805       6.56859656       0.03659687        0       1.00000000       0.09455662      -0.01511204       0.39555095
Ni       6.38967941       6.57071042       0.12353309        1       1.00000000      -0.03662747       0.01313633       0.02252175
Ni       8.91625683       6.52571422       0.10318707        1       1.00000000      -0.19915357      -0.04509537      -0.23472853
Ni      11.55764644       6.53508016       0.01579570        0       1.00000000       0.05446513       0.04540917       0.16068042
Ni       1.31413696       0.72438035       2.16116564        4       1.00000000       0.04570861       0.04841381       0.23508248
Ni       3.80036570       0.75501145       2.18870690        4       1.00000000      -0.05928471       0.08033099       0.22581951
Ni       6.40728069       0.76262382       2.19259264        4       1.00000000      -0.05634827       0.18955004       0.24210298
Pt       8.99074177       0.71116788       2.19450032        4       0.00000000       0.05783154       0.08194918       0.02322847
Ni       2.55097178       2.89308353       2.21172554        4       1.00000000       0.02947938      -0.12644847       0.24683806
Ni       5.10856343       2.94319925       2.18851044        4       1.00000000      -0.08586620       0.05105385       0.12662337
Ni       7.68731066       2.95993226       2.18903749        4       1.00000000       0.05511352       0.04763363       0.12752844
Ni      10.27123901       2.91008999       2.20822927        4       1.00000000       0.05215356      -0.08542916       0.24293126
Ni       3.88224651       5.10450373       2.12914638        3       1.00000000       0.11343518      -0.07057171       0.08887797
Ni       6.39966368       5.12143520       2.11836079        3       1.00000000      -0.01647055      -0.03903410       0.04954616
Ni       8.91104113       5.06380634       2.14491968        3       1.00000000      -0.12442966      -0.22789806       0.14489597
Pt      11.56944477       5.03064250       2.15769313        4       0.00000000       0.17022006      -0.17629939       0.08067354
Ni       5.15594892       7.25570984       2.09663394        3       1.00000000       0.03163743      -0.12592460       0.09607162
Ni       7.61197545       7.28184856       2.10214096        3       1.00000000      -0.14035879      -0.06533548       0.16214436
Pt      10.20482239       7.22645896       2.12854351        3       0.00000000      -0.07839402      -0.17387382      -0.18557445
Ni      12.84001591       7.25647056       2.08766425        3       1.00000000       0.12505894      -0.14411009      -0.00592935
Ni       0.06545823       1.49068207       4.24794456        5       1.00000000       0.16940491       0.02318299      -0.16565378
Ni       2.52420879       1.49613807       4.22520697        5       1.00000000      -0.08387393       0.06337286      -0.21734926
Ni       5.11709575       1.47819616       4.22929719        5       1.00000000      -0.09345260       0.00978639      -0.40570373
Ni       7.68810323       1.46681150       4.27046530        6       1.00000000      -0.02161845      -0.01690562      -0.26395225
Ni       1.28969560       3.62726959       4.29765925        6       1.00000000       0.03505823      -0.06580174      -0.03444965
Ni       3.81496975       3.67731616       4.22294951        5       1.00000000      -0.05240270       0.05755471      -0.29660944
Pt       6.40309801       3.65409719       4.25579607        6       0.00000000      -0.00960054       0.04626933       0.01803577
Ni       8.99897222       3.67078677       4.23384370        5       1.00000000       0.04178793       0.07432739      -0.29195971
Ni       2.57884569       5.75934008       4.29422200        6       1.00000000       0.03680619      -0.14596409      -0.07880631
Ni       5.11030932       5.79389039       4.23708535        5       1.00000000       0.05560859      -0.13913530      -0.27451761
Ni       7.68015069       5.80085796       4.22790666        5       1.00000000      -0.03002726       0.00617013      -0.31950431
Ni      10.25945286       5.74487876       4.29155023        6       1.00000000       0.01643495      -0.09365762      -0.08409590
Pt       3.91216123       7.95285481       4.21452708        5       0.00000000       0.13472912      -0.11581311       0.10047246
Ni       6.39752017       8.01722628       4.19749683        5       1.00000000      -0.05862071      -0.04836836      -0.30655611
Pt       8.86619716       8.03202081       4.19123655        5       0.00000000      -0.13785829       0.08390295       0.02685670
Pt      11.55626823       7.98646807       4.20199727        5       0.00000000      -0.02281650      -0.09271537       0.00200585
Pt       0.01498664      -0.00690904       6.45996018        9       0.00000000       0.00277734       0.13233237       0.32719318
Pt       2.55029829       0.00987928       6.46320485        9       0.00000000       0.01317390       0.02466625       0.34549206
Pt       5.14321915      -0.00384173       6.37530737        8       0.00000000      -0.01782530       0.19216348       1.11470161
Pt       7.69823560      -0.07114856       6.49855595        9       0.00000000      -0.02678093       0.19624786       0.44298134
Ni       1.28970635       2.24405344       6.37858487        8       1.00000000       0.01597775       0.13844256      -0.25143978
Pt       3.83252068       2.29406302       6.31101184        7       0.00000000      -0.07574603      -0.02160642       0.37647780
Ni       6.41518480       2.21015184       6.33792667        7       1.00000000      -0.02572447      -0.03106256       0.17233976
Pt       8.98440283       2.26813264       6.30649117        7       0.00000000       0.01400237      -0.08894130       0.54019143
Ni       2.53865517       4.40843945       6.37336936        8       1.00000000      -0.01452576      -0.02007328      -0.37186595
Ni       5.10542724       4.36425244       6.40386438        8       1.00000000      -0.09669786       0.03597290      -0.26624790
Ni       7.66835158       4.33061685       6.41090756        8       1.00000000      -0.06653607      -0.02085501      -0.18459245
Ni      10.32432712       4.34889572       6.39260625        8       1.00000000       0.14796387      -0.01320335      -0.30623260
Ni       3.81054233       6.47269151       6.39749309        8       1.00000000      -0.03207748      -0.12718557      -0.25283068
Pt       6.35917171       6.45360805       6.40410783        8       0.00000000       0.06423358       0.11889602      -0.09691793
Pt       9.01760820       6.42308746       6.42597296        8       0.00000000       0.01965444      -0.05634286       0.08135451
Ni      11.56619940       6.47216817       6.40876494        8       1.00000000      -0.00584313       0.01894432      -0.18973296
