64
Lattice="10.319625430201858 -0.013747789017197466 0.06264034794010627 5.147906780566166 8.872277269860618 0.026425219172788072 0.0511456299212199 -0.004615007640996761 8.835146622878238" Properties=species:S:1:pos:R:3:tags:I:1:initial_magmoms:R:1:forces:R:3 unique_id=bf497ecaa6444fb0b38d52438a1f4327 stress="0.00028563047869187286 4.0027188890988e-06 -2.4551268006170597e-05 4.0027188890988e-06 0.0002926099031757279 1.9640210303562774e-05 -2.4551268006170597e-05 1.9640210303562774e-05 0.0002672439516286998" energy=-398.1685473873861 pbc="T T T"
Ni       0.01658777       0.00319577       0.17550840        4       1.00000000       0.07791190       0.06631359       0.33817513
Ni       2.55680182       0.01452714       0.21059651        4       1.00000000      -0.03116836       0.10232791       0.43832208
Pt       5.15623434      -0.05378535       0.16236045        4       0.00000000       0.01125431      -0.06160147       0.30707896
Ni       7.76895605      -0.06189428       0.22898563        4       1.00000000       0.04736472      -0.04204961       0.38468441
Ni       1.29209735       2.22460557       0.11297850        4       1.00000000       0.04010898       0.02384740       0.26012640
Pt       3.76303927       2.21752790       0.20248817        4       0.00000000      -0.03568139       0.09571737       0.17296356
Pt       6.47472278       2.18302177       0.14537998        4       0.00000000       0.09374215       0.01801523       0.01471347
Pt       9.13426876       2.20825840       0.17386070        4       0.00000000       0.15237018       0.02268720       0.08893712
Ni       2.52979864       4.46287138       0.06769750        4       1.00000000      -0.03786472       0.04118002       0.00658562
Pt       5.10513018       4.47914610       0.05976925        4       0.00000000      -0.05418898       0.09483565      -0.18992388
Pt       7.79502841       4.47770824       0.07679799        4       0.00000000       0.13911154       0.10023045      -0.18201625
Ni      10.37673911       4.45187919       0.11827109        4       1.00000000       0.15624707       0.07003870       0.03582805
Ni       3.81288317       6.69530691       0.10672607        4       1.00000000      -0.06458626       0.11998448       0.17055474
Pt       6.44555299       6.75387447       0.22919897        4       0.00000000       0.02244140       0.08317917       0.25863128
Ni       9.05421817       6.64803118       0.12410185        4       1.00000000       0.09303763      -0.02455547       0.12232188
Ni      11.63419989       6.61674749       0.13254450        4       1.00000000       0.11726988      -0.04696468       0.07760775
Ni       1.33247017       0.74857878       2.24804251        3       1.00000000       0.04415693       0.05532787       0.17739839
Ni       3.83918240       0.76398959       2.29151421        3       1.00000000      -0.04953222       0.09411374       0.12145287
Ni       6.46305194       0.76462781       2.30217093        3       1.00000000      -0.05998777       0.04927212       0.13169904
Pt       9.05987636       0.72937065       2.30911837        3       0.00000000       0.04147405       0.22398403      -0.03107048
Ni       2.55750018       2.90619571       2.30278259        3       1.00000000      -0.05761729      -0.13292371       0.25083145
Ni       5.16758054       2.91786266       2.30454782        3       1.00000000      -0.10745313      -0.08565892       0.03626723
Ni       7.73142101       2.92953022       2.31116163        3       1.00000000       0.05474858      -0.09304756      -0.04407728
Ni      10.37053300       2.91529416       2.33068484        3       1.00000000       0.08538598      -0.12602262       0.18288911
Pt       3.87754666       5.16905931       2.26855201        3       0.00000000      -0.01173135      -0.10666274      -0.18029099
Ni       6.45929809       5.16561751       2.28063245        3       1.00000000       0.00026299      -0.03190456      -0.08492714
Pt       8.98974851       5.12532264       2.35570941        3       0.00000000      -0.14217910      -0.17557755      -0.06609587
Pt      11.62459745       5.09714318       2.29997664        3       0.00000000      -0.02326643      -0.15556712       0.13184673
Ni       5.18470996       7.41648791       2.26517031        3       1.00000000       0.07026948       0.03583250       0.11023672
Ni       7.70758678       7.42829014       2.29154367        3       1.00000000      -0.10846490       0.03623581       0.11119809
Pt      10.31775513       7.37217021       2.28850748        3       0.00000000      -0.02143077       0.00730973      -0.22567606
Ni      12.91862903       7.38151373       2.25912754        3       1.00000000       0.02539820      -0.07858965      -0.00037736
Ni       0.08187085       1.52972997       4.36064039        2       1.00000000       0.17817291       0.11398947      -0.08617339
Ni       2.56431834       1.51729911       4.35641779        2       1.00000000      -0.08204848       0.09163924      -0.10439431
Ni       5.16945647       1.49443475       4.37190952        2       1.00000000      -0.13617455      -0.03656124      -0.17106458
Ni       7.76452215       1.48935740       4.41642842        2       1.00000000       0.05512442      -0.05946699      -0.06056993
Ni       1.30867079       3.68065205       4.42667989        2       1.00000000      -0.01055450      -0.03781321       0.00036999
Ni       3.84028739       3.68299901       4.38190622        2       1.00000000      -0.16027947      -0.09522023      -0.19651110
Pt       6.50258835       3.63761771       4.40430453        2       0.00000000       0.02220183      -0.07654993      -0.14674242
Ni       9.09133743       3.70434344       4.42768711        2       1.00000000       0.17546689      -0.08267483      -0.11130627
Ni       2.56498715       5.85573148       4.45731418        2       1.00000000      -0.09268539      -0.14898593       0.04413473
Pt       5.17601572       5.88065828       4.39869158        2       0.00000000       0.16567683       0.02058662       0.08499980
Ni       7.78722023       5.88104647       4.43585369        2       1.00000000      -0.03432121      -0.03647031      -0.00307616
Ni      10.33794386       5.84415294       4.51406073        2       1.00000000       0.03900337      -0.08172318       0.08206953
Pt       3.92178827       8.13517813       4.38120292        2       0.00000000       0.01489431      -0.02250389       0.20587880
Ni       6.46829282       8.16152325       4.37047810        2       1.00000000      -0.07515757       0.09225147      -0.09569484
Pt       8.95791014       8.11959763       4.38805521        2       0.00000000      -0.06997575       0.07448438       0.14234755
Pt      11.64424344       8.09438311       4.39970474        2       0.00000000       0.00670911      -0.02998603       0.09285948
Pt       0.04138699       0.00877304       6.57848666        1       0.00000000      -0.02807224       0.02412255       0.15203893
Pt       2.60080468       0.01479959       6.59625986        1       0.00000000      -0.06709332       0.10264034       0.18666938
Pt       5.18828520      -0.03876194       6.52759473        1       0.00000000      -0.02239395      -0.02406965      -0.35511867
Pt       7.76167087      -0.05312124       6.65974433        1       0.00000000      -0.09057559      -0.07464410       0.21461288
Ni       1.31882174       2.28289384       6.52544338        1       1.00000000      -0.03477632       0.23209082      -0.23281714
Pt       3.88186013       2.31459215       6.46709699        1       0.00000000      -0.07598853       0.14851940      -0.17612948
Ni       6.48220597       2.23786420       6.51216111        1       1.00000000      -0.02359153       0.01655449      -0.21704948
Pt       9.07398039       2.30409559       6.48207322        1       0.00000000      -0.00199548       0.07702689      -0.29939196
Ni       2.56806191       4.46557468       6.53410828        1       1.00000000      -0.16683681       0.06629836      -0.24569827
Ni       5.17332088       4.42256981       6.49338495        1       1.00000000      -0.05293232       0.00177745      -0.38700721
Ni       7.78913222       4.43009787       6.49118758        1       1.00000000       0.09436496       0.01113735      -0.42453049
Ni      10.37891006       4.45953061       6.57781969        1       1.00000000       0.08564676       0.07475509      -0.22928549
Ni       3.85498344       6.58422649       6.57588867        1       1.00000000      -0.09965919      -0.18323139      -0.10662787
Pt       6.50576942       6.56307401       6.54058152        1       0.00000000      -0.00227255      -0.04367102      -0.11900135
Ni       9.08779285       6.56684320       6.58643767        1       1.00000000       0.07627529      -0.17376694      -0.19891122
Ni      11.63370926       6.55922371       6.61068181        1       1.00000000      -0.05355526      -0.11984237      -0.16477424
