64
Lattice="10.270052857870596 -0.02105372426789703 0.028769233262380792 5.116793368875029 8.842269410593099 -0.017013476226622852 0.0 0.0 21.551316128855913" Properties=species:S:1:pos:R:3:tags:I:1:initial_magmoms:R:1:forces:R:3 unique_id=2d5b2ea245f54c55aeb2918548b4349c energy=-374.3783093979024 stress="0.005567185305474782 -2.1620885523668755e-05 0.0002200977963816635 -2.1620885523668755e-05 0.005479333054422704 -0.00011064990735518169 0.0002200977963816635 -0.00011064990735518169 -0.001341591987488568" pbc="T T T"
Ni       0.01423917      -0.00966108       0.12333613        1       1.00000000       0.07729891      -0.00237522      -0.08274606
Ni       2.53720881       0.00234875       0.16028470        2       1.00000000      -0.05988629       0.05432237      -0.11145523
Pt       5.12664356      -0.05246882       0.09708138        1       0.00000000      -0.03104666       0.20352146      -0.93876237
Ni       7.72867386      -0.07644763       0.15287290        2       1.00000000      -0.04948711      -0.08919085      -0.21126830
Ni       1.28654100       2.21657438       0.04797566        0       1.00000000      -0.00119286       0.04295173       0.37066666
Pt       3.76746114       2.26101898       0.13551540        1       0.00000000       0.06858151      -0.02613413      -0.45247388
Pt       6.41592653       2.21239682       0.06687388        1       0.00000000       0.04733274      -0.03397257      -0.06293388
Pt       9.07475652       2.19295357       0.08606750        1       0.00000000      -0.00838121       0.10019891      -0.46505478
Ni       2.55644241       4.45299652       0.00000000        0       1.00000000       0.08635134       0.02564352       0.26606288
Ni       5.08559222       4.44975599       0.05042696        1       1.00000000      -0.09169066       0.12556309       0.34449232
Pt       7.73566567       4.46587982       0.04728583        0       0.00000000       0.03148781       0.03334488       0.01905487
Ni      10.31234358       4.43043565       0.03117682        0       1.00000000       0.07533934      -0.01860365       0.22697263
Ni       3.80250963       6.61886557       0.03848893        0       1.00000000      -0.00885095      -0.03574335       0.43995868
Pt       6.36146524       6.67331022       0.11785242        1       0.00000000      -0.08182121       0.06340895      -0.29734403
Ni       8.99176261       6.60632383       0.02659621        0       1.00000000      -0.05908346       0.02045919       0.07553420
Ni      11.57775757       6.57906102       0.02358683        0       1.00000000       0.09016587       0.07847892       0.20161120
Ni       1.30058902       0.72422731       2.13960679        3       1.00000000      -0.01468909      -0.00337585       0.07958986
Ni       3.83187437       0.74767162       2.18154406        4       1.00000000       0.04554402       0.00626114       0.21164250
Ni       6.42381232       0.76330932       2.20645795        4       1.00000000      -0.05513773       0.20570295       0.24246819
Pt       9.00634553       0.70422602       2.22052678        4       0.00000000       0.00570493       0.08705578       0.02069340
Ni       2.55691208       2.94113737       2.18581900        4       1.00000000       0.04431009       0.01138751       0.08007305
Ni       5.12190784       2.96036139       2.20686225        4       1.00000000      -0.05852048       0.06037150       0.15161937
Ni       7.70281848       2.95212328       2.21716248        4       1.00000000       0.03806455       0.02352213       0.17635125
Ni      10.29289455       2.92300281       2.22231062        4       1.00000000       0.03421159      -0.06607420       0.21117894
Ni       3.88689936       5.14383692       2.15348246        4       1.00000000       0.15542266      -0.05568192       0.07938754
Ni       6.39280327       5.14549142       2.19324065        4       1.00000000      -0.05281147      -0.01731339       0.10372122
Ni       8.94974244       5.10662522       2.18864919        4       1.00000000      -0.12625443      -0.22900750       0.20183503
Pt      11.61104058       5.06590339       2.14021093        3       0.00000000       0.14762169      -0.11260670       0.05913406
Ni       5.12996341       7.32787516       2.17172967        4       1.00000000       0.03694804      -0.13811166       0.16074799
Ni       7.65103795       7.35202345       2.16850632        4       1.00000000      -0.14009127      -0.06246387       0.15176651
Pt      10.23385996       7.28986098       2.14247784        3       0.00000000      -0.05992717      -0.16323990      -0.30184825
Ni      12.86553170       7.30692812       2.12132535        3       1.00000000       0.13321661      -0.13466947       0.00289214
Ni       0.01395464       1.50430113       4.28020264        6       1.00000000      -0.03404383       0.03171967      -0.16541245
Pt       2.51605187       1.52531836       4.22096420        5       0.00000000      -0.02174021      -0.04573421       0.05036310
Ni       5.15377090       1.48635958       4.28046366        6       1.00000000      -0.06671552       0.00164100      -0.38209078
Ni       7.70962918       1.47998303       4.30588914        6       1.00000000      -0.02995189      -0.01373485      -0.27113105
Ni       1.28916136       3.66575521       4.33329105        6       1.00000000      -0.00448252       0.00001048      -0.02972836
Ni       3.84564149       3.73315595       4.27595409        6       1.00000000      -0.05299395       0.09655599      -0.25938661
Pt       6.41320341       3.67692292       4.29081410        6       0.00000000      -0.08439109       0.01631932      -0.04124689
Ni       8.98798389       3.64302704       4.27250906        6       1.00000000      -0.03833556      -0.10817356      -0.40650601
Ni       2.60363461       5.81946692       4.33015550        6       1.00000000       0.04035646      -0.14181287      -0.08969327
Ni       5.11627277       5.83951866       4.26755521        6       1.00000000       0.01109622      -0.14924001      -0.31651243
Ni       7.68452924       5.84168301       4.27264732        6       1.00000000      -0.07142995      -0.06315345      -0.38156598
Pt      10.26256917       5.76368152       4.38902012        7       0.00000000       0.03286576       0.01853825       0.03094142
Pt       3.91651716       8.01937431       4.26199531        6       0.00000000       0.09871157      -0.10120407       0.12176748
Ni       6.40262270       8.06077256       4.24339120        5       1.00000000      -0.04786340      -0.03306087      -0.34070772
Pt       8.89529143       8.06009316       4.25363045        6       0.00000000      -0.14432414       0.01915763      -0.00322603
Pt      11.59474170       8.08489084       4.23665804        5       0.00000000       0.07083980      -0.03763399      -0.08942140
Pt       0.02499828      -0.00741589       6.49853205        9       0.00000000       0.06830028       0.08628204       0.26090766
Pt       2.57348679      -0.01961552       6.53861770        9       0.00000000      -0.03051139      -0.00838732       0.36510352
Pt       5.15337846      -0.05174158       6.42670908        8       0.00000000      -0.00609093       0.22202895       1.02061051
Pt       7.71654993      -0.07309209       6.55131613       10       0.00000000       0.01673568       0.16819779       0.32320408
Ni       1.28980305       2.26553176       6.44940608        8       1.00000000      -0.01162972       0.20048968      -0.22949768
Pt       3.86662419       2.30856213       6.39984016        8       0.00000000       0.06601769      -0.00041786       0.41922807
Ni       6.43626150       2.22383517       6.39107132        8       1.00000000       0.00414074       0.00106882       0.09974216
Pt       9.00598964       2.27940915       6.36719809        8       0.00000000      -0.01386820      -0.03404254       0.54921314
Ni       2.54836684       4.44791308       6.43340646        8       1.00000000      -0.04858390       0.00880826      -0.40465637
Ni       5.12312299       4.40884377       6.45016484        9       1.00000000      -0.04910715       0.04149631      -0.29924609
Ni       7.72389587       4.40026489       6.38430857        8       1.00000000       0.06516244       0.03928871      -0.04712932
Ni      10.31034971       4.40449263       6.48687529        9       1.00000000       0.06252368      -0.07660240      -0.15074155
Ni       3.81981783       6.53221015       6.44747096        8       1.00000000      -0.02949830      -0.14141479      -0.31046829
Pt       6.40940415       6.50593631       6.36349701        8       0.00000000       0.04428410       0.11465737       0.29965347
Ni       9.00458197       6.53196212       6.47840609        9       1.00000000      -0.07642926      -0.08729717      -0.08887355
Ni      11.57001336       6.52844872       6.48943894        9       1.00000000       0.06222684       0.02201988      -0.18706050
