64
Lattice="10.349114130517291 -0.008589964028116487 0.04894650046812697 5.1671179381927015 8.860211028595634 0.03514706615554979 0.0 0.0 21.577488702002313" Properties=species:S:1:pos:R:3:tags:I:1:initial_magmoms:R:1:forces:R:3 unique_id=a6fc081bfd6041c8af6231b14ab585f7 stress="0.005442877197160635 -4.4080152076901485e-05 0.000466432085862123 -4.4080152076901485e-05 0.00532109700945436 0.00019803637945423378 0.000466432085862123 0.00019803637945423378 -0.0022397097441120353" energy=-375.77518226531265 pbc="T T T"
Ni       0.00427841       0.02555659       0.10952989        1       1.00000000       0.11843184       0.01347845      -0.18722042
Ni       2.58922776       0.01245029       0.14635752        1       1.00000000      -0.03899789       0.07161634      -0.05648297
Ni       5.17653469      -0.00762750       0.10251676        1       1.00000000      -0.02101031       0.19347379      -0.40964775
Ni       7.77451660      -0.04221864       0.14814745        1       1.00000000      -0.07981955      -0.11118815      -0.23450364
Ni       1.26891788       2.22297349       0.11619988        1       1.00000000      -0.03993175       0.01886104       0.15861971
Pt       3.82137327       2.22365041       0.06120000        1       0.00000000      -0.07494395      -0.00622285       0.09238193
Pt       6.48770791       2.15733264       0.07077419        1       0.00000000       0.02465408      -0.11755344      -0.07355034
Ni       9.09859174       2.21138734       0.11971564        1       1.00000000       0.07480651       0.15134862      -0.10009292
Ni       2.57364987       4.45343271       0.00000000        0       1.00000000      -0.03869354      -0.03833536       0.13792231
Ni       5.16474483       4.43981626       0.11482530        1       1.00000000       0.15686011      -0.08174798      -0.37287023
Pt       7.80526299       4.42642553       0.01008532        0       0.00000000      -0.03914548      -0.03381372      -0.26473405
Ni      10.38542630       4.42120020       0.04979762        0       1.00000000       0.05953620      -0.12173098       0.16481946
Ni       3.84418841       6.66697991       0.04287124        0       1.00000000      -0.02414068       0.12892313       0.29354902
Pt       6.44187285       6.70137000       0.16309418        2       0.00000000       0.00171713       0.04492447      -0.64977171
Ni       9.07881504       6.66822631       0.05057493        1       1.00000000      -0.08745741       0.03317441       0.08543089
Ni      11.66104281       6.64479673       0.04936579        0       1.00000000       0.12977827       0.04075770       0.19173073
Ni       1.32674039       0.77579432       2.12307301        3       1.00000000       0.07044996       0.14480592       0.09831684
Ni       3.86237446       0.78155698       2.17205701        4       1.00000000      -0.05496971       0.17717732       0.24751977
Ni       6.47510596       0.76930481       2.19106127        4       1.00000000      -0.03727638       0.16757810       0.23911740
Pt       9.07444595       0.77619209       2.15660398        4       0.00000000       0.02169337       0.13154022       0.16571183
Ni       2.58195627       2.90364808       2.19908511        4       1.00000000       0.01499558      -0.12634015       0.31084680
Ni       5.17933955       2.91923528       2.20064143        4       1.00000000      -0.06435407      -0.15575778       0.23604800
Ni       7.75685214       2.92803691       2.20734663        4       1.00000000      -0.03173073       0.00356295       0.16563260
Ni      10.38169804       2.91692809       2.19939108        4       1.00000000       0.08416919      -0.04352570       0.16757511
Pt       3.90848517       5.14615642       2.12324494        3       0.00000000       0.00621257      -0.12258195       0.00074338
Ni       6.47345638       5.14970795       2.18843622        4       1.00000000       0.03726689      -0.11581899       0.12383243
Pt       9.01764559       5.12906290       2.23262668        4       0.00000000      -0.07063330      -0.12798086       0.06394891
Pt      11.66966581       5.10343328       2.16982872        4       0.00000000       0.01344065      -0.11038721       0.05722141
Ni       5.17128086       7.40628548       2.16730730        4       1.00000000      -0.07937125       0.03796586       0.08831402
Ni       7.75690922       7.41408476       2.17868401        4       1.00000000       0.04465012       0.08015059       0.10152469
Pt      10.35571865       7.43274831       2.10600851        3       0.00000000       0.03766421      -0.02277379      -0.11164924
Ni      12.95483164       7.38207635       2.17190652        4       1.00000000       0.06031174      -0.03177469      -0.01641007
Ni       0.03092084       1.55388683       4.27716548        6       1.00000000       0.06060512       0.15754329      -0.21664471
Ni       2.61917658       1.55383215       4.27874443        6       1.00000000       0.00143574       0.07787903      -0.28899330
Ni       5.16642386       1.51945521       4.31210058        6       1.00000000      -0.12285127       0.04443885      -0.25561886
Ni       7.79073438       1.50113179       4.32471556        6       1.00000000       0.09667995      -0.08218846      -0.22821137
Ni       1.34028346       3.66950574       4.29970108        6       1.00000000       0.09487450      -0.13036807      -0.24933202
Ni       3.84637688       3.64682057       4.32404480        6       1.00000000      -0.08410857      -0.10260535      -0.22189804
Pt       6.52288097       3.62745135       4.28991167        6       0.00000000      -0.02623344      -0.02858798      -0.17346910
Ni       9.08391948       3.65795643       4.34038322        6       1.00000000       0.08001366      -0.21124509      -0.23108565
Ni       2.59104433       5.85846301       4.37106780        7       1.00000000       0.01600683      -0.17376193      -0.03179757
Pt       5.16280906       5.86020396       4.29506645        6       0.00000000      -0.04511438      -0.09933819      -0.05663321
Ni       7.79369960       5.87643739       4.34732042        6       1.00000000      -0.04526858      -0.00512350      -0.19068410
Pt      10.37322748       5.81525866       4.45887391        8       0.00000000       0.04327244      -0.05691913       0.05233295
Pt       3.88197962       8.13667622       4.29071014        6       0.00000000       0.00822189       0.03725447       0.04408314
Pt       6.48969909       8.19674265       4.22391019        5       0.00000000      -0.05911720       0.27221158      -0.10843918
Pt       9.05578176       8.16099207       4.30059258        6       0.00000000      -0.11587779       0.09164703      -0.07694166
Pt      11.66531676       8.14866248       4.31364992        6       0.00000000       0.03860065       0.06170292      -0.10184554
Pt       0.01385075      -0.00564037       6.52272071       10       0.00000000       0.06714566       0.17925674       0.35840180
Pt       2.63782274       0.02575485       6.54081093       10       0.00000000      -0.02184512       0.09158231       0.32216693
Pt       5.20177584       0.00815726       6.53657340       10       0.00000000       0.01133451       0.13067536       0.38411388
Pt       7.76208242      -0.03923464       6.57748870       11       0.00000000      -0.05485212       0.11331699       0.38122864
Pt       1.35821791       2.33386688       6.45200526       10       0.00000000      -0.05533229       0.00980030      -0.12441242
Ni       3.90482225       2.23390188       6.38780473        9       1.00000000      -0.03709158      -0.11101524      -0.00251700
Ni       6.48448318       2.21907807       6.42005920        9       1.00000000      -0.01778711      -0.15150366       0.14818689
Pt       9.04139224       2.30611092       6.48622942       10       0.00000000       0.01833531      -0.06083310       0.02325474
Ni       2.59493320       4.47790053       6.45761817       10       1.00000000      -0.01853516       0.10037279      -0.31331334
Pt       5.12812784       4.35592026       6.53095373       10       0.00000000      -0.02023402      -0.04047024       0.14590009
Ni       7.81006564       4.43844945       6.40430154        9       1.00000000      -0.00410611       0.08619782       0.12168491
Ni      10.37534708       4.46329280       6.53510440       10       1.00000000      -0.01091658      -0.04633486      -0.06653825
Ni       3.85266583       6.60439365       6.49789720       10       1.00000000      -0.04448706      -0.08228245      -0.16804649
Pt       6.53673631       6.58008045       6.46202547       10       0.00000000       0.05143296      -0.15322474       0.62081628
Ni       9.10524430       6.59582673       6.52648417       10       1.00000000      -0.04627048      -0.00147486      -0.05128689
Ni      11.67269388       6.57993102       6.53879478       10       1.00000000       0.06790721       0.01159207      -0.15833547
