64
Lattice="10.520666592294326 0.005770245045066177 0.012446800464242043 5.265330474942309 9.148163962367665 -0.010473448692693493 0.0 0.0 21.809223893233106" Properties=species:S:1:pos:R:3:tags:I:1:initial_magmoms:R:1:forces:R:3 unique_id=275bd676335345cc9b10918bcd397beb energy=-390.7865402837688 stress="0.0016440190382252268 -0.00010098708530805118 -0.00011435729304567092 -0.00010098708530805118 0.002164554087723782 -6.148216359638862e-05 -0.00011435729304567092 -6.148216359638862e-05 -0.004134601635731238" pbc="T T T"
Pt       0.01914626       0.03363799       0.00000000        0       0.00000000      -0.02236338      -0.14148938      -0.17524855
Ni       2.64376818       0.01335746       0.13896287        1       1.00000000       0.01085842       0.00224788       0.04026442
Pt       5.19637110       0.02296773       0.05027539        1       0.00000000       0.01720359       0.11017033       0.10855655
Pt       7.87588461       0.01805684       0.10406191        1       0.00000000      -0.08454965       0.06409997      -0.56163800
Pt       1.32211709       2.27239614       0.00991295        0       0.00000000      -0.03747095       0.10818369       0.05203650
Ni       3.93764783       2.26961583       0.14537500        1       1.00000000       0.00057700      -0.00810942       0.16419968
Pt       6.62769390       2.31843539       0.10684210        1       0.00000000       0.04881368      -0.06164121      -0.40119369
Ni       9.21467997       2.31595422       0.06543040        1       1.00000000      -0.01670530      -0.06599471       0.33571128
Pt       2.60324851       4.57371496       0.11398112        1       0.00000000      -0.14993263       0.05494348      -0.55542508
Pt       5.29044725       4.54792467       0.12052715        1       0.00000000       0.07633073       0.05347404      -0.50709900
Ni       7.91206341       4.56578403       0.13585532        1       1.00000000      -0.04647073       0.07315126       0.14416373
Pt      10.46692000       4.54925387       0.10369510        1       0.00000000       0.03066373      -0.01820756       0.27400848
Pt       3.92467698       6.85906549       0.08332329        1       0.00000000       0.10872577      -0.01660680      -1.01819640
Pt       6.62382050       6.84361021       0.11854043        1       0.00000000      -0.05280325      -0.12820379      -0.76455078
Pt       9.23323732       6.83933881       0.02175523        0       0.00000000       0.04833036      -0.11254526       0.01281224
Ni      11.81882807       6.85885111       0.11882265        1       1.00000000      -0.04294469      -0.02416527       0.08351860
Pt       1.34233772       0.78863585       2.29819982        2       0.00000000       0.07311961       0.00061427       0.17059545
Ni       3.94441921       0.75846762       2.27455490        2       1.00000000       0.03214802      -0.01507064       0.23992465
Pt       6.55724116       0.75824520       2.36826081        3       0.00000000      -0.04651413       0.02108359       0.36739676
Pt       9.23169857       0.86376434       2.34428088        2       0.00000000       0.07124713       0.26803892       0.19851311
Pt       2.60110806       3.05315381       2.31237845        2       0.00000000      -0.08716848      -0.00706481       0.17814042
Pt       5.27201604       3.05286860       2.35182745        3       0.00000000       0.01319877      -0.06890508       0.34218355
Pt       7.95841320       3.15494828       2.35941673        3       0.00000000       0.08298282       0.12965989       0.18670969
Ni      10.51753278       3.09527532       2.31361054        2       1.00000000       0.03634701       0.14629640       0.20030860
Pt       3.93569889       5.30300071       2.33790342        2       0.00000000      -0.04737330       0.00747303       0.34319013
Ni       6.62369976       5.31408118       2.28751308        2       1.00000000       0.12020494      -0.01348068       0.30864435
Ni       9.23225545       5.31136453       2.30319971        2       1.00000000       0.11725851       0.00346783       0.23115337
Ni      11.78223939       5.31153464       2.29762755        2       1.00000000      -0.16663073      -0.14170425       0.28850997
Pt       5.27484446       7.61257107       2.30823004        2       0.00000000      -0.05563935       0.09617936       0.29731669
Pt       7.94061904       7.59436237       2.30259476        2       0.00000000       0.14950263       0.03298663       0.22978428
Pt      10.52441955       7.54447702       2.33692329        2       0.00000000      -0.02065191      -0.15390185       0.19361203
Pt      13.10801795       7.59554552       2.30720881        2       0.00000000      -0.01310734      -0.06707577       0.23975972
Ni      -0.03984198       1.56199066       4.56982413        5       1.00000000      -0.17951370       0.10964757      -0.08421263
Pt       2.62430750       1.56342663       4.53176169        4       0.00000000      -0.03195460       0.13166295      -0.18684081
Pt       5.30677218       1.52850984       4.53789351        4       0.00000000       0.01108584      -0.01521198      -0.13326130
Ni       7.93609255       1.57237444       4.53904976        4       1.00000000       0.12390888       0.22620094      -0.24310904
Pt       1.17845895       3.79920517       4.51249152        4       0.00000000      -0.27158472      -0.04322133      -0.21906866
Ni       3.95437317       3.78957260       4.53298532        4       1.00000000      -0.03322229      -0.01197281      -0.30249589
Ni       6.62149331       3.78813250       4.51503696        4       1.00000000       0.13371466      -0.08201419      -0.29066618
Ni       9.21217250       3.77003389       4.52883152        4       1.00000000      -0.09358937      -0.20143022      -0.13059790
Pt       2.54780342       6.08569241       4.49044819        4       0.00000000      -0.14937743       0.01258660      -0.31341109
Pt       5.29872338       6.01633515       4.47648884        4       0.00000000       0.04934460      -0.07618957      -0.33826880
Pt       7.98312847       5.98935455       4.47253586        4       0.00000000       0.16892248      -0.16625885      -0.32441210
Ni      10.52007930       6.07069396       4.52649952        4       1.00000000      -0.05354528      -0.08815049      -0.23456303
Pt       3.92662725       8.46290273       4.51350993        4       0.00000000      -0.00326690       0.04438954      -0.28598719
Pt       6.57312978       8.42048035       4.54140781        4       0.00000000       0.00009254       0.03839730      -0.24791074
Pt       9.28704810       8.34350627       4.57204926        5       0.00000000      -0.00068380      -0.08384404      -0.13796770
Ni      11.83868513       8.38345844       4.54740834        4       1.00000000       0.02399359       0.02411267      -0.28882032
Ni       0.00832337       0.04468690       6.67635590        6       1.00000000       0.02152076       0.13435233      -0.03372648
Pt       2.63820838       0.00194639       6.80922389        7       0.00000000      -0.05893875       0.00276892       0.18148160
Ni       5.26612082      -0.01725392       6.70013119        6       1.00000000       0.07510745       0.06209433       0.04600933
Pt       7.89819118       0.04073596       6.68086360        6       0.00000000      -0.13742249       0.07471980       0.53114513
Ni       1.26013090       2.26684274       6.67630259        6       1.00000000      -0.13798745      -0.05529877      -0.17492534
Pt       3.93895046       2.24944299       6.78923849        7       0.00000000      -0.00178828       0.10083854       0.17321281
Pt       6.64440061       2.27739967       6.67616256        6       0.00000000       0.23834630       0.10716389       0.54449382
Ni       9.26128731       2.27537584       6.72753807        6       1.00000000       0.12028800      -0.02648356      -0.61468445
Pt       2.56792796       4.52551717       6.68154122        6       0.00000000      -0.00352862      -0.08662417       0.47297171
Pt       5.28489430       4.54072723       6.67225254        6       0.00000000       0.05561604      -0.16022504       0.58839405
Pt       8.02117180       4.54034854       6.75181102        7       0.00000000       0.10020272      -0.06292451      -0.16115059
Ni      10.51704056       4.54842998       6.69642175        6       1.00000000      -0.03210912       0.00295639      -0.29813301
Pt       3.94892072       6.88504255       6.68397253        6       0.00000000      -0.06354205       0.01509319       0.73087978
Pt       6.62821537       6.86295488       6.70490175        6       0.00000000       0.13186112      -0.02173497       0.64826139
Ni       9.22928686       6.84229333       6.68784192        6       1.00000000      -0.06099058      -0.06867516       0.01310610
Pt      11.72992217       6.86484965       6.74201064        6       0.00000000      -0.08814642       0.03537057      -0.13340520
