64
Lattice="10.195336640896503 -0.00257633227898052 0.0038000378801697357 5.095437151246063 8.814088914528828 -0.02857397798219905 0.003102717936554562 -0.028731159831473427 8.731576836607172" Properties=species:S:1:pos:R:3:tags:I:1:initial_magmoms:R:1:forces:R:3 unique_id=6628e1c086da44d6b5e1bad44531943e stress="-0.0009780575677907494 -2.2867996204632217e-06 3.689445082799244e-06 -2.2867996204632217e-06 -0.0009797893568371518 9.04669057500107e-06 3.689445082799244e-06 9.04669057500107e-06 -0.000846780210351672" energy=-392.94455005074747 pbc="T T T"
Ni       0.01417009       0.01757792       0.16992445        4       1.00000000       0.10831221       0.03091134       0.26498164
Ni       2.55155079      -0.00366309       0.20504982        4       1.00000000       0.05483417      -0.02009503       0.30604265
Ni       5.10444841      -0.03122715       0.08242111        4       1.00000000       0.00060670      -0.04264686       0.09010835
Ni       7.64829970      -0.02612401       0.05480577        4       1.00000000       0.03554829      -0.05381047      -0.00474853
Ni       1.23518690       2.21060111       0.09970908        4       1.00000000      -0.09192985       0.04226531       0.19851734
Pt       3.77158985       2.20641682       0.18689807        4       0.00000000      -0.06887463      -0.02181722       0.30289667
Pt       6.43225063       2.20168077       0.08026233        4       0.00000000       0.08170913       0.03584467      -0.01406857
Ni       8.96374757       2.23146777       0.06444394        4       1.00000000       0.13079849       0.09533626       0.05743467
Ni       2.54075973       4.42268992       0.04984182        4       1.00000000      -0.02393395       0.00747999       0.02277510
Ni       5.07281047       4.41665270       0.06395160        4       1.00000000      -0.05907423      -0.01564852       0.12815567
Ni       7.70063283       4.39715558       0.06699059        4       1.00000000       0.17196010       0.00719720       0.13850796
Ni      10.17961565       4.38147407       0.05610525        4       1.00000000      -0.07117700      -0.07152858       0.03566772
Ni       3.80998173       6.59030606       0.03835952        4       1.00000000       0.01625688      -0.11249281       0.01503441
Pt       6.36958654       6.63237447       0.01835767        4       0.00000000       0.01051191      -0.04336937      -0.27918398
Ni       8.93120344       6.59034662       0.12815839        4       1.00000000      -0.02011662      -0.10269089       0.21563801
Ni      11.46566807       6.60106619       0.01742376        4       1.00000000      -0.09157121      -0.06035350      -0.12527330
Ni       1.29969216       0.74172662       2.14318716        3       1.00000000       0.00491329       0.07829007      -0.03013618
Ni       3.80375020       0.71661947       2.18595731        3       1.00000000      -0.01358386      -0.01663366      -0.00327645
Ni       6.35911023       0.74553856       2.17449778        3       1.00000000       0.06050244       0.02740029      -0.06759618
Pt       8.96569868       0.79224474       2.14023504        3       0.00000000      -0.01094963       0.00706865       0.04681332
Ni       2.53548185       2.92995824       2.19981442        3       1.00000000      -0.02982345       0.05548688       0.04058704
Ni       5.08445540       2.93653198       2.21399923        3       1.00000000      -0.02540284       0.00857797       0.06877051
Ni       7.67995856       2.95637895       2.18364451        3       1.00000000       0.08071284       0.09827379       0.07883366
Ni      10.18836558       2.93135349       2.16525959        3       1.00000000      -0.00247664       0.03806605       0.06519223
Ni       3.83608299       5.09361097       2.17634151        3       1.00000000      -0.01786020      -0.10407805       0.02857425
Pt       6.37587241       5.13244431       2.18422642        3       0.00000000       0.00044249       0.11039662      -0.09585954
Ni       8.90902464       5.09808608       2.17977612        3       1.00000000       0.00194037      -0.07617181       0.07594671
Pt      11.45394031       5.07071831       2.13165320        3       0.00000000      -0.03287594      -0.00603829      -0.05051515
Ni       5.10990772       7.33481620       2.15229457        3       1.00000000      -0.02831350      -0.05096334      -0.08659874
Ni       7.64167293       7.35604844       2.16418745        3       1.00000000      -0.01808436      -0.04917119      -0.02370295
Pt      10.12678246       7.36450146       2.18360257        3       0.00000000      -0.02139472       0.00106792       0.06732695
Pt      12.76511145       7.31650652       2.11811576        3       0.00000000       0.02867636      -0.02439009      -0.08169923
Ni      -0.00196543       1.48446921       4.34785931        2       1.00000000       0.04537370      -0.01941917      -0.01249575
Pt       2.51777128       1.46510052       4.24548577        2       0.00000000       0.03878704      -0.03793796       0.13188737
Pt       5.11057556       1.39152240       4.28147179        2       0.00000000      -0.05342926      -0.04015254       0.02643861
Pt       7.70203933       1.47479686       4.38171536        2       0.00000000       0.04651406       0.01573910       0.00098904
Pt       1.23271287       3.70768568       4.38713228        2       0.00000000      -0.04444128      -0.01034740      -0.00095810
Ni       3.81761845       3.73297102       4.30594043        2       1.00000000      -0.07424734       0.06607448      -0.13146441
Pt       6.37166176       3.72787664       4.38437927        2       0.00000000      -0.03273656       0.01315517       0.03816844
Ni       8.93243664       3.69907855       4.34323107        2       1.00000000      -0.00220335       0.14308065      -0.08549127
Ni       2.54205310       5.83957689       4.36938523        2       1.00000000      -0.08665376      -0.06570737      -0.08546277
Ni       5.05501944       5.83015178       4.34988839        2       1.00000000      -0.16339547      -0.07935008      -0.12021087
Ni       7.70002501       5.84593086       4.32101769        2       1.00000000       0.22554525      -0.04688031      -0.13821134
Ni      10.19070283       5.87378214       4.32811142        2       1.00000000      -0.00070338       0.02938363      -0.11255928
Pt       3.78284629       7.98020489       4.34783728        2       0.00000000       0.00512774      -0.04244842       0.06438520
Pt       6.39375574       7.97984413       4.24124791        2       0.00000000      -0.01748671      -0.03954651       0.04692778
Ni       8.94493413       8.01803773       4.31459850        2       1.00000000      -0.04511460      -0.08709484       0.07108140
Ni      11.44516034       8.00449266       4.36550736        2       1.00000000      -0.01731762      -0.15594213      -0.00182675
Pt      -0.06698095       0.00934471       6.54535077        1       0.00000000      -0.13234282       0.03664014       0.14751176
Pt       2.57456474      -0.02795143       6.53667679        1       0.00000000       0.04677903       0.03798450       0.18032466
Ni       5.15890936      -0.04191890       6.47265550        1       1.00000000       0.07699118      -0.03067642      -0.13056060
Ni       7.59006371      -0.04085317       6.49576511        1       1.00000000      -0.16602025      -0.05483678      -0.09506538
Ni       1.23518138       2.22921170       6.48554970        1       1.00000000      -0.03827383       0.06052644      -0.00556016
Pt       3.84843548       2.28773176       6.44401473        1       0.00000000       0.03884580       0.19597226      -0.29906478
Ni       6.40554489       2.18851379       6.42536383        1       1.00000000       0.04283803       0.01822495      -0.12526921
Ni       8.91889619       2.23707711       6.48326105        1       1.00000000       0.01346681       0.21907114      -0.06790889
Ni       2.54008755       4.44968689       6.46097070        1       1.00000000      -0.02338713       0.20472621      -0.07176958
Ni       5.09703192       4.44858739       6.46484761        1       1.00000000      -0.03027199       0.23539851      -0.02503885
Ni       7.65131977       4.36603221       6.47128740        1       1.00000000       0.03968630      -0.03184473       0.00854411
Ni      10.20003204       4.36292093       6.47628528        1       1.00000000       0.01613239      -0.04100098       0.00897004
Ni       3.79355298       6.53777729       6.45337659        1       1.00000000      -0.06020142      -0.07609880      -0.08456040
Ni       6.34340140       6.52724866       6.35869722        1       1.00000000      -0.00504759      -0.09554522      -0.42356909
Pt       8.97375864       6.51178453       6.44670272        1       0.00000000       0.09495472      -0.06279315       0.13003302
Ni      11.50722846       6.58651427       6.43386377        1       1.00000000       0.10194926      -0.03011766      -0.22335999
