64
Lattice="10.286735024597359 -0.012812967865883974 0.02324353663114857 5.1322711566289465 8.818628258094682 0.012182646023414505 0.018978268188001256 0.0005288005741737574 8.750377143402144" Properties=species:S:1:pos:R:3:tags:I:1:initial_magmoms:R:1:forces:R:3 unique_id=ed64f459351c4cd88f6fa2c408e7f7c4 stress="0.00015800220657041092 2.71753472815609e-06 -7.578659643855312e-06 2.71753472815609e-06 0.00016504903460472925 -4.448372396375698e-06 -7.578659643855312e-06 -4.448372396375698e-06 0.000160591388876051" energy=-395.22643092046997 pbc="T T T"
Ni       0.00645080       0.02466859       0.18527980        4       1.00000000       0.03144325       0.09001378       0.26887752
Ni       2.56735972       0.00613547       0.22381777        4       1.00000000       0.00737176       0.03346033       0.37167252
Ni       5.14341975      -0.01550433       0.17995791        4       1.00000000      -0.03785554       0.10156617       0.24777101
Ni       7.72123041      -0.05273477       0.20593493        4       1.00000000      -0.02653974      -0.13043677       0.35994568
Ni       1.25269406       2.21526818       0.11355379        4       1.00000000      -0.09843026       0.06158497       0.18661581
Pt       3.79654323       2.22238528       0.19680159        4       0.00000000      -0.06643331       0.04784826       0.19407175
Pt       6.45009219       2.15462891       0.12257529        4       0.00000000       0.07428898      -0.01674362      -0.03637595
Ni       9.04627878       2.20000759       0.16544377        4       1.00000000       0.12176323       0.05403368       0.12613608
Ni       2.56306211       4.44043796       0.07944011        4       1.00000000       0.02505966       0.08626195       0.01880595
Ni       5.10572061       4.43332451       0.11656892        4       1.00000000      -0.02070318       0.03129999       0.22351493
Pt       7.77851427       4.41634460       0.11991256        4       0.00000000       0.11534254       0.01507212      -0.10144509
Ni      10.32036891       4.39210031       0.10504681        4       1.00000000       0.13049003      -0.01582768       0.06920949
Ni       3.81722890       6.60893792       0.11544609        4       1.00000000      -0.07707178      -0.02220544       0.16477359
Pt       6.38081908       6.65739950       0.12174259        4       0.00000000      -0.08552961       0.02091149      -0.18366239
Ni       9.00901306       6.62360688       0.17253784        4       1.00000000      -0.07362585       0.02223785       0.10508170
Ni      11.59315599       6.60157477       0.09326919        4       1.00000000       0.11870747      -0.04589821      -0.04144639
Ni       1.30045110       0.76124247       2.15695101        3       1.00000000      -0.02285617       0.14181958      -0.03198333
Ni       3.85381170       0.74284984       2.21166786        3       1.00000000       0.05267183       0.06119966       0.06536734
Ni       6.42343323       0.75539086       2.23610721        3       1.00000000      -0.03104153       0.12616164       0.15863554
Pt       9.01080921       0.76796408       2.19475880        3       0.00000000      -0.02412289       0.12431448       0.14143910
Ni       2.56073095       2.95135825       2.21599628        3       1.00000000      -0.01168762       0.09253438      -0.04603044
Ni       5.13809056       2.95323349       2.24821246        3       1.00000000      -0.07446571       0.02258135       0.01294448
Ni       7.73016022       2.94952354       2.24961708        3       1.00000000       0.09002754       0.07947666      -0.01454418
Ni      10.28967518       2.93107681       2.22720310        3       1.00000000       0.02916948       0.05801218       0.08475036
Ni       3.87234568       5.12879843       2.18110541        3       1.00000000       0.01570432      -0.08341964      -0.09529625
Ni       6.42383236       5.13308946       2.22202898        3       1.00000000       0.03068886      -0.00470799      -0.06951749
Ni       8.98485040       5.10890898       2.26136391        3       1.00000000       0.00959225      -0.08998458       0.15971102
Pt      11.59948818       5.07974366       2.23050590        3       0.00000000       0.04445848      -0.02811281       0.03864871
Ni       5.12157124       7.32556294       2.18507883        3       1.00000000      -0.12116303      -0.09567130      -0.07674981
Ni       7.69356147       7.33091614       2.19404258        3       1.00000000      -0.01347839      -0.14838635      -0.02810145
Pt      10.27622808       7.33458713       2.14250816        3       0.00000000       0.03476900      -0.10303213       0.01423212
Ni      12.88329808       7.31046320       2.18109341        3       1.00000000       0.08033249      -0.15730795      -0.02216696
Ni      -0.00432538       1.54371591       4.33020969        2       1.00000000      -0.03193122       0.15428235      -0.06534470
Pt       2.54215499       1.57289404       4.26102851        2       0.00000000      -0.01218232       0.04915901       0.08911530
Ni       5.16935600       1.48808026       4.31702592        2       1.00000000      -0.06562228      -0.02244395      -0.14070689
Ni       7.73292633       1.48977546       4.34771591        2       1.00000000       0.08011604      -0.05173440      -0.05589839
Ni       1.26244165       3.71222589       4.38195079        2       1.00000000      -0.07080762       0.02640571      -0.02023538
Ni       3.83359523       3.70701303       4.31279696        2       1.00000000      -0.12596968      -0.02916270      -0.24738314
Pt       6.47301940       3.62205907       4.33047705        2       0.00000000       0.01106304      -0.06647007      -0.13329510
Ni       9.04319381       3.69248215       4.33272994        2       1.00000000       0.10206389       0.02126865      -0.21949791
Ni       2.54446274       5.81490872       4.38552535        2       1.00000000      -0.06565639      -0.10363109      -0.04754951
Pt       5.10617291       5.80476977       4.34731243        2       0.00000000      -0.00981064      -0.02430720      -0.14487839
Ni       7.74585272       5.81783728       4.33837087        2       1.00000000       0.05954277      -0.09145909      -0.23207044
Ni      10.29995584       5.78925927       4.38273935        2       1.00000000      -0.00856249      -0.08085241      -0.08973918
Pt       3.84205008       8.07791603       4.31061333        2       0.00000000      -0.05872481      -0.04408109       0.13478211
Pt       6.42644908       8.06626900       4.26384252        2       0.00000000      -0.05214774       0.03895726      -0.03571039
Pt       8.99605679       8.05357839       4.30690768        2       0.00000000      -0.02455345      -0.05576609       0.09870358
Pt      11.57971197       8.04676120       4.31783916        2       0.00000000       0.01596763      -0.03804285       0.10956376
Pt       0.01302481      -0.02569822       6.55654861        1       0.00000000       0.06188825      -0.06357375       0.12961925
Pt       2.56687588      -0.00179353       6.58032999        1       0.00000000      -0.08879897       0.02573412       0.22173598
Pt       5.16674728       0.00191474       6.55751968        1       0.00000000       0.05725961      -0.01581160       0.05296392
Pt       7.72278500      -0.04401315       6.58427273        1       0.00000000      -0.07335309      -0.07975750       0.18256055
Ni       1.28749356       2.27169136       6.48313730        1       1.00000000       0.02297839       0.12723127      -0.14137024
Pt       3.87871200       2.33245499       6.43846675        1       0.00000000      -0.01513190       0.22216002      -0.26625327
Ni       6.44673759       2.23552925       6.42857589        1       1.00000000       0.01455160       0.01697554      -0.21938412
Pt       9.02223543       2.29816135       6.48447683        1       0.00000000       0.00413958       0.11031349      -0.00356352
Ni       2.55010032       4.45112198       6.47174125        1       1.00000000      -0.05998419       0.08082436      -0.20521999
Ni       5.15994020       4.44059215       6.51122729        1       1.00000000       0.05938798       0.12353302      -0.04937371
Ni       7.68399650       4.39835277       6.42145029        1       1.00000000      -0.17721018      -0.02271887      -0.23970077
Ni      10.35668987       4.39268796       6.48202364        1       1.00000000       0.24286665      -0.02705218      -0.19619059
Ni       3.84111015       6.53691679       6.51163637        1       1.00000000      -0.07719784      -0.17092349      -0.06707690
Ni       6.41349901       6.54936607       6.43658110        1       1.00000000       0.01835064      -0.06802189      -0.29403433
Pt       9.01872423       6.46905354       6.52587269        1       0.00000000       0.01813229      -0.15844918       0.02336162
Ni      11.60467592       6.52759704       6.51149462        1       1.00000000       0.02245988      -0.11124146      -0.19281419
