64
Lattice="10.13868409539931 -0.011294094156249735 0.007721471540089214 5.059561075247607 8.689157366135921 -0.06033285979943561 0.0 0.0 21.418867826874614" Properties=species:S:1:pos:R:3:tags:I:1:initial_magmoms:R:1:forces:R:3 unique_id=bd920c79fa5b4b30afe73be41112b53b stress="0.0020214167615111613 -8.817090766695221e-05 5.3482201508090915e-05 -8.817090766695221e-05 0.0014228698803857645 -0.00022757568574422154 5.3482201508090915e-05 -0.00022757568574422154 -0.004923664568350528" energy=-367.195216757446 pbc="T T T"
Ni       0.04140327      -0.05320153       0.16394707        2       1.00000000       0.07658692      -0.00643550      -0.39084610
Ni       2.48525766      -0.03818605       0.19149722        2       1.00000000       0.04983156       0.02150513      -0.30578577
Pt       5.09762037      -0.02589492       0.12414757        1       0.00000000      -0.10408255       0.21990034      -1.15710967
Ni       7.62465389      -0.06230652       0.16761200        2       1.00000000      -0.03999896      -0.05937325      -0.48563306
Ni       1.25767903       2.18292004       0.07834860        1       1.00000000      -0.04557110       0.01791378       0.27779676
Pt       3.75994586       2.24035429       0.13246758        1       0.00000000       0.03734816      -0.06601304      -0.63226638
Ni       6.33969243       2.21917549       0.08037896        1       1.00000000      -0.04998967       0.00106322       0.12421152
Pt       8.87341380       2.21693540       0.07817463        1       0.00000000       0.04137821       0.16007610      -0.83449623
Ni       2.50618791       4.38684890       0.04093559        0       1.00000000       0.05871718      -0.00725898       0.32678833
Ni       5.08785527       4.39188526       0.04983158        0       1.00000000      -0.07479398       0.02693500       0.26706451
Ni       7.56322856       4.37879969       0.05901529        1       1.00000000       0.05748675       0.01173545       0.21894964
Ni      10.16679079       4.37163937       0.05478215        1       1.00000000      -0.03019393       0.01150271       0.31561684
Ni       3.80713377       6.48784741       0.03028968        0       1.00000000       0.05631942      -0.00002868       0.24007512
Ni       6.31784823       6.49438941       0.03342194        0       1.00000000      -0.00164344       0.03291433       0.26042629
Ni       8.81674840       6.44717752       0.10513121        1       1.00000000      -0.09032587      -0.01423855      -0.36509277
Ni      11.44692509       6.44627735       0.00000000        0       1.00000000       0.04422708       0.06804489       0.12474974
Ni       1.30056811       0.72077652       2.15724233        4       1.00000000       0.03534471       0.07274165       0.16554467
Ni       3.76376454       0.74662703       2.16953730        4       1.00000000      -0.05966543       0.03293205       0.21776150
Ni       6.33515715       0.75301602       2.18881559        4       1.00000000      -0.00023402       0.08163307       0.15638069
Pt       8.89079067       0.70996148       2.17102331        4       0.00000000       0.04171894      -0.09502468       0.21404155
Ni       2.49961687       2.90945018       2.18433069        4       1.00000000      -0.01379081      -0.00965548       0.10370877
Ni       5.07097848       2.90869262       2.14312961        3       1.00000000      -0.00027786       0.03225013       0.04788933
Ni       7.57829673       2.92166224       2.13582644        3       1.00000000      -0.05016304       0.01382702       0.09435739
Ni      10.18556664       2.91887678       2.17088869        4       1.00000000       0.06877225       0.01287512       0.11835889
Ni       3.80012295       5.04173268       2.09987527        3       1.00000000       0.02397756      -0.07603327       0.04024289
Ni       6.32636415       5.06478738       2.08090705        3       1.00000000      -0.01618354      -0.03302233       0.05682087
Ni       8.83981937       4.99315907       2.11330941        3       1.00000000      -0.01580139      -0.10509745       0.07081722
Ni      11.44183149       4.98310994       2.11960518        3       1.00000000       0.06374154      -0.09771891       0.13570917
Ni       5.09883864       7.16148220       2.05860108        3       1.00000000      -0.02912981      -0.04863580       0.08883206
Ni       7.53257165       7.18901880       2.06017173        3       1.00000000      -0.02685885      -0.05695945       0.11083297
Pt      10.18106832       7.11543283       2.10530887        3       0.00000000       0.05615764      -0.22793905       0.07340435
Ni      12.68942567       7.13994805       2.06037805        3       1.00000000       0.09613304      -0.10056110       0.07557704
Ni       0.06576329       1.46177843       4.21025373        6       1.00000000       0.11898406      -0.03110485      -0.12801500
Ni       2.49367068       1.47294741       4.17820129        6       1.00000000      -0.02702549       0.00653195      -0.14987247
Ni       5.07369228       1.43696776       4.16450798        6       1.00000000      -0.04332294      -0.00387247      -0.27160544
Ni       7.57316033       1.41338690       4.22121092        6       1.00000000      -0.11119648      -0.09349127      -0.15196536
Ni       1.27203510       3.59913053       4.22289273        6       1.00000000       0.01548606      -0.03850837      -0.09151457
Ni       3.75803639       3.64564276       4.15662691        6       1.00000000      -0.03220277       0.07540804      -0.18985383
Pt       6.32935222       3.60215299       4.21853802        6       0.00000000      -0.00260651      -0.03440493       0.03450173
Ni       8.91117704       3.63355792       4.16038610        6       1.00000000       0.01701110       0.06134488      -0.18192151
Ni       2.50847176       5.69885896       4.20301042        6       1.00000000      -0.04377264      -0.05400649      -0.15862979
Ni       5.06537816       5.73612115       4.20422371        6       1.00000000       0.02658081      -0.03499176      -0.15695605
Ni       7.57836333       5.74403828       4.17101908        6       1.00000000      -0.01819013       0.02100407      -0.15989293
Ni      10.17765969       5.68603635       4.21619802        6       1.00000000       0.01154567       0.00561608      -0.10270485
Pt       3.79994016       7.84379221       4.15679754        6       0.00000000       0.00600250       0.01800960       0.01577995
Ni       6.31518574       7.90609992       4.13055590        5       1.00000000      -0.05764070      -0.02562004      -0.16791287
Pt       8.80208406       7.92945934       4.11533223        5       0.00000000      -0.10499376       0.02983611      -0.09986962
Ni      11.41981010       7.89035198       4.15853507        6       1.00000000       0.00593923      -0.10412971      -0.18808117
Pt       0.01756541      -0.08308199       6.41337949        9       0.00000000      -0.17201099       0.17141760       0.32193078
Pt       2.51280597      -0.03188197       6.41886783        9       0.00000000       0.22289464       0.10151047       0.33713961
Pt       5.10246387      -0.02947750       6.26437831        8       0.00000000      -0.09945091       0.09733572       1.17064899
Pt       7.60164073      -0.09483701       6.41851433        9       0.00000000       0.12551704       0.17094428       0.45027985
Ni       1.27175557       2.20711186       6.30732208        8       1.00000000       0.01745323       0.00733519      -0.12434224
Pt       3.79732607       2.27382335       6.22913572        7       0.00000000      -0.02661063      -0.13087877       0.59900431
Ni       6.33989846       2.18761507       6.34079397        8       1.00000000      -0.00477482      -0.02474144       0.03528312
Pt       8.88246892       2.23542067       6.21009890        7       0.00000000      -0.00253943      -0.19227725       0.85975520
Ni       2.50645838       4.36355150       6.29714709        8       1.00000000       0.05066122      -0.03461151      -0.30705174
Ni       5.07599193       4.36947113       6.33318536        8       1.00000000      -0.07267190       0.01751259      -0.18390114
Ni       7.53755713       4.30328791       6.34356819        8       1.00000000      -0.01101349       0.01312615      -0.08043412
Ni      10.22431860       4.29648641       6.30579875        8       1.00000000       0.01613345       0.00929477      -0.21907299
Ni       3.79539340       6.37917881       6.31601513        8       1.00000000      -0.00186352      -0.00696586      -0.18979775
Ni       6.30164156       6.40497535       6.29685657        8       1.00000000       0.02366617       0.06185973      -0.24056504
Pt       8.87108188       6.33413074       6.35120087        9       0.00000000       0.02711713       0.03838835       0.13761204
Ni      11.43812374       6.39432055       6.28707654        8       1.00000000      -0.01214188       0.08927464      -0.17270329
