64
Lattice="10.297642129503323 -0.010639406050348712 0.027572259936173064 5.1396070688308795 8.847792091677679 0.0065319668855617396 0.022512655966335796 -0.006839290543315153 8.76821649271284" Properties=species:S:1:pos:R:3:tags:I:1:initial_magmoms:R:1:forces:R:3 unique_id=f68245266eaf4b72bb521e5a0b655b10 stress="0.00019034243355674219 7.666813423616616e-06 -2.302139003826153e-05 7.666813423616616e-06 0.00019909178799145527 2.391426741171362e-05 -2.302139003826153e-05 2.391426741171362e-05 0.00019561516963322728" energy=-396.0289011936092 pbc="T T T"
Ni      -0.02287513       0.03434971       0.21290421        4       1.00000000      -0.07439645       0.13034081       0.34467497
Ni       2.57341659       0.00580465       0.22427564        4       1.00000000      -0.01687756       0.03434872       0.40708253
Ni       5.15025630      -0.01671023       0.18150396        4       1.00000000       0.00014541       0.14466552       0.30842796
Ni       7.75512662      -0.04394062       0.13379621        4       1.00000000       0.11642137      -0.06130738       0.21757736
Ni       1.24909144       2.21438346       0.19776023        4       1.00000000      -0.14299241       0.01013924       0.29995985
Pt       3.79953669       2.21491598       0.11919312        4       0.00000000      -0.05074392       0.05063512      -0.14332747
Pt       6.47057958       2.14866966       0.21270928        4       0.00000000       0.12262155      -0.09928374       0.24386352
Ni       9.05306451       2.17885078       0.20590363        4       1.00000000       0.11555107      -0.07539860       0.21888527
Ni       2.54900737       4.44406452       0.06271724        4       1.00000000      -0.08100898       0.02444740      -0.06541406
Ni       5.14103289       4.42726312       0.17255408        4       1.00000000       0.20855262      -0.08925161       0.23596248
Pt       7.80190914       4.42743032       0.12437317        4       0.00000000       0.17685226      -0.01937434      -0.10544431
Ni      10.32376643       4.41028826       0.09892833        4       1.00000000       0.10677268      -0.08027924       0.03159136
Ni       3.81792666       6.66554830       0.09202643        4       1.00000000      -0.06489184       0.11961813       0.05873518
Pt       6.40308383       6.68806826       0.20990354        4       0.00000000      -0.07308976       0.05735120       0.18258421
Ni       9.03142615       6.64591378       0.09513440        4       1.00000000       0.01306462       0.02704964      -0.01560808
Ni      11.60031881       6.63340414       0.08214003        4       1.00000000       0.11927982      -0.00196048      -0.04371864
Ni       1.26621850       0.76075311       2.16021263        3       1.00000000      -0.11540591       0.12121903       0.02227825
Ni       3.85899512       0.75082391       2.20823626        3       1.00000000       0.05375163       0.03201222       0.05169255
Ni       6.47195251       0.73294320       2.25902674        3       1.00000000       0.11769286       0.03833708       0.14956130
Ni       9.01626167       0.75345921       2.20633350        3       1.00000000      -0.05337997       0.11198974       0.05900643
Ni       2.55169944       2.92723820       2.20284648        3       1.00000000      -0.11053937       0.04055814      -0.05183836
Ni       5.14530983       2.91631946       2.24773807        3       1.00000000      -0.08648049      -0.13404250       0.03542384
Ni       7.78143015       2.92117398       2.25186448        3       1.00000000       0.25895489      -0.08448229      -0.05008723
Ni      10.27476710       2.89876970       2.23654751        3       1.00000000      -0.07071027      -0.07044499       0.13069928
Pt       3.86375704       5.14573751       2.15848363        3       0.00000000      -0.08814874      -0.00893074      -0.03545579
Ni       6.47482408       5.14445910       2.22657959        3       1.00000000       0.10926498       0.02609393      -0.07176789
Ni       8.99059761       5.12880675       2.26755655        3       1.00000000      -0.02913948      -0.09020826       0.16471277
Pt      11.54510018       5.08831851       2.23393170        3       0.00000000      -0.10407233      -0.08477098       0.02369723
Ni       5.11728328       7.41893151       2.19206711        3       1.00000000      -0.16033433       0.07376855      -0.08847281
Ni       7.72505668       7.36689538       2.21290186        3       1.00000000       0.03152477      -0.08775950      -0.01143105
Pt      10.27990144       7.36929090       2.14030577        3       0.00000000       0.02536228      -0.11548421      -0.02345617
Ni      12.88882785       7.39522699       2.18187672        3       1.00000000      -0.01918419       0.00126521      -0.11844354
Ni      -0.01198117       1.54043772       4.30177589        2       1.00000000       0.00015433       0.20149530      -0.15597657
Pt       2.59774536       1.57236459       4.27123947        2       0.00000000      -0.09272313       0.07183811       0.00331658
Ni       5.15653105       1.48327415       4.32312742        2       1.00000000       0.02557863      -0.02964781      -0.17026183
Ni       7.76167640       1.48064921       4.31681664        2       1.00000000       0.09872321       0.06540431      -0.19228500
Ni       1.26423936       3.73268345       4.35773783        2       1.00000000      -0.08659347       0.01940687      -0.04533503
Ni       3.83921948       3.68621586       4.35830959        2       1.00000000      -0.03932342       0.06910416      -0.16905383
Pt       6.50373912       3.65072882       4.26243872        2       0.00000000       0.01279685      -0.08980786       0.06945979
Ni       9.06219940       3.69650520       4.34540540        2       1.00000000       0.15665292      -0.00223014      -0.21902316
Ni       2.53654826       5.84493859       4.40389613        2       1.00000000      -0.08396500      -0.06667105      -0.06970942
Pt       5.11427195       5.86484162       4.31526940        2       0.00000000       0.06521669       0.01477038       0.04589751
Ni       7.79273607       5.83753196       4.34310787        2       1.00000000       0.09535736      -0.08332433      -0.19716953
Ni      10.29903365       5.82081374       4.42043495        2       1.00000000      -0.00270422      -0.05506462      -0.07023212
Pt       3.83440219       8.15089848       4.29466403        2       0.00000000      -0.00388264       0.10051738      -0.03445804
Pt       6.43461955       8.13934092       4.24600459        2       0.00000000      -0.03526126       0.05894397       0.05351081
Pt       9.01884578       8.04569016       4.33576784        2       0.00000000      -0.04387466       0.00699645       0.11462640
Pt      11.60604269       8.08263510       4.36060089        2       0.00000000      -0.00141198      -0.05683032      -0.01694045
Pt      -0.04827572      -0.03156653       6.57524357        1       0.00000000      -0.06481085      -0.02514308       0.22991433
Pt       2.61671295       0.00373250       6.59298152        1       0.00000000      -0.00660263       0.07291619       0.24808171
Pt       5.20715353      -0.09092384       6.58772110        1       0.00000000       0.02484635      -0.29578486       0.16437351
Ni       7.73319892      -0.06049024       6.54038184        1       1.00000000       0.01585798      -0.09285336      -0.08403248
Pt       1.32606299       2.32963408       6.53416399        1       0.00000000       0.04240298       0.17582229       0.19694648
Ni       3.87054105       2.22026226       6.43321073        1       1.00000000      -0.00046940      -0.08503415      -0.31577096
Pt       6.44609934       2.17642885       6.45537703        1       0.00000000      -0.02168730      -0.01792703      -0.25617449
Pt       9.01911690       2.26913751       6.50298853        1       0.00000000       0.02442937       0.09614759       0.04242380
Ni       2.55211119       4.47630655       6.48169668        1       1.00000000      -0.16351727       0.19357058      -0.25054045
Pt       5.05065827       4.39499126       6.55421109        1       0.00000000      -0.19700262       0.04878633       0.07153478
Ni       7.78068227       4.43277849       6.43336597        1       1.00000000       0.06421465       0.00264598      -0.31521091
Ni      10.31229965       4.48254224       6.49441572        1       1.00000000       0.00689921       0.15682198      -0.20619648
Ni       3.79042447       6.61656053       6.51542984        1       1.00000000      -0.19641769       0.01948228      -0.16397603
Pt       6.49839597       6.56333955       6.47673208        1       0.00000000       0.06372804      -0.07793443      -0.26699457
Ni       9.06583925       6.54948637       6.51183703        1       1.00000000       0.08963622      -0.16921120      -0.20700519
Ni      11.61317222       6.55946913       6.52313962        1       1.00000000       0.01933595      -0.16806673      -0.19569012
