64
Lattice="10.02505168197122 0.013661319999809428 0.021142263603063472 5.024356891154667 8.707774055498806 0.01878044411587964 0.0 0.0 21.451836469279254" Properties=species:S:1:pos:R:3:tags:I:1:initial_magmoms:R:1:forces:R:3 unique_id=55dc7f06f1bf4c55a8d419c5835011fe energy=-364.10916744323623 stress="0.003469836297910058 -8.16267497864352e-05 0.0002961714700132414 -8.16267497864352e-05 0.003468052961308074 6.766800431838696e-05 0.0002961714700132414 6.766800431838696e-05 -0.0026965752653904836" pbc="T T T"
Ni       0.03189400      -0.06393067       0.09203515        1       1.00000000      -0.00521064      -0.11449131       0.06286426
Ni       2.53031549      -0.05360273       0.10561926        1       1.00000000      -0.01068511       0.03307362       0.06594492
Ni       4.97600196      -0.02637481       0.10646081        1       1.00000000       0.08314194       0.00896555       0.09625830
Pt       7.55460044      -0.04737739       0.08068069        1       0.00000000      -0.03985840       0.00496842      -0.00699809
Pt       1.25637679       2.10031072       0.00000000        0       0.00000000       0.01272434      -0.02586789      -0.42782505
Ni       3.78498015       2.16911993       0.18193148        2       1.00000000       0.04457275      -0.07605497      -0.61872858
Pt       6.25606710       2.23390441       0.07843921        1       0.00000000      -0.04799135      -0.03485176      -0.06352695
Ni       8.77369325       2.18732128       0.10980872        1       1.00000000      -0.01330352      -0.00962832       0.15589803
Ni       2.56450676       4.40510859       0.07853096        1       1.00000000      -0.06361355      -0.00394276      -0.00691692
Ni       5.01190110       4.40963905       0.11060603        1       1.00000000       0.06655248      -0.06960654       0.09974129
Ni       7.49978681       4.41093335       0.11427106        1       1.00000000      -0.01934650       0.08087700       0.11167610
Pt      10.01193706       4.41498679       0.08699793        1       0.00000000       0.02949163       0.03107866      -0.12109715
Ni       3.80588860       6.48944375       0.10418865        1       1.00000000      -0.00823321       0.09558027       0.13284486
Ni       6.27758484       6.53339020       0.12158533        1       1.00000000       0.04533747       0.00168665       0.11576532
Ni       8.75887880       6.57775528       0.23214322        2       1.00000000       0.05780636      -0.07542925      -0.48675833
Ni      11.29724810       6.54158841       0.12190339        1       1.00000000      -0.01840166       0.00863966       0.20238010
Ni       1.23377591       0.69596186       2.14031633        3       1.00000000      -0.06980320       0.07216793      -0.04306732
Ni       3.78799092       0.70885072       2.11908853        3       1.00000000       0.05931143      -0.00581929       0.02509447
Ni       6.26963045       0.72252980       2.21206591        4       1.00000000       0.10612412       0.00191399       0.14090375
Ni       8.78481045       0.74561941       2.20224106        4       1.00000000      -0.06622534       0.02920486       0.06676750
Pt       2.48914769       2.91311989       2.15655265        4       0.00000000      -0.16588870       0.01627707      -0.14567844
Ni       5.05961308       2.92075437       2.18098515        4       1.00000000       0.14113757      -0.01153552       0.09871610
Ni       7.54604116       2.91748163       2.20073310        4       1.00000000       0.02834397      -0.05684620       0.07441124
Ni       9.97899249       2.90711304       2.21986533        4       1.00000000      -0.09368087      -0.01848457       0.06748098
Ni       3.77413483       5.12497053       2.11052221        3       1.00000000      -0.04438394      -0.00507998       0.03583527
Ni       6.27496087       5.07650126       2.11104697        3       1.00000000       0.01516668      -0.03974491       0.00990217
Ni       8.78390624       5.08205999       2.17200597        4       1.00000000       0.11603231      -0.10445123       0.05353401
Ni      11.28644196       5.14371220       2.20644880        4       1.00000000      -0.06098019       0.07206915       0.11742020
Ni       5.00863643       7.26563321       2.11275358        3       1.00000000      -0.08117770       0.05772145      -0.01934580
Ni       7.52151004       7.26468055       2.12275225        3       1.00000000      -0.05842493       0.01002699       0.08476206
Ni      10.07146477       7.25757908       2.14732411        3       1.00000000       0.16179796      -0.01260590       0.04824104
Ni      12.54490699       7.25102999       2.22075916        4       1.00000000       0.00955753       0.07901797       0.10774147
Ni      -0.04423455       1.50282042       4.24656012        5       1.00000000      -0.09626666      -0.02156916      -0.23832501
Ni       2.48285056       1.47838027       4.25557422        6       1.00000000      -0.01605710       0.03940969      -0.14670228
Ni       5.10472610       1.46577926       4.23490632        5       1.00000000       0.11033016      -0.02964026      -0.19162878
Ni       7.54381446       1.46292057       4.25509070        6       1.00000000       0.04428516       0.00930778      -0.22378563
Ni       1.21235328       3.64258735       4.26526094        6       1.00000000      -0.03950816       0.03507913      -0.17533414
Pt       3.75973587       3.62348448       4.26536109        6       0.00000000      -0.03664073      -0.03606173       0.07547072
Ni       6.31280351       3.56957902       4.26204762        6       1.00000000       0.07294476      -0.01370075      -0.14781339
Ni       8.80629812       3.57670021       4.27132913        6       1.00000000      -0.07741734      -0.02358637      -0.16488296
Ni       2.45824583       5.84417326       4.26192986        6       1.00000000      -0.03715099       0.03649991      -0.13816293
Pt       4.96885175       5.84291406       4.25892283        6       0.00000000      -0.07320720       0.06075765      -0.04992434
Pt       7.57353984       5.72697813       4.22363615        5       0.00000000       0.03870556      -0.04545604      -0.00775323
Ni      10.11199425       5.78939557       4.25531043        6       1.00000000      -0.03070704       0.04084119      -0.13690754
Ni       3.71306316       8.02890033       4.25852588        6       1.00000000      -0.01435723       0.09180134      -0.15740166
Pt       6.23755839       8.07462767       4.26720927        6       0.00000000       0.00821282       0.07741917       0.00530050
Pt       8.87856509       8.04422551       4.22586305        5       0.00000000       0.09601310       0.05564858      -0.00491509
Ni      11.35614351       7.99845459       4.27594082        6       1.00000000      -0.00918742       0.03368324      -0.18058230
Ni      -0.03538851       0.02775579       6.34980976        8       1.00000000      -0.20399290       0.05605666      -0.09020983
Ni       2.47146128       0.01575722       6.36941203        9       1.00000000      -0.05130748      -0.00052029       0.13628014
Ni       5.09346408       0.01549436       6.35199456        9       1.00000000       0.16540389      -0.01409225      -0.01374299
Ni       7.53204520       0.02188285       6.24376660        7       1.00000000       0.06083852       0.04303213       0.23207045
Ni       1.21374742       2.18568105       6.20832570        7       1.00000000      -0.00780736      -0.02768491       0.38501298
Pt       3.77233741       2.14793290       6.41169409        9       0.00000000       0.05101957      -0.04880823       0.57153952
Ni       6.32423699       2.18101948       6.24395314        7       1.00000000       0.00699010      -0.03622496       0.26702772
Ni       8.77807460       2.18624355       6.32084650        8       1.00000000      -0.04820180      -0.06050996      -0.21254156
Ni       2.48677733       4.40474457       6.34393197        8       1.00000000      -0.07449911      -0.03179654      -0.02728076
Ni       5.04874040       4.38451880       6.38083721        9       1.00000000       0.02992877      -0.10067302       0.05756161
Ni       7.52030208       4.30296373       6.36177704        9       1.00000000       0.06530179      -0.07832964      -0.04783376
Ni      10.05429659       4.32923660       6.25162579        8       1.00000000      -0.08599011       0.01442243       0.25055663
Ni       3.74640035       6.55642417       6.36732258        9       1.00000000      -0.07401983       0.13213894      -0.10869575
Ni       6.24507138       6.54084773       6.40247381        9       1.00000000       0.01064517       0.00488505       0.08448081
Pt       8.81842565       6.52677909       6.45183647       10       0.00000000       0.14642760      -0.15642691       0.52554996
Ni      11.34360840       6.55228445       6.34325941        8       1.00000000      -0.04061815       0.05526930      -0.16066793
