64
Lattice="10.442068810742212 -0.016878950147822185 0.014210827309151047 5.206416805753939 9.05806608180119 0.046587508906543 0.011603091910076259 0.03722407638415922 9.014824444897831" Properties=species:S:1:pos:R:3:tags:I:1:initial_magmoms:R:1:forces:R:3 unique_id=4fa7eb27a02f445c9e802bf84dadfac7 stress="-0.0009560198511084153 2.0860388720372233e-05 -1.239334596856233e-05 2.0860388720372233e-05 -0.0009634703731834782 -9.075592372170505e-06 -1.239334596856233e-05 -9.075592372170505e-06 -0.0007884518412448957" energy=-407.75362792921305 pbc="T T T"
Pt      -0.00175026      -0.04539168       0.00488245        4       0.00000000      -0.03797466      -0.12711785      -0.25850072
Pt       2.58420073      -0.10548973       0.14978963        4       0.00000000      -0.02875555      -0.16161478       0.18558033
Pt       5.19784980      -0.05016751       0.04095583        4       0.00000000      -0.03042953       0.00189029      -0.03604088
Pt       7.86961975      -0.02324113       0.02818371        4       0.00000000      -0.01180379       0.01043224      -0.11775266
Pt       1.24712962       2.26664384       0.11471197        4       0.00000000      -0.07315927      -0.01321831       0.00136843
Pt       3.91134338       2.27900329       0.15198981        4       0.00000000       0.00579881      -0.03438641       0.31714159
Pt       6.59129246       2.33984150       0.13215213        4       0.00000000       0.09704193       0.17249211       0.22124573
Ni       9.13484766       2.26668198       0.08048690        4       1.00000000       0.01944464      -0.01126601       0.09535410
Pt       2.63750253       4.56365139       0.15305976        4       0.00000000      -0.01521933      -0.01823138       0.29341993
Ni       5.25091310       4.58736522       0.17433338        4       1.00000000       0.11501558       0.18624087       0.29504974
Ni       7.80725772       4.58031706       0.17577811        4       1.00000000      -0.17295453       0.31575165       0.23101513
Pt      10.31004297       4.52136399       0.09440063        4       0.00000000      -0.21395252       0.01882912      -0.10435592
Ni       3.94172586       6.78265506       0.10353015        4       1.00000000       0.10922065      -0.03891548       0.14387709
Ni       6.52712795       6.72914229       0.19311176        4       1.00000000       0.08197086      -0.23634116       0.22352108
Ni       9.08650599       6.75586419       0.14016756        4       1.00000000      -0.13673437      -0.07285262       0.24983308
Pt      11.72864457       6.77773793       0.10222359        4       0.00000000      -0.08000843      -0.00304673      -0.04350759
Ni       1.31439979       0.79295151       2.31324984        3       1.00000000       0.01711378       0.13410201       0.08882385
Pt       3.82630760       0.68471845       2.37390094        3       0.00000000      -0.09820242      -0.14940927       0.01311928
Pt       6.53075187       0.67577360       2.30727546        3       0.00000000       0.05926835      -0.06867325      -0.06468422
Pt       9.22016174       0.78836746       2.30326396        3       0.00000000       0.13085281      -0.00300519      -0.08667905
Ni       2.55732368       3.00183608       2.31388227        3       1.00000000      -0.11351093      -0.02643327       0.08781489
Pt       5.23311208       3.07010702       2.29788802        3       0.00000000       0.10980264      -0.01219621      -0.02813337
Pt       7.94224046       3.13997143       2.28969064        3       0.00000000       0.20157192       0.12685232       0.01742869
Ni      10.46169398       3.01753429       2.32112996        3       1.00000000       0.11558647       0.03557894       0.07521399
Pt       3.93348658       5.34616893       2.29415799        3       0.00000000      -0.01575279       0.02573921       0.01938788
Ni       6.57514571       5.32879533       2.27289926        3       1.00000000       0.19178966       0.11502409       0.06353926
Ni       9.10217127       5.34666526       2.32991775        3       1.00000000      -0.07745841       0.29013558       0.19423376
Pt      11.64251287       5.29035629       2.36360933        3       0.00000000      -0.17619743       0.05390034      -0.05198717
Pt       5.29352133       7.53788866       2.29567788        3       0.00000000       0.11908245       0.13326844      -0.08895583
Ni       7.85739576       7.47622607       2.33173345        3       1.00000000       0.18195408      -0.28713487       0.09449020
Ni      10.37880993       7.50881545       2.34375453        3       1.00000000      -0.21044031      -0.07838786       0.11913075
Ni      13.04296120       7.53342897       2.30893826        3       1.00000000       0.02279468       0.02533859       0.00210014
Ni       0.03405066       1.53562979       4.51393132        2       1.00000000       0.09834187      -0.13175373      -0.02930468
Ni       2.55932237       1.52142894       4.47433451        2       1.00000000      -0.16140054       0.04057764      -0.03593207
Pt       5.17504420       1.45554569       4.50550224        2       0.00000000      -0.02452098       0.07321117       0.16685451
Pt       7.94102436       1.55579085       4.53496644        2       0.00000000       0.03879909       0.12691140       0.00636351
Pt       1.19071170       3.72491081       4.49804660        2       0.00000000      -0.02874099      -0.00265816       0.00942255
Pt       3.87827479       3.78634860       4.45905095        2       0.00000000      -0.09805692      -0.05846819       0.08309228
Pt       6.58835082       3.90291538       4.48140428        2       0.00000000       0.05498945       0.19799373       0.11704698
Ni       9.15905625       3.81780345       4.52150211        2       1.00000000      -0.01534440       0.20445350      -0.06416579
Pt       2.58379150       6.08195509       4.51804888        2       0.00000000      -0.08861207      -0.08493786       0.04006007
Ni       5.23908858       6.07084520       4.51652804        2       1.00000000       0.08774243       0.05077221      -0.02296067
Ni       7.88381738       6.07681210       4.49389233        2       1.00000000       0.16714754       0.10206802      -0.11702518
Ni      10.36232810       6.04073776       4.54586220        2       1.00000000      -0.25010516      -0.07183481      -0.00594482
Pt       3.94942165       8.31407981       4.59902117        2       0.00000000       0.04444420      -0.06260350      -0.10526899
Pt       6.58240244       8.32722698       4.45950516        2       0.00000000       0.22973764      -0.02608093       0.00146763
Ni       9.12027905       8.24240539       4.53573519        2       1.00000000      -0.00251792      -0.31406008      -0.02750659
Pt      11.66327452       8.24783290       4.58928660        2       0.00000000      -0.03255331      -0.05266045      -0.10520109
Ni      -0.01384247       0.05246528       6.61364348        1       1.00000000       0.05446806       0.11332217      -0.33106624
Pt       2.63371671       0.00614053       6.61645467        1       0.00000000       0.03026120      -0.04991258      -0.13307154
Ni       5.23733527      -0.03891834       6.63471591        1       1.00000000      -0.01590943      -0.16640689      -0.16720187
Ni       7.86112523      -0.01748749       6.63087969        1       1.00000000       0.04305598      -0.10576688      -0.23719594
Ni       1.25140129       2.27466445       6.62805756        1       1.00000000      -0.17019929      -0.14154387      -0.16807183
Pt       3.87059747       2.26710866       6.66524321        1       0.00000000      -0.10149844       0.05362941      -0.13812389
Pt       6.57880162       2.21684347       6.67456843        1       0.00000000       0.07057224      -0.07829465      -0.17375638
Ni       9.19496950       2.26440778       6.70722642        1       1.00000000       0.20991487      -0.04759269      -0.16247316
Pt       2.51305845       4.59019330       6.69127445        1       0.00000000      -0.20329742       0.02299830      -0.13199808
Pt       5.20550016       4.59196107       6.75701907        1       0.00000000      -0.03756645      -0.00854326       0.10791262
Pt       7.95950427       4.56559692       6.73389878        1       0.00000000       0.10592463       0.03479502       0.13230352
Ni      10.43291723       4.54282885       6.64383376        1       1.00000000       0.00468615       0.02152602      -0.25420062
Ni       3.89191352       6.85198027       6.73772241        1       1.00000000      -0.09392071       0.03026885      -0.07648859
Pt       6.50721037       6.83966232       6.74142260        1       0.00000000      -0.01659841       0.01391142       0.06182551
Ni       9.18085367       6.81531939       6.70328076        1       1.00000000       0.15600825       0.03243198      -0.23098280
Ni      11.71624587       6.82351559       6.67471062        1       1.00000000      -0.14100621      -0.01909746      -0.16049988
