64
Lattice="10.419800540463969 0.012425055778816481 0.005275538127042136 5.22066068417994 8.982663189530388 -0.01955716842441111 0.0 0.0 21.643521603367326" Properties=species:S:1:pos:R:3:tags:I:1:initial_magmoms:R:1:forces:R:3 unique_id=3504e3dea4454029ab017640b9cfb780 energy=-379.7467701167638 stress="0.0062153040576496815 0.00021479985050202536 0.00031265786812446634 0.00021479985050202536 0.005889793903619869 -6.179380473201053e-05 0.00031265786812446634 -6.179380473201053e-05 -0.0016362682413269079" pbc="T T T"
Ni      -0.03697381       0.00364299       0.12949475        1       1.00000000      -0.22218748      -0.07889720      -0.13738753
Ni       2.62941318      -0.00994243       0.12326121        1       1.00000000       0.22256161      -0.09752202      -0.20833899
Ni       5.21257127      -0.01660668       0.11806332        1       1.00000000       0.01148904       0.15131944      -0.18787496
Ni       7.83822634      -0.02889765       0.06627754        1       1.00000000       0.01300251      -0.08182864       0.53806987
Ni       1.29951660       2.25623173       0.10304804        1       1.00000000       0.08333793       0.07357170      -0.33586873
Pt       3.85773636       2.24984789       0.14567789        1       0.00000000      -0.00511778      -0.03058755      -0.45370092
Pt       6.52031915       2.17459535       0.10378781        1       0.00000000      -0.09581267      -0.15847308      -0.55406588
Ni       9.13844753       2.22068751       0.09959376        1       1.00000000      -0.05414521      -0.17535323      -0.11944252
Ni       2.59911080       4.50580551       0.01295607        0       1.00000000      -0.02580335      -0.01927413       0.29050566
Ni       5.20645606       4.49742404       0.10387835        1       1.00000000       0.15729530      -0.08635224      -0.14043018
Pt       7.89210057       4.52273374       0.02010897        0       0.00000000      -0.00435402       0.03214365       0.03648429
Ni      10.45359760       4.51814081       0.00000000        0       1.00000000       0.05264296       0.08579287       0.24047103
Ni       3.88754944       6.75724854       0.11028994        1       1.00000000      -0.07270166       0.16851456       0.02692123
Pt       6.50248722       6.78671010       0.14496415        1       0.00000000      -0.06927479       0.04266668      -0.45877808
Ni       9.15193728       6.75555771       0.02067414        0       1.00000000      -0.03682387      -0.01487863       0.29381169
Ni      11.74363511       6.75407944       0.00653033        0       1.00000000       0.12010289       0.08114197       0.34175471
Pt       1.32251993       0.70097887       2.09949449        2       0.00000000       0.00412637      -0.02606550       0.06622414
Ni       3.93799433       0.75466148       2.18983862        3       1.00000000       0.15488778       0.00561404       0.23457723
Ni       6.51843507       0.73201697       2.21441030        3       1.00000000       0.03397021      -0.00786536       0.21632859
Ni       9.08341559       0.71135088       2.15253539        3       1.00000000      -0.14321884      -0.10488226      -0.02890020
Ni       2.62627316       3.00189201       2.19150439        3       1.00000000       0.01114753       0.15419611       0.21869147
Ni       5.19454324       2.97139113       2.22154851        3       1.00000000      -0.00517539      -0.09797253       0.36469765
Pt       7.81515739       2.97201887       2.24088149        3       0.00000000      -0.01082544      -0.05442225       0.09251788
Pt      10.41441607       3.01991970       2.12089621        2       0.00000000       0.04259155       0.17763409       0.03582839
Pt       3.93655437       5.22234118       2.13111163        2       0.00000000       0.02010789      -0.07281323      -0.00211704
Ni       6.54178927       5.24989574       2.19209600        3       1.00000000       0.12183178      -0.06593816       0.23607853
Ni       9.10210426       5.27126010       2.21569114        3       1.00000000      -0.09844763       0.06528632       0.23061937
Pt      11.73831305       5.28254179       2.13567861        2       0.00000000       0.02096171       0.08338411       0.00757319
Ni       5.18786722       7.48906195       2.15305099        3       1.00000000      -0.15432884      -0.01535209       0.11156542
Ni       7.84471491       7.45318911       2.17307763        3       1.00000000       0.11620750      -0.15145566       0.15705505
Pt      10.40657470       7.51243249       2.09112613        2       0.00000000      -0.01808656      -0.00182359      -0.06313418
Ni      13.04888720       7.52601015       2.13655049        2       1.00000000      -0.03649494       0.12421981      -0.12302505
Pt      -0.05940842       1.53810504       4.33276942        4       0.00000000       0.00976078       0.10831307      -0.13453184
Pt       2.67257806       1.53818368       4.27822649        4       0.00000000       0.03421455       0.02568349      -0.17266122
Ni       5.23499734       1.49788375       4.33160049        4       1.00000000       0.03936833      -0.00656718      -0.44064814
Ni       7.80075312       1.48834689       4.35656788        5       1.00000000      -0.06022908      -0.06839832      -0.27691843
Pt       1.31144446       3.84268884       4.40623251        5       0.00000000      -0.02947346       0.04750549      -0.02994625
Ni       3.91725262       3.74663753       4.35034983        5       1.00000000       0.02699498       0.01081435      -0.28076932
Pt       6.54068841       3.72636169       4.33451818        4       0.00000000      -0.07175059       0.00216376      -0.01280132
Ni       9.11745004       3.80570257       4.39699458        5       1.00000000       0.05197514       0.15280282      -0.18118899
Ni       2.59167038       5.96783600       4.38858717        5       1.00000000       0.00965984       0.06606985      -0.13686862
Pt       5.19493433       5.94059342       4.29903158        4       0.00000000      -0.07158971      -0.01099733      -0.13426957
Ni       7.88704026       5.93463509       4.35290853        5       1.00000000       0.13154106      -0.10342114      -0.28700229
Ni      10.40303472       5.96749611       4.41694788        5       1.00000000      -0.05503515       0.05776882      -0.06690576
Pt       3.87185797       8.22187333       4.27843356        4       0.00000000       0.01262205       0.04117968      -0.19414603
Pt       6.54129025       8.18614329       4.28539044        4       0.00000000      -0.00504051       0.03950184      -0.15893668
Pt       9.14837146       8.15801593       4.32983167        4       0.00000000      -0.04594916      -0.05456981      -0.07867697
Pt      11.74558623       8.21998146       4.34192442        4       0.00000000      -0.03992339      -0.05802458      -0.07546183
Pt      -0.05002426      -0.01895919       6.64352160        7       0.00000000       0.07556034       0.02917279       0.24190486
Pt       2.63370781      -0.03913124       6.63922085        7       0.00000000      -0.03354573       0.02444010       0.34848550
Pt       5.26618312      -0.10997101       6.63082552        7       0.00000000      -0.04408134       0.02005877       0.19623142
Ni       7.80807284      -0.01444303       6.57973075        7       1.00000000       0.02266273       0.04356071      -0.20502974
Pt       1.29323551       2.32793625       6.63723965        7       0.00000000      -0.03773311      -0.03351504       0.26585564
Pt       3.91284862       2.26562196       6.50883800        6       0.00000000       0.16038662      -0.11692346       0.52258565
Pt       6.54601555       2.19930148       6.49293608        6       0.00000000      -0.08291922      -0.12399356       0.67994925
Pt       9.09952859       2.32214882       6.59170501        7       0.00000000      -0.01888959       0.22679466       0.10049434
Ni       2.56998110       4.51538019       6.55898765        7       1.00000000      -0.03420029       0.07640004      -0.14347582
Pt       5.19997743       4.48603385       6.59643758        7       0.00000000      -0.00989050      -0.02308244       0.29182621
Ni       7.87626132       4.50599597       6.47100995        6       1.00000000       0.10631543       0.06656348       0.02920156
Ni      10.41212745       4.55998773       6.55253714        7       1.00000000      -0.11111138       0.11304616      -0.34838224
Pt       3.78228243       6.71088331       6.60477768        7       0.00000000       0.00903986      -0.06034632      -0.00204528
Pt       6.59844080       6.66301917       6.51847182        6       0.00000000       0.02162773      -0.06698657       0.44109306
Ni       9.16815461       6.65972838       6.54701268        6       1.00000000       0.03930674      -0.12577829      -0.32086260
Ni      11.70506653       6.67831826       6.55643235        7       1.00000000      -0.13314004      -0.20296386      -0.36280966
