64
Lattice="10.709739432423117 -0.00041739355324768335 -0.003054104488880043 5.3545082427910735 9.267559506757117 -0.02028616951689658 0.0 0.0 21.93116319838653" Properties=species:S:1:pos:R:3:tags:I:1:initial_magmoms:R:1:forces:R:3 unique_id=c00d94be6c234160b90bcfec1b82af2f energy=-399.47758334521694 stress="0.004736789453914389 8.495790142050896e-05 1.1332714045273876e-05 8.495790142050896e-05 0.004745267086553906 1.992648145409292e-06 1.1332714045273876e-05 1.992648145409292e-06 -0.001342581908904409" pbc="T T T"
Pt       0.00716968       0.00752596       0.10394895        1       0.00000000       0.04831911       0.10642518      -0.47883148
Pt       2.70847894       0.04575049       0.12858408        1       0.00000000       0.06979836       0.02154883      -0.17911564
Pt       5.32328578       0.03200881       0.11875242        1       0.00000000      -0.01087170      -0.02131314      -0.08714554
Pt       8.02428634       0.00501618       0.10148740        1       0.00000000      -0.06815442       0.08942957      -0.29934946
Pt       1.34347329       2.35855626       0.11539199        1       0.00000000      -0.17720346       0.01381067      -0.21864117
Ni       4.01208672       2.31493780       0.05297193        1       1.00000000      -0.02568917       0.00693458       0.42377770
Pt       6.66569269       2.31828123       0.09902106        1       0.00000000       0.16324274       0.00103398      -0.12775804
Pt       9.40658693       2.36194976       0.11805606        1       0.00000000       0.06381113      -0.01306231      -0.25947400
Pt       2.65633790       4.60205463       0.00673393        0       0.00000000       0.00520680       0.01913026       0.13891929
Pt       5.32825018       4.59680569       0.09195666        1       0.00000000       0.06692979      -0.00126601      -0.32643833
Pt       8.08461754       4.63506874       0.11320816        1       0.00000000       0.00817765       0.02602111      -0.36394167
Ni      10.70710997       4.62759436       0.05518715        1       1.00000000       0.00545972      -0.02565970       0.38205246
Pt       4.00919807       6.93737868       0.00000000        0       0.00000000      -0.03879078      -0.06301979      -0.13460088
Pt       6.69995594       6.94747733       0.09255967        1       0.00000000       0.09669329      -0.02163498      -0.47084989
Pt       9.39375749       6.90872450       0.11513946        1       0.00000000      -0.03432546      -0.02009499      -0.19078091
Pt      12.02820022       6.90747702       0.08749354        1       0.00000000      -0.01914924       0.05142874      -0.31555707
Pt       1.35670692       0.80216348       2.36755193        3       0.00000000      -0.03447216       0.03702127       0.40938794
Ni       4.01910759       0.76954733       2.36975427        3       1.00000000       0.00356968       0.03104456       0.38050676
Pt       6.65692707       0.78890731       2.42822240        3       0.00000000       0.02292968       0.03583988       0.46465373
Pt       9.37104024       0.81552593       2.39316158        3       0.00000000      -0.02257636       0.03070171       0.42456621
Pt       2.68000605       3.05489479       2.34144713        2       0.00000000       0.05089649      -0.01715427       0.24090586
Pt       5.31743019       3.02771059       2.36632273        3       0.00000000      -0.14817274      -0.06409414       0.28759175
Pt       8.08196543       3.10439934       2.38255827        3       0.00000000      -0.00302039       0.01786797       0.32241527
Ni      10.70070632       3.11011198       2.33023095        2       1.00000000      -0.02925228       0.08750141       0.32991188
Pt       3.99379115       5.38831317       2.35895367        3       0.00000000      -0.13793561      -0.05769206       0.39436835
Pt       6.73586438       5.38840157       2.35794891        3       0.00000000       0.01562305      -0.04127384       0.45272631
Ni       9.38765578       5.38417956       2.32650686        2       1.00000000       0.06984381      -0.06349183       0.30468306
Pt      11.95638827       5.33777552       2.32133148        2       0.00000000      -0.18296175      -0.17907837       0.17618202
Pt       5.35918765       7.72364348       2.36274001        3       0.00000000      -0.01979162      -0.00654458       0.37281760
Pt       8.07911076       7.73876726       2.37245286        3       0.00000000       0.00829358       0.07157178       0.40178506
Pt      10.67112573       7.73177489       2.37613293        3       0.00000000       0.02323319       0.02876012       0.40843847
Pt      13.36444154       7.71076717       2.35771859        3       0.00000000      -0.11910996      -0.08102955       0.43444127
Pt      -0.01353525       1.55329448       4.62041092        4       0.00000000       0.09570391       0.01450276      -0.40518391
Pt       2.77572014       1.50103783       4.62756408        4       0.00000000       0.25653436      -0.05237348      -0.34712925
Ni       5.34640794       1.52132852       4.64815036        4       1.00000000      -0.01459652      -0.00555907      -0.34045947
Ni       8.01640689       1.53506119       4.65775777        5       1.00000000      -0.02090064       0.00191775      -0.42966795
Pt       1.32905353       3.86104159       4.66288800        5       0.00000000       0.00792694       0.10640793      -0.24613844
Pt       4.01585032       3.79330947       4.68603725        5       0.00000000      -0.04970801      -0.18441275      -0.15530771
Pt       6.69511392       3.77987336       4.62549402        4       0.00000000       0.04073236      -0.11093636      -0.42647642
Pt       9.37995707       3.84659854       4.59099282        4       0.00000000       0.13537695       0.08771677      -0.32154810
Pt       2.68356515       6.16021592       4.68692316        5       0.00000000       0.06588340      -0.03665891      -0.27104360
Pt       5.34590165       6.16336082       4.65002891        5       0.00000000      -0.00671285      -0.00812088      -0.35080789
Pt       8.05901302       6.18090039       4.59439016        4       0.00000000       0.00338568      -0.03606683      -0.40416213
Pt      10.69531363       6.18209134       4.60978613        4       0.00000000       0.04038086      -0.04936410      -0.33488562
Pt       3.98819388       8.50575309       4.63524640        4       0.00000000      -0.05503006      -0.02061650      -0.33461113
Pt       6.73418050       8.50084316       4.61282163        4       0.00000000       0.06001284       0.04710284      -0.36135337
Ni       9.38319078       8.50963957       4.62472433        4       1.00000000       0.07760512       0.02916842      -0.45987029
Pt      11.99261463       8.55574936       4.62144354        4       0.00000000      -0.07516606       0.06307466      -0.32081519
Pt      -0.00915925      -0.02858477       6.89285827        7       0.00000000       0.10144491       0.10430051       0.46500741
Pt       2.70009333       0.02283130       6.88638187        7       0.00000000       0.00353566      -0.05447247       0.30962492
Pt       5.32432027       0.02401041       6.85494579        7       0.00000000      -0.11715971      -0.08009873       0.20926826
Pt       8.03178434      -0.03163786       6.86967391        7       0.00000000      -0.09242972       0.09608439       0.38793432
Pt       1.38551583       2.37996390       6.89206059        7       0.00000000       0.09249346      -0.00109946       0.14274227
Ni       4.01143483       2.31390498       6.93054162        7       1.00000000      -0.02091768       0.02778493      -0.45530252
Pt       6.65070823       2.29647408       6.84934243        6       0.00000000       0.01285758      -0.06654680       0.23615345
Pt       9.38516965       2.32917991       6.87466411        7       0.00000000      -0.06464710      -0.12190739       0.22241282
Ni       2.67469433       4.61915874       6.88145427        7       1.00000000       0.01048205       0.01042939      -0.27318420
Pt       5.26449390       4.61183038       6.88765583        7       0.00000000      -0.03154308       0.06695661       0.37167617
Pt       8.05701657       4.62269025       6.88512752        7       0.00000000      -0.19226411       0.04468024       0.24297274
Ni      10.72203777       4.62112836       6.93116320        7       1.00000000       0.03136737       0.01303784      -0.51554728
Ni       4.00595512       6.92467713       6.87230477        7       1.00000000      -0.00617981      -0.01687796      -0.19422516
Pt       6.65885088       6.92993723       6.88434873        7       0.00000000       0.02814552      -0.06972690       0.51036314
Pt       9.39773850       6.92199001       6.87243021        7       0.00000000       0.00309456       0.21786526       0.23935164
Pt      12.08258434       6.86603494       6.88017872        7       0.00000000       0.02974083      -0.01585380       0.31256559
