64
Lattice="10.177176218939154 0.001694660004596654 -0.017945252807118957 5.090055728084337 8.790153311885483 -0.02246065565457213 -0.014652237560896246 -0.01271663593097809 8.714378578594756" Properties=species:S:1:pos:R:3:tags:I:1:initial_magmoms:R:1:forces:R:3 unique_id=19c4ea7fc9184154a2d9932e22394057 stress="-0.0009660292932551079 -1.8044488965503871e-06 5.4478932614258365e-06 -1.8044488965503871e-06 -0.000974547000793323 3.192488331009078e-06 5.4478932614258365e-06 3.192488331009078e-06 -0.000839294620119814" energy=-391.9975267245584 pbc="T T T"
Ni       0.03422961      -0.01412216       0.17127467        4       1.00000000       0.17283065      -0.05357208       0.22126221
Ni       2.52051834      -0.03174884       0.19296235        4       1.00000000      -0.03338560      -0.06642369       0.25254634
Ni       5.08560469      -0.02711365       0.07067812        4       1.00000000      -0.04911851      -0.01993558       0.07502130
Ni       7.63199365      -0.01478918       0.14000118        4       1.00000000       0.02174246       0.02091189       0.24360279
Ni       1.22984951       2.20288161       0.10315717        4       1.00000000      -0.09702822       0.01572784       0.22291014
Pt       3.75591755       2.20166929       0.17454539        4       0.00000000      -0.10765869      -0.03138404       0.30327451
Pt       6.41437889       2.21329852       0.07317711        4       0.00000000       0.05772656       0.08638925      -0.04889487
Ni       8.94815721       2.23666450       0.04826036        4       1.00000000       0.10986342       0.11125523       0.03005834
Ni       2.53594822       4.41738761       0.05216023        4       1.00000000      -0.01943822       0.03124720       0.02437580
Ni       5.07508081       4.43951820       0.05459002        4       1.00000000      -0.05886689       0.04255870       0.04793389
Ni       7.67091726       4.41927744       0.05563364        4       1.00000000       0.12375385       0.06920103       0.06931230
Ni      10.15687082       4.37753999       0.04086150        4       1.00000000      -0.09527594      -0.02425844       0.01569445
Ni       3.84316693       6.57230281       0.04938946        4       1.00000000       0.11599824      -0.06414374       0.01681792
Ni       6.35611486       6.60937148       0.05707369        4       1.00000000      -0.00174151       0.06521141      -0.04812292
Ni       8.87781363       6.57639008       0.12272886        4       1.00000000      -0.14129950      -0.07159561       0.19079521
Ni      11.44174617       6.58336852       0.00735085        4       1.00000000      -0.09923641      -0.04794920      -0.11318842
Ni       1.31535922       0.75278433       2.16314205        3       1.00000000       0.07122534       0.13813848       0.05648206
Ni       3.76342074       0.72873837       2.19612580        3       1.00000000      -0.15184104      -0.01904161       0.01455664
Ni       6.33382086       0.75253327       2.16578978        3       1.00000000       0.01472598       0.03558305      -0.05157526
Pt       8.96558768       0.79726574       2.11785672        3       0.00000000       0.06134992      -0.00538292       0.03260192
Ni       2.53216594       2.89932163       2.22468205        3       1.00000000       0.01597365      -0.06417712       0.13963868
Ni       5.06904395       2.94054559       2.20169307        3       1.00000000      -0.03841771       0.05306020      -0.02049229
Ni       7.66146789       2.96463650       2.16890507        3       1.00000000       0.08251423       0.11513981       0.03138372
Ni      10.17278586       2.92945805       2.14514869        3       1.00000000       0.00889687       0.03297170       0.05114691
Ni       3.83082611       5.08234154       2.17069681        3       1.00000000      -0.01124956      -0.11809392       0.01906880
Pt       6.36302359       5.15335793       2.12350779        3       0.00000000       0.00056308       0.04281016      -0.03087132
Ni       8.88721348       5.09364394       2.16395220        3       1.00000000       0.00324727      -0.05834816       0.07304599
Pt      11.43209407       5.05590674       2.12088029        3       0.00000000      -0.02317199      -0.05278584      -0.06212549
Ni       5.11898746       7.31700030       2.12229942        3       1.00000000      -0.00444083      -0.00194466      -0.06715606
Ni       7.61222218       7.34041659       2.13260869        3       1.00000000      -0.02289403      -0.02593060      -0.05023189
Pt      10.09802095       7.35187982       2.17018383        3       0.00000000      -0.05081801      -0.00623965       0.00777367
Pt      12.74279963       7.28985150       2.10501310        3       0.00000000       0.05411634      -0.06838813      -0.00768250
Ni       0.02090121       1.48436859       4.33918237        2       1.00000000       0.09106958      -0.05428964      -0.01055263
Ni       2.51459042       1.46558659       4.27824927        2       1.00000000       0.00501496      -0.02968210      -0.04471005
Pt       5.03308378       1.40679584       4.24661298        2       0.00000000      -0.10738473       0.02904810       0.05531233
Pt       7.67168119       1.50213416       4.31198266        2       0.00000000       0.03994479      -0.01063597       0.06174736
Pt       1.26192497       3.64437017       4.37290361        2       0.00000000      -0.00357578      -0.05028049      -0.00483252
Ni       3.79422542       3.71547515       4.28427014        2       1.00000000      -0.02128554       0.07531171      -0.16813780
Pt       6.34334367       3.73803848       4.35475924        2       0.00000000      -0.00860819       0.03778180      -0.04254970
Ni       8.91971464       3.70563149       4.32115311        2       1.00000000       0.02733925       0.14106355      -0.09042477
Ni       2.53173518       5.82121856       4.36468776        2       1.00000000      -0.04377737      -0.06226293      -0.08211477
Ni       5.05481215       5.83048593       4.34148259        2       1.00000000      -0.06316058       0.00183978      -0.10134250
Ni       7.67025579       5.84818346       4.30527378        2       1.00000000       0.16644948       0.00205985      -0.13393617
Ni      10.16800242       5.85271180       4.31116592        2       1.00000000       0.01172790      -0.06507390      -0.10503245
Pt       3.80435026       7.96489799       4.31739299        2       0.00000000      -0.02201048      -0.00158297       0.11424395
Pt       6.41452363       8.02268149       4.21948236        2       0.00000000       0.04325155      -0.01087626       0.07405071
Ni       8.91734176       8.01787182       4.29736630        2       1.00000000      -0.01021658      -0.12533394       0.04406326
Ni      11.40570048       7.99261393       4.31679808        2       1.00000000       0.00311989      -0.12833845      -0.02504413
Pt      -0.02169742       0.00939205       6.52890900        1       0.00000000      -0.02584398      -0.00261210       0.12573696
Pt       2.57026752      -0.00498778       6.49773324        1       0.00000000       0.01663159       0.02312588       0.15155668
Ni       5.08513717      -0.02643174       6.44286432        1       1.00000000      -0.07526496      -0.01851635      -0.20274960
Pt       7.53802818      -0.03732694       6.51671008        1       0.00000000      -0.09736452      -0.03472014       0.09880469
Ni       1.23091708       2.23318299       6.46480944        1       1.00000000      -0.02082512       0.02386939       0.01588084
Pt       3.80725745       2.29362481       6.39894600        1       0.00000000       0.02111357       0.21955471      -0.32163894
Ni       6.36321169       2.22516625       6.39103091        1       1.00000000      -0.01486855       0.08012342      -0.19983831
Ni       8.90830074       2.25918736       6.44708035        1       1.00000000       0.02350366       0.14496358      -0.14249330
Ni       2.52627412       4.44365636       6.44789699        1       1.00000000      -0.02064720       0.17090083      -0.08839910
Ni       5.08023297       4.44538007       6.44894915        1       1.00000000       0.00061509       0.18716673      -0.07097578
Ni       7.62553354       4.36894416       6.45161629        1       1.00000000       0.02025338      -0.06091504      -0.04728705
Ni      10.17882524       4.35951018       6.43945568        1       1.00000000       0.05128854      -0.08115368      -0.05489724
Ni       3.80439380       6.50704713       6.44632992        1       1.00000000      -0.00716522      -0.09291297      -0.10263068
Ni       6.32923669       6.52006494       6.43669214        1       1.00000000       0.02267069      -0.06384909      -0.19911177
Pt       8.93666926       6.50308755       6.43146937        1       0.00000000       0.05285364      -0.12720376       0.12296125
Ni      11.45621316       6.53562439       6.40591545        1       1.00000000       0.03650602      -0.17718052      -0.26462131
