64
Lattice="10.255035290621052 -0.01427510382169708 -0.016436781256955867 5.115155042759276 8.861514004409454 -0.02441797115887457 0.0 0.0 21.639986394139775" Properties=species:S:1:pos:R:3:tags:I:1:initial_magmoms:R:1:forces:R:3 unique_id=581758aa06204c549aa6a24c09f5e048 energy=-372.2830182658259 stress="0.004143976337912881 -0.00012062412869279621 -0.0001504623389245689 -0.00012062412869279621 0.004038962677836591 -0.00026899725781946216 -0.0001504623389245689 -0.00026899725781946216 -0.00255271457028213" pbc="T T T"
Ni       0.04928516       0.04386955       0.19184703        2       1.00000000       0.18483309       0.09366057      -0.55110307
Ni       2.57976759       0.03180238       0.23686944        2       1.00000000       0.00185166      -0.01636155      -0.20715730
Ni       5.07320890      -0.02102286       0.09911575        1       1.00000000      -0.04959363       0.08568689       0.18136543
Pt       7.70395709      -0.05529653       0.00365013        0       0.00000000      -0.07418674       0.15214119      -0.54691387
Ni       1.28201480       2.22654241       0.13794174        1       1.00000000       0.03221568       0.05757903       0.42657280
Ni       3.79621785       2.21767759       0.23226183        2       1.00000000      -0.00916426       0.05908556      -0.11459889
Pt       6.37546759       2.31115266       0.18445150        2       0.00000000       0.00088035       0.07696420      -1.09543096
Ni       9.02080218       2.26053011       0.08829771        1       1.00000000      -0.04269004       0.06654171       0.18477916
Ni       2.56598381       4.40366034       0.09469007        1       1.00000000       0.00039563      -0.12984344       0.28456010
Ni       5.06110118       4.43211441       0.09799066        1       1.00000000      -0.16462847       0.02516860       0.20580083
Ni       7.75115594       4.42036352       0.09005169        1       1.00000000       0.19791562       0.03714469       0.11116696
Ni      10.23689873       4.39382329       0.07519316        1       1.00000000      -0.02517837       0.00328284       0.22641016
Ni       3.82369314       6.58392983       0.06518484        1       1.00000000      -0.05063873      -0.11401206       0.06396081
Pt       6.44163996       6.63773837       0.00000000        0       0.00000000       0.18369561       0.10584393      -0.41067294
Ni       8.97412382       6.61898753       0.14783584        1       1.00000000      -0.06920633      -0.14022931      -0.14293609
Ni      11.50462619       6.59083501       0.04576101        0       1.00000000      -0.05513111      -0.08019952       0.11473891
Ni       1.33313416       0.78088392       2.19515636        3       1.00000000       0.05100843       0.09236481      -0.00244859
Ni       3.78358948       0.74731261       2.19971936        3       1.00000000       0.01609040       0.00732318       0.15699029
Pt       6.35339103       0.74782426       2.24671453        3       0.00000000      -0.06628680       0.03978123       0.14640918
Pt       9.05107292       0.82927040       2.20266382        3       0.00000000       0.02175239      -0.01102260       0.06681312
Ni       2.57143229       2.93021534       2.19851607        3       1.00000000      -0.06621217       0.01026363       0.04335025
Ni       5.03335390       2.97675973       2.24685808        3       1.00000000      -0.13164727       0.00992003       0.22682765
Ni       7.74498333       2.98941684       2.23458424        3       1.00000000       0.15324135       0.04110539       0.15412617
Ni      10.25610629       2.95265951       2.20442016        3       1.00000000       0.05130361      -0.01260590       0.05805038
Ni       3.83880498       5.09174467       2.23039142        3       1.00000000      -0.00886594      -0.12123003       0.05232509
Pt       6.43784044       5.11378483       2.20905401        3       0.00000000       0.03299077      -0.11669232       0.03335430
Ni       8.95623726       5.11135053       2.22600794        3       1.00000000       0.02542331      -0.10866216       0.08324616
Pt      11.50826540       5.05761099       2.16617032        3       0.00000000      -0.02841513      -0.08678572      -0.04337916
Pt       5.14518809       7.36479112       2.19512674        3       0.00000000      -0.00264887      -0.06535741      -0.03567474
Ni       7.68672561       7.39524489       2.21774690        3       1.00000000      -0.04731781      -0.02522864       0.13951188
Pt      10.13616972       7.34712712       2.23567254        3       0.00000000      -0.09387455      -0.06128548       0.10787701
Pt      12.79218514       7.29880147       2.21889197        3       0.00000000       0.00585199      -0.10172316       0.05043409
Ni       0.00166968       1.50291151       4.43019722        5       1.00000000       0.02561928      -0.02307027      -0.07794586
Pt       2.51400463       1.49230033       4.31941200        4       0.00000000      -0.00773312       0.00322284      -0.08081958
Pt       5.07985867       1.42486489       4.40130049        5       0.00000000      -0.07934275      -0.05713159      -0.01266129
Pt       7.76791176       1.49931880       4.41649342        5       0.00000000       0.08144920       0.04820270      -0.01008815
Pt       1.22961119       3.73825558       4.46912050        6       0.00000000      -0.03152379       0.03186328       0.03962604
Ni       3.82310669       3.75237871       4.39005709        5       1.00000000      -0.07050305       0.02784356      -0.09267216
Pt       6.39678111       3.76483611       4.41814645        5       0.00000000      -0.02915884       0.13316356      -0.07389103
Ni       8.97706843       3.72744175       4.40680353        5       1.00000000      -0.02448080       0.18508114      -0.06631765
Ni       2.54008084       5.87110539       4.45326573        6       1.00000000      -0.09724045      -0.07272447      -0.04342108
Ni       5.06814354       5.86238899       4.43710401        5       1.00000000      -0.07876460      -0.07013413      -0.14174630
Ni       7.73727270       5.88216409       4.38797226        5       1.00000000       0.21593813      -0.05552361      -0.22628375
Ni      10.23318619       5.89956608       4.39667651        5       1.00000000      -0.02956276       0.00365167      -0.12916925
Pt       3.79180409       8.02375438       4.44859669        5       0.00000000       0.01611492      -0.01439873      -0.02789793
Pt       6.43951600       8.03741172       4.37077401        5       0.00000000       0.09839336      -0.05961178      -0.06038712
Ni       8.97940537       8.05674030       4.38605899        5       1.00000000      -0.01039641      -0.04034389      -0.08434635
Ni      11.47917543       8.03849519       4.43898418        5       1.00000000      -0.12185954      -0.09282509      -0.03373180
Pt      -0.06354479       0.02213140       6.63704898        9       0.00000000      -0.07457715       0.01804435       0.28917271
Pt       2.58233200      -0.02625473       6.63998639        9       0.00000000       0.05936840      -0.09698517       0.20419138
Ni       5.15919957      -0.05957243       6.55481754        9       1.00000000       0.04288971      -0.00846222      -0.09144769
Ni       7.63882070      -0.07024418       6.45956767        8       1.00000000      -0.09027617      -0.04358334       0.56214214
Ni       1.22614498       2.25086032       6.57993119        9       1.00000000       0.01421618      -0.02597927      -0.11829875
Pt       3.79244854       2.31204383       6.63218527        9       0.00000000       0.10471796       0.25955985       0.14687470
Pt       6.44980346       2.21364401       6.56179454        9       0.00000000      -0.04267870       0.09867005       1.28457981
Ni       9.00380068       2.25261616       6.55863621        9       1.00000000       0.04891448       0.13850192      -0.09223607
Ni       2.53413281       4.48715119       6.55912339        9       1.00000000       0.01316042       0.11197247      -0.22008269
Ni       5.09556807       4.49496798       6.55027012        9       1.00000000      -0.05705475      -0.02578859      -0.16079659
Ni       7.69968153       4.42738481       6.55161952        9       1.00000000       0.08272719      -0.05539077      -0.14716033
Ni      10.24897302       4.38973875       6.55103199        9       1.00000000      -0.01728837       0.05074196      -0.15486577
Ni       3.80118759       6.57630635       6.54701149        8       1.00000000       0.00235381      -0.01279834      -0.20377262
Ni       6.36360804       6.56800492       6.43610350        7       1.00000000       0.05047868      -0.06572230       0.30068333
Pt       9.01146918       6.55361583       6.52912658        8       0.00000000      -0.01942920       0.01390112      -0.08609162
Ni      11.55244869       6.61540112       6.50951587        8       1.00000000       0.05176504      -0.07656509      -0.35949381
