64
Lattice="10.31185961520061 -0.01984453108087297 0.06261235358651232 5.13874393955808 8.843938339420843 0.029819500080583226 0.0 0.0 21.58219967168271" Properties=species:S:1:pos:R:3:tags:I:1:initial_magmoms:R:1:forces:R:3 unique_id=a0c3fb6bf6e84a59a734f289f6c6aba0 energy=-375.3091419907885 stress="0.0057658468511283725 -1.12372709996492e-05 0.0004047480330280679 -1.12372709996492e-05 0.005496166550758288 0.00016559922131568095 0.0004047480330280679 0.00016559922131568095 -0.0018570097548770374" pbc="T T T"
Ni       0.01626443       0.00610350       0.11405840        1       1.00000000       0.11599371       0.05321176      -0.10361257
Ni       2.58239286       0.00635326       0.15270635        2       1.00000000      -0.02256335       0.04801216       0.04178396
Ni       5.15539312      -0.03047825       0.12305872        1       1.00000000      -0.04830699       0.11276150      -0.41329946
Ni       7.73614810      -0.07206282       0.17115884        2       1.00000000      -0.06231692      -0.05964791      -0.18451721
Ni       1.29515935       2.21813027       0.05195764        1       1.00000000       0.01421582      -0.01215106       0.38426051
Pt       3.77896866       2.16906271       0.13964537        1       0.00000000       0.05257575       0.02888239      -0.30080782
Pt       6.44470457       2.12060566       0.07940082        1       0.00000000       0.06628513      -0.03976240      -0.11403476
Pt       9.11934016       2.19850012       0.10848786        1       0.00000000       0.00691957       0.07110960      -0.56229709
Ni       2.52668569       4.44663120       0.00680722        0       1.00000000      -0.02582268      -0.02711446       0.18534317
Pt       5.09989596       4.45038918       0.00000000        0       0.00000000       0.12327852      -0.04768747      -0.37445012
Pt       7.78281085       4.45781634       0.01676029        0       0.00000000      -0.07889164       0.00519886      -0.29820770
Ni      10.36644166       4.43877415       0.05692512        1       1.00000000       0.07723623       0.01641123       0.20024635
Ni       3.80468583       6.67671882       0.04662178        0       1.00000000      -0.01668037       0.09623320       0.27023570
Pt       6.44056502       6.73357377       0.16741346        2       0.00000000       0.00963209      -0.02230600      -0.55593323
Ni       9.05608013       6.66157132       0.05851268        1       1.00000000      -0.02967268       0.06490943       0.10719910
Ni      11.61056972       6.62325606       0.06712959        1       1.00000000       0.09639334       0.03756777       0.25724196
Ni       1.33332415       0.74681868       2.17606859        4       1.00000000       0.06921058       0.07884211       0.23547395
Ni       3.84531803       0.75241561       2.21087979        4       1.00000000      -0.08148176       0.14868021       0.28819285
Ni       6.44852749       0.75231636       2.22050066        4       1.00000000      -0.03756182       0.17213972       0.27848076
Pt       9.04828031       0.72323693       2.23805543        4       0.00000000       0.03438234       0.18985211       0.01548942
Ni       2.55666992       2.89593575       2.22645915        4       1.00000000      -0.06528446      -0.14620818       0.31422899
Ni       5.16186265       2.90334925       2.23448880        4       1.00000000      -0.05169738      -0.09005905       0.20866148
Ni       7.72025931       2.91644290       2.23679308        4       1.00000000      -0.01434194      -0.03934837       0.10741672
Ni      10.36208257       2.90299931       2.26045735        5       1.00000000       0.10451549      -0.11991031       0.26289248
Pt       3.86818650       5.15330384       2.19784089        4       0.00000000       0.02791971      -0.12704389      -0.13542026
Ni       6.45207260       5.14737891       2.21171215        4       1.00000000       0.00981605      -0.10582145       0.06952242
Pt       8.98679065       5.12095375       2.28448189        5       0.00000000      -0.11074769      -0.12866577      -0.02018016
Pt      11.60670324       5.09030682       2.23165372        4       0.00000000      -0.04858984      -0.10975962       0.12188651
Ni       5.17580717       7.39452096       2.19843558        4       1.00000000       0.07797440       0.04135209       0.20116921
Ni       7.70236077       7.40613579       2.22686764        4       1.00000000      -0.11624813       0.08558732       0.24990839
Pt      10.30671189       7.40296040       2.13738370        3       0.00000000       0.00052109       0.01731711      -0.06674159
Ni      12.89914924       7.35446813       2.19354568        4       1.00000000       0.02747758      -0.02638064       0.04226559
Ni       0.08270268       1.52684560       4.28184913        6       1.00000000       0.19699821       0.07231576      -0.18398502
Ni       2.56016108       1.51315259       4.28091094        6       1.00000000      -0.09645039       0.04027560      -0.21454389
Ni       5.16500171       1.48216037       4.30045360        6       1.00000000      -0.12487235      -0.07219312      -0.33579650
Ni       7.75759650       1.48139575       4.33974600        6       1.00000000       0.02512346      -0.09605919      -0.24391032
Ni       1.30635522       3.67138579       4.35058773        7       1.00000000      -0.00375468      -0.06638413      -0.03796448
Ni       3.83322424       3.67100232       4.30469882        6       1.00000000      -0.17245100      -0.13343578      -0.25860531
Pt       6.49557098       3.62407707       4.32760090        6       0.00000000       0.01647272      -0.04539049      -0.20235165
Ni       9.08292182       3.69188739       4.34814081        6       1.00000000       0.18032733      -0.08895778      -0.17060938
Ni       2.55646183       5.84028834       4.38166391        7       1.00000000      -0.09793292      -0.17141550       0.04285401
Pt       5.16888806       5.86285127       4.32143387        6       0.00000000       0.09444266      -0.05033154       0.02728177
Ni       7.77996494       5.86294073       4.35886924        7       1.00000000      -0.02470276      -0.03131493      -0.09299514
Ni      10.32689110       5.82429506       4.43732443        7       1.00000000       0.01592232      -0.07104341       0.06983019
Pt       3.90741610       8.10926620       4.31029762        6       0.00000000      -0.00345044       0.05403880       0.05022707
Ni       6.46135204       8.13804439       4.29455881        6       1.00000000      -0.04648841       0.13398909      -0.27811805
Pt       8.96407329       8.09317752       4.31668733        6       0.00000000      -0.06257989       0.08090948       0.06339231
Pt      11.61052000       8.06908934       4.33116780        6       0.00000000      -0.05357788      -0.05715575       0.00835512
Pt       0.04245388       0.00941062       6.49471032        9       0.00000000       0.09063249       0.04271405       0.32130840
Pt       2.60065848       0.01238850       6.51611210        9       0.00000000      -0.04498838       0.08086709       0.23104328
Pt       5.18583643      -0.05306966       6.54805535        9       0.00000000      -0.01557041       0.17567562       0.35464066
Pt       7.75526475      -0.05849404       6.58219967       10       0.00000000      -0.07144613       0.14914047       0.36335698
Ni       1.31644744       2.27774068       6.44152792        8       1.00000000      -0.01548589       0.20308596      -0.35115226
Pt       3.88129023       2.30147545       6.38666585        8       0.00000000      -0.00620845       0.00463793       0.28689532
Ni       6.47491491       2.22449746       6.42866442        8       1.00000000      -0.01464308      -0.07244714       0.15011795
Pt       9.06471453       2.29185834       6.39735494        8       0.00000000       0.01971553      -0.00559436       0.47764747
Ni       2.56395878       4.45035574       6.45084625        9       1.00000000      -0.05513437      -0.01892666      -0.42014086
Ni       5.16630466       4.40640825       6.41047293        8       1.00000000      -0.04310829      -0.01753128       0.22707241
Ni       7.78164095       4.41224601       6.40731074        8       1.00000000       0.10625936       0.02935126       0.10178126
Ni      10.36927038       4.44055345       6.49402696        9       1.00000000       0.04667036      -0.02360051      -0.42930777
Ni       3.84753858       6.56104975       6.49353626        9       1.00000000      -0.05862421      -0.14106655      -0.20775285
Pt       6.49893515       6.53997738       6.45894758        9       0.00000000       0.08674096       0.07678131       0.56257968
Ni       9.07955380       6.54227652       6.50510111        9       1.00000000       0.03992146      -0.13967929      -0.28629367
Ni      11.61831052       6.53134220       6.53105867        9       1.00000000      -0.01189667      -0.00745699      -0.33725428
