64
Lattice="10.174982191385622 -0.023330694172248995 0.03341553271608242 5.067286121851721 8.81151666165976 -0.023130115550637105 0.027283668212559765 -0.03755951526098021 8.739102137852258" Properties=species:S:1:pos:R:3:tags:I:1:initial_magmoms:R:1:forces:R:3 unique_id=e6c05e033447480bba98c744f74aebee stress="-6.127131587699286e-05 6.7519469373897105e-06 -2.939035019757584e-05 6.7519469373897105e-06 -6.425316269115244e-05 -1.6791900204548818e-06 -2.939035019757584e-05 -1.6791900204548818e-06 -2.2649321960437063e-05" energy=-393.1758337580874 pbc="T T T"
Ni       0.03295828       0.03740690       0.08576621        4       1.00000000       0.14749351       0.06652402       0.12419411
Ni       2.50277385      -0.00590971       0.18508948        4       1.00000000      -0.01842707      -0.04964921       0.50248560
Pt       5.08087634      -0.02860754       0.04428783        4       0.00000000      -0.04054020       0.02548822      -0.15019734
Pt       7.72510887       0.04073267       0.10496803        4       0.00000000       0.12621659      -0.02300992      -0.17168946
Ni       1.22449656       2.14528301       0.08620829        4       1.00000000      -0.03809817      -0.06969314       0.21543939
Pt       3.83742753       2.21384331       0.02564587        4       0.00000000       0.04017605      -0.04528711      -0.07499472
Ni       6.40100342       2.24745839       0.11026973        4       1.00000000       0.12127750       0.04043544       0.25328154
Ni       8.89981944       2.18147579       0.11862444        4       1.00000000       0.01823145      -0.01396946       0.23388248
Pt       2.57832659       4.43752790       0.10668880        4       0.00000000       0.06879720      -0.05053754       0.14684370
Ni       5.12775036       4.38526661       0.09831480        4       1.00000000       0.10297041      -0.08782035       0.21566269
Ni       7.58777875       4.34495892       0.10998103        4       1.00000000      -0.04256207      -0.14265684       0.21473058
Pt      10.07905688       4.31881281       0.10890865        4       0.00000000      -0.02814006      -0.05008060      -0.11789931
Ni       3.82823201       6.62060494       0.05623514        4       1.00000000       0.07246629       0.08189269       0.09802416
Pt       6.34334215       6.55677210       0.11335084        4       0.00000000       0.06899565      -0.05522335       0.34415449
Ni       8.87007724       6.57360497       0.15163336        4       1.00000000      -0.00003848      -0.11174845       0.30282933
Pt      11.43543268       6.58608510       0.10601165        4       0.00000000      -0.00515369       0.00417502      -0.05909030
Ni       1.22539036       0.74003423       2.17317545        3       1.00000000      -0.06612838       0.07640542       0.13022474
Pt       3.87154044       0.70574029       2.25318877        3       0.00000000       0.15355169      -0.04365266      -0.10741327
Ni       6.42893199       0.72530280       2.24419909        3       1.00000000       0.18306571       0.01641533       0.01402968
Ni       8.88615620       0.76029579       2.24603140        3       1.00000000      -0.14648065       0.16171112       0.09118712
Pt       2.48904621       2.97981738       2.26331161        3       0.00000000      -0.03819749       0.14497057      -0.18253133
Ni       5.15306542       2.96140937       2.20879119        3       1.00000000       0.09737859       0.02701097       0.06287130
Ni       7.63656247       2.91701667       2.21829188        3       1.00000000       0.04020678      -0.02756897       0.14709133
Ni      10.11824251       2.90251166       2.23876652        3       1.00000000      -0.15857473       0.04638722       0.11355082
Ni       3.81737890       5.13733389       2.20707594        3       1.00000000      -0.07391890       0.01350005      -0.07995409
Ni       6.37198875       5.03839503       2.21327395        3       1.00000000       0.09369894      -0.14253176       0.09652606
Ni       8.89977501       5.06867912       2.25731555        3       1.00000000       0.00572993      -0.19648316       0.18300510
Ni      11.40687299       5.14673098       2.29408543        3       1.00000000      -0.09551290       0.03265990       0.06800135
Pt       4.98744791       7.38888429       2.21286111        3       0.00000000      -0.05746661       0.15567116      -0.02802906
Pt       7.66185319       7.25349610       2.28372311        3       0.00000000      -0.05541469      -0.11421032       0.13753318
Ni      10.21146772       7.27876575       2.27183003        3       1.00000000       0.07533342      -0.02295158       0.20173306
Ni      12.67159415       7.31557492       2.26920241        3       1.00000000      -0.13413451       0.05226673       0.14305950
Pt      -0.07850775       1.46877769       4.34562777        2       0.00000000      -0.04533719       0.03183826       0.01846117
Pt       2.52553189       1.47530415       4.37906571        2       0.00000000      -0.08490141      -0.05589124       0.23275744
Pt       5.20641285       1.45759389       4.38930719        2       0.00000000       0.10430431       0.06831182      -0.07750434
Ni       7.64452549       1.44047537       4.37184871        2       1.00000000       0.02901722       0.06829276      -0.09118765
Ni       1.21675089       3.71665975       4.31841399        2       1.00000000      -0.22661198       0.13377088      -0.10945850
Ni       3.84528923       3.65559381       4.32802727        2       1.00000000       0.04896397      -0.08805143      -0.13713483
Ni       6.41922528       3.64848885       4.35492937        2       1.00000000       0.18388740       0.02827692      -0.09053593
Ni       8.87986288       3.66682057       4.35882295        2       1.00000000      -0.09155101       0.02707815      -0.11145364
Ni       2.49709557       5.89125022       4.28780569        2       1.00000000      -0.09241200       0.01179935      -0.23848860
Pt       5.03672306       5.79370081       4.29331423        2       0.00000000       0.05060041       0.00253424       0.10557792
Ni       7.66944429       5.79017702       4.32947596        2       1.00000000       0.04734773      -0.21612781       0.06791837
Ni      10.19809733       5.82465625       4.31449786        2       1.00000000      -0.02121036      -0.00384269      -0.12426363
Ni       3.74994634       8.05830373       4.35260565        2       1.00000000      -0.14659822      -0.01636557      -0.01052190
Ni       6.33781251       8.05397104       4.33791300        2       1.00000000      -0.11795754       0.03092377       0.10223882
Ni       8.93934068       7.99925194       4.34868966        2       1.00000000       0.13623048      -0.05368262       0.09801408
Ni      11.47288158       8.00942227       4.34586935        2       1.00000000       0.02657643      -0.01445821      -0.17964417
Ni      -0.03941580      -0.00386620       6.47254560        1       1.00000000      -0.19158880       0.02933319      -0.10839486
Pt       2.56057864       0.01860479       6.53291678        1       0.00000000       0.02526106       0.13567097       0.25232956
Ni       5.16264180      -0.03040146       6.39101041        1       1.00000000       0.17157781      -0.03793326      -0.33583731
Ni       7.65150893      -0.03452544       6.39322642        1       1.00000000      -0.07028134       0.10999361      -0.27219138
Ni       1.23392341       2.19903902       6.48635127        1       1.00000000      -0.21492481       0.09301362      -0.00652317
Ni       3.87587986       2.20809791       6.39984608        1       1.00000000       0.13396536       0.12839133      -0.24531610
Ni       6.40873528       2.18186549       6.49075149        1       1.00000000       0.15069818       0.04024177      -0.00605956
Ni       8.88689318       2.16961431       6.49808460        1       1.00000000      -0.18064828       0.05658405      -0.02308860
Pt       2.54723825       4.39702409       6.34480533        1       0.00000000      -0.03817444       0.07576056      -0.40374806
Ni       5.10974129       4.32448684       6.46343863        1       1.00000000       0.05477532      -0.12582926      -0.15408631
Ni       7.64381646       4.30328053       6.45562500        1       1.00000000       0.01881205      -0.10467655      -0.15949239
Ni      10.17032148       4.32112534       6.38467286        1       1.00000000      -0.08039267      -0.11520899      -0.30157343
Ni       3.77994671       6.62361299       6.44118962        1       1.00000000      -0.12250721       0.15343782      -0.20705921
Pt       6.32173244       6.54003951       6.39811620        1       0.00000000      -0.11256146      -0.10498580      -0.31829708
Pt       8.98668646       6.51817384       6.44385290        1       0.00000000       0.12636990      -0.10826329       0.07729869
Ni      11.48595636       6.59917812       6.37302572        1       1.00000000       0.11246999       0.12162416      -0.31127786
