64
Lattice="10.234499048675396 -0.0073901509373982995 -0.00927113174491535 5.1108494658881085 8.823482154456272 0.000910841084632076 -0.007569847371053875 0.005229202627437934 8.730269070698617" Properties=species:S:1:pos:R:3:tags:I:1:initial_magmoms:R:1:forces:R:3 unique_id=b2ad93b5a5f64ef984eb54e0ab319764 stress="0.00014951860808691542 1.8047312501790868e-06 -1.141719263215695e-06 1.8047312501790868e-06 0.00015307041935901794 -1.3719776093446568e-05 -1.141719263215695e-06 -1.3719776093446568e-05 0.00015027990094529375" energy=-394.4626159456031 pbc="T T T"
Ni       0.00261211       0.02426702       0.18616775        4       1.00000000      -0.00065570       0.08873628       0.23670838
Ni       2.55251909       0.00481491       0.21737145        4       1.00000000      -0.00170940       0.02241125       0.35650676
Ni       5.11560018      -0.01951805       0.15837379        4       1.00000000      -0.04382886       0.06867730       0.23712175
Ni       7.67850102      -0.05318111       0.17076667        4       1.00000000      -0.04665419      -0.14339291       0.32681157
Ni       1.24251364       2.21615076       0.11218561        4       1.00000000      -0.11550060       0.06433587       0.17350676
Pt       3.77342577       2.22228474       0.18584734        4       0.00000000      -0.09288667       0.03910115       0.20703004
Pt       6.41774557       2.15422214       0.10422401        4       0.00000000       0.06182779      -0.03811815      -0.00351436
Ni       9.00173280       2.20301187       0.13973232        4       1.00000000       0.09932051       0.05776738       0.12047538
Ni       2.54935480       4.44251635       0.07454738        4       1.00000000      -0.00164372       0.08633517       0.01440817
Ni       5.07811736       4.43549300       0.10332182        4       1.00000000      -0.03380484       0.02384521       0.21208289
Pt       7.73851143       4.41997155       0.09562036        4       0.00000000       0.09857053       0.02328708      -0.09536241
Ni      10.27031654       4.39704778       0.07440329        4       1.00000000       0.11410609      -0.01265487       0.06040149
Ni       3.79661294       6.61107083       0.10744274        4       1.00000000      -0.10900576      -0.01762262       0.16607107
Pt       6.34953194       6.66179010       0.10382320        4       0.00000000      -0.09685450       0.03655951      -0.16543332
Ni       8.97107132       6.63094398       0.15697216        4       1.00000000      -0.03049302       0.03709735       0.18597358
Ni      11.53359238       6.60939175       0.06039763        4       1.00000000       0.07399652      -0.03457983      -0.04980299
Ni       1.28801181       0.76269371       2.14698695        3       1.00000000      -0.02132664       0.13163941      -0.03215406
Ni       3.83348740       0.74421329       2.19758610        3       1.00000000       0.08131086       0.05112083       0.05807779
Ni       6.38489268       0.74875082       2.23560530        3       1.00000000      -0.00650130       0.08172048       0.21333874
Pt       8.95336688       0.77202520       2.16610408        3       0.00000000      -0.03201092       0.11765879       0.10882466
Ni       2.54114340       2.95583148       2.20462421        3       1.00000000      -0.00593285       0.08295274      -0.05971442
Ni       5.10797154       2.95540970       2.23061666        3       1.00000000      -0.07819597      -0.00084001      -0.00193451
Ni       7.68637844       2.95532027       2.22456639        3       1.00000000       0.08509959       0.08093923      -0.01047595
Ni      10.23270940       2.93877754       2.19241067        3       1.00000000       0.02746327       0.05691435       0.09649478
Ni       3.84900705       5.13419547       2.16476796        3       1.00000000       0.00944725      -0.07597430      -0.10599455
Ni       6.38708594       5.13911625       2.20007598        3       1.00000000       0.03470237       0.00883306      -0.07225683
Ni       8.93747436       5.12133233       2.23446642        3       1.00000000       0.03036175      -0.04502075       0.15838915
Pt      11.53738867       5.09243518       2.19585637        3       0.00000000       0.05004472      -0.04787685       0.02595357
Ni       5.08784417       7.33105611       2.17000790        3       1.00000000      -0.14126887      -0.08716027      -0.08024378
Ni       7.65884026       7.33872410       2.17473886        3       1.00000000       0.03110592      -0.14124902      -0.00140464
Pt      10.25605063       7.35762996       2.14481811        3       0.00000000       0.09809601      -0.04322133       0.08459062
Ni      12.80120715       7.32765947       2.15692250        3       1.00000000       0.04994445      -0.13078815      -0.02640278
Ni      -0.02188755       1.54086840       4.32237523        2       1.00000000      -0.05808189       0.11872018      -0.04504445
Pt       2.52250655       1.57010943       4.24293397        2       0.00000000       0.01128650       0.05114870       0.10239697
Ni       5.15258082       1.47362209       4.28763780        2       1.00000000      -0.01933722      -0.04451180      -0.12675853
Ni       7.65844646       1.47571321       4.31065413        2       1.00000000       0.02983005      -0.06641975      -0.04322929
Ni       1.24555568       3.71815023       4.37113133        2       1.00000000      -0.05277801       0.01371021      -0.01513516
Ni       3.80006082       3.71457209       4.29153702        2       1.00000000      -0.14407239      -0.00734001      -0.24288523
Pt       6.42732617       3.62704235       4.30085848        2       0.00000000       0.00312719      -0.02646711      -0.11281185
Ni       8.98958902       3.70190340       4.29496603        2       1.00000000       0.11348076       0.03953228      -0.20685533
Ni       2.49939729       5.84515823       4.37374682        2       1.00000000      -0.10769949      -0.06581026      -0.03822592
Pt       5.06218554       5.81926201       4.32279364        2       0.00000000      -0.02743008      -0.02120346      -0.14554201
Ni       7.70124728       5.83035078       4.30403070        2       1.00000000       0.07340690      -0.06469036      -0.22620706
Ni      10.25831985       5.82169742       4.34465631        2       1.00000000       0.01021796      -0.04270740      -0.06674336
Pt       3.74514537       8.07345648       4.28452598        2       0.00000000      -0.10498830      -0.06928551       0.14260710
Pt       6.38226728       8.07413027       4.23748637        2       0.00000000      -0.08060409       0.04688975      -0.02341356
Pt       8.99223593       8.06394108       4.27525406        2       0.00000000      -0.02660463      -0.06905225       0.10359305
Ni      11.50580321       8.06589034       4.30478911        2       1.00000000      -0.02930851      -0.06514839      -0.05273041
Pt      -0.01145329      -0.02493160       6.53412367        1       0.00000000       0.09248974      -0.08579689       0.09678349
Pt       2.54228625       0.00394067       6.55370561        1       0.00000000      -0.08943136       0.01519779       0.21788110
Pt       5.13661892       0.00089333       6.49364740        1       0.00000000       0.08904108      -0.02036335       0.05842418
Pt       7.65440094      -0.04267559       6.51110620        1       0.00000000      -0.05338900      -0.07802370       0.14394316
Ni       1.26544352       2.27764994       6.46384911        1       1.00000000       0.04424254       0.10678541      -0.14246645
Pt       3.84828778       2.33651603       6.41211304        1       0.00000000       0.01638735       0.21543691      -0.28914319
Ni       6.39786919       2.24292778       6.39342211        1       1.00000000       0.02981636       0.01770449      -0.20490314
Pt       8.95632508       2.30395516       6.44097401        1       0.00000000       0.02027920       0.10082529      -0.01328409
Ni       2.52184902       4.46041982       6.44876561        1       1.00000000      -0.02716871       0.07762739      -0.20578396
Ni       5.11736232       4.45061476       6.48122592        1       1.00000000       0.06378509       0.11912192      -0.05355816
Ni       7.63062076       4.40965669       6.38318387        1       1.00000000      -0.14809606      -0.02249937      -0.25126219
Ni      10.28999570       4.40370319       6.43424749        1       1.00000000       0.24466285      -0.03644421      -0.19551872
Ni       3.80375028       6.54585171       6.48542077        1       1.00000000      -0.06576412      -0.17068934      -0.05997161
Ni       6.36668717       6.55909830       6.40350778        1       1.00000000       0.03479041      -0.06448113      -0.29724795
Pt       8.96138911       6.48049195       6.48684842        1       0.00000000       0.04040751      -0.16662678       0.07631837
Ni      11.53325480       6.54620913       6.44258410        1       1.00000000       0.03037853      -0.07657264      -0.22129840
