2
Lattice="15.0 0.0 0.0 0.0 15.0 0.0 0.0 0.0 15.0" Properties=species:S:1:pos:R:3:initial_magmoms:R:1:forces:R:3 energy=-9.80252456665039 free_energy=-9.80252456665039 stress="0.0 0.0 0.0 0.0 0.0 0.0 0.0 0.0 4.226812682114172e-06" pbc="T T T"
O        7.50000000       7.50000000       6.88169356       0.00000000      -0.00000000      -0.00000000       0.01153594
O        7.50000000       7.50000000       8.11830644       0.00000000      -0.00000000      -0.00000000      -0.01153594
