64
Lattice="10.270052857870596 -0.02105372426789703 0.028769233262380792 5.116793368875029 8.842269410593099 -0.017013476226622852 0.02348998059464611 -0.02960240583477949 8.79658802699747" Properties=species:S:1:pos:R:3:tags:I:1:initial_magmoms:R:1:forces:R:3 unique_id=2d5b2ea245f54c55aeb2918548b4349c stress="0.00021350920876355567 5.0931932031940305e-06 -2.419036148986917e-05 5.0931932031940305e-06 0.00021577911753172668 1.6935434661284524e-06 -2.419036148986917e-05 1.6935434661284524e-06 0.00021326977166304106" energy=-396.15103451766106 pbc="T T T"
Ni       0.01423917      -0.00966108       0.17951524        4       1.00000000       0.00396931       0.00954367       0.34307799
Ni       2.53720881       0.00234875       0.21646382        4       1.00000000      -0.04341077       0.04865847       0.43332344
Pt       5.12664356      -0.05246882       0.15326049        4       0.00000000      -0.00773069      -0.08824905       0.31812931
Ni       7.72867386      -0.07644763       0.20905202        4       1.00000000       0.03821627      -0.08652966       0.36740862
Ni       1.28654100       2.21657438       0.10415478        4       1.00000000       0.02987175       0.04222652       0.25029651
Pt       3.76746114       2.26101898       0.19169451        4       0.00000000      -0.01422746       0.09134683       0.18782990
Pt       6.41592653       2.21239682       0.12305299        4       0.00000000       0.05754722       0.09029382       0.01168538
Pt       9.07475652       2.19295357       0.14224661        4       0.00000000       0.11898052      -0.03759732       0.16102377
Ni       2.55644241       4.45299652       0.05617911        4       1.00000000       0.07902095       0.08696470      -0.02053486
Ni       5.08559222       4.44975599       0.10660608        4       1.00000000      -0.05772219       0.09802856       0.24190636
Pt       7.73566567       4.46587982       0.10346494        4       0.00000000       0.04656554       0.07453766      -0.06777674
Ni      10.31234358       4.43043565       0.08735593        4       1.00000000       0.14646223       0.05856589       0.14620731
Ni       3.80250963       6.61886557       0.09466804        4       1.00000000      -0.06550904      -0.05060306       0.20041837
Pt       6.36146524       6.67331022       0.17403153        4       0.00000000      -0.06462733       0.01219735       0.06730064
Ni       8.99176261       6.60632383       0.08277532        4       1.00000000       0.01949626      -0.00348012       0.11755935
Ni      11.57775757       6.57906102       0.07976595        4       1.00000000       0.11655346      -0.04260529       0.05944576
Ni       1.30058902       0.72422731       2.19578590        3       1.00000000      -0.04855124      -0.01619153       0.03683565
Ni       3.83187437       0.74767162       2.23772317        3       1.00000000       0.06662816       0.02193049       0.01345749
Ni       6.42381232       0.76330932       2.26263706        3       1.00000000      -0.07349509       0.13355360       0.05660886
Pt       9.00634553       0.70422602       2.27670589        3       0.00000000      -0.00508249       0.14837129      -0.01462908
Ni       2.55691208       2.94113737       2.24199811        3       1.00000000       0.04129089       0.03791801       0.02762079
Ni       5.12190784       2.96036139       2.26304136        3       1.00000000      -0.11421243       0.05422006       0.04676816
Ni       7.70281848       2.95212328       2.27334159        3       1.00000000       0.07782620       0.02632503      -0.01786904
Ni      10.29289455       2.92300281       2.27848973        3       1.00000000       0.04059337      -0.04362065       0.14773130
Ni       3.88689936       5.14383692       2.20966158        3       1.00000000       0.12447948      -0.03272066       0.05037987
Ni       6.39280327       5.14549142       2.24941976        3       1.00000000      -0.04045709       0.05441656      -0.02756815
Ni       8.94974244       5.10662522       2.24482830        3       1.00000000      -0.08081958      -0.17870759       0.12659748
Pt      11.61104058       5.06590339       2.19639004        3       0.00000000       0.14833203      -0.10014814       0.08426920
Ni       5.12996341       7.32787516       2.22790878        3       1.00000000       0.03768417      -0.14608260       0.05382695
Ni       7.65103795       7.35202345       2.22468543        3       1.00000000      -0.17522355      -0.10139103       0.01837036
Pt      10.23385996       7.28986098       2.19865695        3       0.00000000      -0.05534487      -0.06379902      -0.28964093
Ni      12.86553170       7.30692812       2.17750446        3       1.00000000       0.11356950      -0.19404654      -0.02371509
Ni       0.01395464       1.50430113       4.33638176        2       1.00000000      -0.03859403       0.06278665      -0.06488590
Pt       2.51605187       1.52531836       4.27714331        2       0.00000000       0.03452624      -0.01627179       0.13988991
Ni       5.15377090       1.48635958       4.33664277        2       1.00000000      -0.09748553       0.02678388      -0.17032116
Ni       7.70962918       1.47998303       4.36206825        2       1.00000000      -0.00446575       0.01529820      -0.07141102
Ni       1.28916136       3.66575521       4.38947016        2       1.00000000      -0.01332980       0.00879202       0.00854369
Ni       3.84564149       3.73315595       4.33213321        2       1.00000000      -0.07058325       0.08686853      -0.19935152
Pt       6.41320341       3.67692292       4.34699321        2       0.00000000      -0.04905805      -0.01098030      -0.03309367
Ni       8.98798389       3.64302704       4.32868817        2       1.00000000      -0.03897424      -0.09994312      -0.32211688
Ni       2.60363461       5.81946692       4.38633461        2       1.00000000       0.02392825      -0.11783121      -0.08456934
Ni       5.11627277       5.83951866       4.32373432        2       1.00000000       0.01604499      -0.13020710      -0.20636811
Ni       7.68452924       5.84168301       4.32882643        2       1.00000000      -0.06608095      -0.05927121      -0.25327035
Pt      10.26256917       5.76368152       4.44519923        2       0.00000000      -0.00427196      -0.01835032       0.01612757
Pt       3.91651716       8.01937431       4.31817442        2       0.00000000       0.02149425      -0.13363013       0.25150410
Ni       6.40262270       8.06077256       4.29957031        2       1.00000000      -0.04014336      -0.06554601      -0.14926613
Pt       8.89529143       8.06009316       4.30980956        2       0.00000000      -0.06393350       0.02851332       0.11457021
Pt      11.59474170       8.08489084       4.29283715        2       0.00000000       0.06132187       0.00813466       0.04059183
Pt       0.02499828      -0.00741589       6.55471117        1       0.00000000       0.01412143       0.05727669       0.12324432
Pt       2.57348679      -0.01961552       6.59479681        1       0.00000000      -0.00968606       0.06530353       0.23318444
Pt       5.15337846      -0.05174158       6.48288819        1       0.00000000       0.05857922      -0.00034174      -0.41971205
Pt       7.71654993      -0.07309209       6.60749524        1       0.00000000      -0.07016520      -0.06643532       0.15184160
Ni       1.28980305       2.26553176       6.50558519        1       1.00000000       0.00270077       0.22385174      -0.14405961
Pt       3.86662419       2.30856213       6.45601928        1       0.00000000      -0.05616618       0.15509966      -0.22584208
Ni       6.43626150       2.22383517       6.44725043        1       1.00000000       0.01189382       0.06978407      -0.22747016
Pt       9.00598964       2.27940915       6.42337721        1       0.00000000      -0.01226000       0.10984318      -0.33529628
Ni       2.54836684       4.44791308       6.48958557        1       1.00000000      -0.09965944       0.09918670      -0.23626802
Ni       5.12312299       4.40884377       6.50634395        1       1.00000000      -0.08053796       0.07612709      -0.14988355
Ni       7.72389587       4.40026489       6.44048768        1       1.00000000       0.07330227       0.05902081      -0.30534563
Ni      10.31034971       4.40449263       6.54305440        1       1.00000000       0.10434844       0.02101779      -0.01301412
Ni       3.81981783       6.53221015       6.50365007        1       1.00000000      -0.06228812      -0.18971812      -0.11119165
Pt       6.40940415       6.50593631       6.41967612        1       0.00000000      -0.01838695       0.01174041      -0.25988211
Ni       9.00458197       6.53196212       6.53458520        1       1.00000000      -0.03043810      -0.12970807      -0.09550681
Ni      11.57001336       6.52844872       6.54561805        1       1.00000000       0.04357343      -0.05052071      -0.10771647
