64
Lattice="10.328242361733619 0.0015255899641755488 -0.04094757552330259 5.165442380531545 8.823073820120339 -0.09410490850334113 0.0 0.0 21.56312873412573" Properties=species:S:1:pos:R:3:tags:I:1:initial_magmoms:R:1:forces:R:3 unique_id=eb971c95f1c74ab2a8f58f32cb10fbde stress="0.006098235704205921 8.221595729866938e-06 -0.00032506449593474094 8.221595729866938e-06 0.004422797140827314 1.2452103161498043e-05 -0.00032506449593474094 1.2452103161498043e-05 -0.0020220295973896324" energy=-374.46920763219816 pbc="T T T"
Ni       0.01127198      -0.06795061       0.21762175        2       1.00000000       0.10368836      -0.04691515      -0.12855152
Ni       2.57061023      -0.05978443       0.22299572        2       1.00000000      -0.01737740      -0.02398155      -0.01824966
Ni       5.16068153      -0.03900262       0.17740831        2       1.00000000      -0.03979507       0.02305574      -0.41126957
Ni       7.73063401      -0.06531114       0.17600149        2       1.00000000      -0.09156665      -0.06469734      -0.21218852
Pt       1.28450280       2.20522296       0.19615385        2       0.00000000      -0.01592488      -0.07899130      -0.34613304
Pt       3.85646985       2.17080701       0.19282637        2       0.00000000      -0.00000414      -0.01915506      -0.53642326
Pt       6.45768010       2.16996841       0.09336273        1       0.00000000      -0.03385705      -0.01926967      -0.18835222
Pt       9.03738616       2.25135230       0.10633451        1       0.00000000       0.03460815       0.08419772      -0.65104143
Ni       2.57188894       4.46181285       0.05947303        1       1.00000000       0.04832998       0.03921812       0.18239122
Pt       5.15832476       4.51507675       0.07085902        1       0.00000000      -0.02260127       0.02947905       0.03512910
Ni       7.74201343       4.46324244       0.03845986        0       1.00000000      -0.06611762       0.10348205       0.13991323
Ni      10.33054503       4.46275938       0.01954280        0       1.00000000       0.00792247       0.07185659       0.18420865
Ni       3.84789022       6.64718976       0.06631356        1       1.00000000      -0.04283304       0.08682174       0.36822327
Ni       6.46848594       6.65416410       0.06730443        1       1.00000000       0.02462614       0.06020970       0.38410231
Ni       9.01096651       6.61500729       0.09151685        1       1.00000000      -0.13344651       0.06098376      -0.20768590
Ni      11.63869908       6.61236016       0.00000000        0       1.00000000       0.06522969       0.04439913       0.24066667
Ni       1.30979326       0.69381628       2.26993094        5       1.00000000       0.03765158      -0.02172353       0.28943322
Ni       3.81656772       0.71896004       2.22337697        4       1.00000000      -0.21530827      -0.03424385       0.11910561
Ni       6.46092007       0.72773381       2.20940529        4       1.00000000       0.07989487       0.05153668       0.13247643
Pt       9.04042391       0.71159348       2.21290299        4       0.00000000       0.08703532       0.08989677      -0.07669326
Ni       2.59351750       2.90976545       2.29257494        5       1.00000000       0.07594752      -0.07937555       0.28876102
Ni       5.15122668       2.95376507       2.22498085        4       1.00000000      -0.03870734       0.15677620       0.15206412
Ni       7.71324880       2.92574700       2.22153747        4       1.00000000      -0.04528274      -0.05107991       0.12455736
Ni      10.33926788       2.91696717       2.25655116        5       1.00000000       0.07433224      -0.07043549       0.34088136
Ni       3.87342627       5.13531799       2.18844562        4       1.00000000       0.00339346      -0.03846809       0.10740916
Ni       6.43958417       5.15767988       2.16385850        4       1.00000000       0.01315722       0.04858209       0.05590065
Pt       8.97298281       5.10020653       2.17344598        4       0.00000000       0.01076647      -0.06007582       0.05657847
Pt      11.67878900       5.09317189       2.16468732        4       0.00000000       0.03891059      -0.13769538       0.03306778
Ni       5.18681362       7.30664241       2.12204374        3       1.00000000       0.02246293      -0.09594190       0.00984225
Ni       7.67336791       7.34973131       2.11841379        3       1.00000000      -0.18216362      -0.03619121       0.11160672
Pt      10.35644988       7.37524229       2.09614273        3       0.00000000       0.06395688      -0.03523203       0.10016813
Ni      12.92225407       7.31736725       2.09239041        3       1.00000000       0.10394598      -0.09579021       0.01003540
Ni       0.01305526       1.46061725       4.32453205        7       1.00000000       0.12950110       0.02002351      -0.22643479
Ni       2.52618418       1.46115071       4.29259958        7       1.00000000      -0.06555442       0.01891466      -0.26417433
Pt       5.16586513       1.43534406       4.24498716        6       0.00000000      -0.05487587      -0.07268966      -0.06751024
Ni       7.73053534       1.43934726       4.30958853        7       1.00000000       0.02964575      -0.07604506      -0.26529839
Ni       1.28057370       3.66843303       4.32442922        7       1.00000000       0.04317913      -0.02365090      -0.11556487
Ni       3.79718496       3.67496198       4.29838993        7       1.00000000      -0.14209790       0.01144123      -0.26967017
Pt       6.51502548       3.65387236       4.31784069        7       0.00000000       0.08083713      -0.05170622      -0.09433400
Ni       9.06700855       3.67111942       4.29267864        7       1.00000000       0.20567478       0.02649427      -0.15352621
Ni       2.53641049       5.81624462       4.36655446        8       1.00000000      -0.02910486      -0.05563835      -0.04215489
Pt       5.14574484       5.84483238       4.30552176        7       0.00000000       0.04349879       0.00835128      -0.09450039
Ni       7.72822299       5.83793223       4.30655730        7       1.00000000      -0.03504295       0.03790978      -0.13639788
Ni      10.35208865       5.80439268       4.32625721        7       1.00000000       0.09134910      -0.01397604      -0.07051623
Pt       3.82067634       8.03549433       4.25095056        7       0.00000000      -0.07120248       0.03086401       0.02195585
Ni       6.43599026       8.06586509       4.23878008        6       1.00000000      -0.08148218       0.09889406      -0.28722433
Pt       8.96771867       8.00988170       4.21028000        6       0.00000000      -0.08254768      -0.01017114      -0.00403458
Ni      11.61093173       8.00682630       4.25209356        7       1.00000000      -0.05762124      -0.13518638      -0.13879786
Pt      -0.02264328      -0.12391321       6.56312873       11       0.00000000       0.01077300       0.15001016       0.22420314
Pt       2.54701831      -0.08142622       6.54751624       10       0.00000000       0.02046608       0.16458097       0.25065520
Pt       5.16771943      -0.07634884       6.55296886       11       0.00000000       0.05625104      -0.00221620       0.30852739
Pt       7.71077998      -0.10220887       6.53140184       10       0.00000000      -0.10690268       0.07987851       0.28876165
Pt       1.26375842       2.25612454       6.39865306        9       0.00000000       0.04307276      -0.02334117       0.44759059
Pt       3.88496665       2.27122196       6.42598026        9       0.00000000      -0.07866815       0.12898862       0.47611871
Ni       6.44008212       2.19564272       6.41856865        9       1.00000000      -0.01583625      -0.02088698       0.21193723
Pt       8.96819041       2.24753328       6.35216627        9       0.00000000       0.03167896      -0.07606673       0.54054527
Ni       2.55557640       4.44120693       6.44637730        9       1.00000000       0.08901440      -0.00662159      -0.33372367
Ni       5.15591894       4.40601769       6.40453478        9       1.00000000      -0.02565312       0.02823041       0.11314467
Ni       7.68697459       4.37333654       6.45962123       10       1.00000000      -0.10011590      -0.00426052      -0.07303516
Ni      10.34252008       4.39495732       6.41617883        9       1.00000000       0.07972193      -0.02788314      -0.25813009
Ni       3.83411455       6.49761450       6.46770126       10       1.00000000      -0.01171316      -0.09918596      -0.24596187
Ni       6.42537043       6.50554862       6.45442595       10       1.00000000       0.04194761      -0.05334740      -0.18960997
Pt       9.02220446       6.43646803       6.46171464       10       0.00000000       0.01362234      -0.04244914       0.04969936
Ni      11.62534582       6.49788620       6.40761459        9       1.00000000      -0.00268929       0.04950883      -0.29247291
