64
Lattice="10.424539218143881 0.01003152598921862 0.02706451256254837 5.220957165417386 8.985357890892903 0.022970077493235718 0.022098081971796444 0.008898063171472289 8.906960458644978" Properties=species:S:1:pos:R:3:tags:I:1:initial_magmoms:R:1:forces:R:3 unique_id=a1e39abeaf194900aa6db75461c6e2b0 stress="0.003060267265227304 -7.168769304251426e-06 5.488148101509144e-06 -7.168769304251426e-06 0.003069534939574743 1.3640731252081509e-05 5.488148101509144e-06 1.3640731252081509e-05 0.0026095218113953295" energy=-403.4484765819695 pbc="T T T"
Ni      -0.03716175      -0.00163466       0.20875092        4       1.00000000      -0.07942739      -0.00487194       0.17586663
Ni       2.63449163      -0.01499082       0.12741598        4       1.00000000       0.09705404      -0.01065049       0.13399797
Ni       5.21582158      -0.00640322       0.17475700        4       1.00000000       0.01218269       0.09656670       0.13125465
Ni       7.84825775      -0.03874507       0.13988471        4       1.00000000       0.05422006      -0.08487284       0.10971305
Pt       1.28290848       2.21103438       0.15849148        4       0.00000000       0.01521060      -0.05149753      -0.13257281
Pt       3.91275790       2.24358227       0.21290430        4       0.00000000       0.02486573       0.03734558      -0.03543965
Pt       6.53723630       2.16454423       0.16879004        4       0.00000000       0.04699202      -0.09930454      -0.09536519
Ni       9.13190141       2.21778005       0.17596426        4       1.00000000       0.00710984      -0.09996066       0.07796514
Ni       2.62450288       4.52091884       0.15973304        4       1.00000000       0.07852738      -0.01945718       0.08696124
Ni       5.22126327       4.50344421       0.19331723        4       1.00000000       0.14630137      -0.05860175       0.16627960
Pt       7.87362200       4.51738322       0.04400490        4       0.00000000       0.07918452       0.00291763      -0.18384517
Ni      10.44965504       4.53839374       0.09043126        4       1.00000000       0.05524765       0.06606222       0.01110633
Ni       3.88860706       6.77613863       0.20624648        4       1.00000000      -0.00031483       0.07493603       0.14994719
Pt       6.50595130       6.80824897       0.23051043        4       0.00000000       0.00302166       0.01361259       0.00914146
Ni       9.15671866       6.78075651       0.09724002        4       1.00000000       0.01445963       0.06575950       0.00303369
Ni      11.75712955       6.77270598       0.09905757        4       1.00000000       0.10023631       0.08874616      -0.05849275
Ni       1.31493142       0.70071982       2.21600922        3       1.00000000      -0.00015558      -0.06129299      -0.06026400
Ni       3.91226029       0.75958760       2.25373986        3       1.00000000       0.03480520       0.00376116      -0.00204207
Ni       6.53111861       0.73628202       2.28542464        3       1.00000000       0.03529086      -0.02285922       0.08595560
Ni       9.12035875       0.70757101       2.22392470        3       1.00000000      -0.04433270      -0.02480767      -0.02496147
Ni       2.63959359       2.99868118       2.25820479        3       1.00000000      -0.02059657       0.08893559      -0.02608852
Ni       5.19810276       2.97377321       2.30440746        3       1.00000000      -0.02183058      -0.08502229       0.08838350
Pt       7.80712598       2.92440692       2.30402661        3       0.00000000       0.00826746       0.02878370      -0.00429697
Pt      10.42391810       2.92757541       2.31544791        3       0.00000000       0.00260404       0.00085724       0.05054108
Pt       3.95432431       5.23814414       2.21760656        3       0.00000000       0.01734227       0.01175316       0.09055901
Ni       6.52120714       5.25338677       2.26294962        3       1.00000000       0.02917363      -0.00891379       0.01971257
Pt       9.08479662       5.29915018       2.32856341        3       0.00000000      -0.03423628      -0.02686495      -0.02601058
Pt      11.76461592       5.29192162       2.22279888        3       0.00000000      -0.04620469       0.04402046      -0.00970751
Ni       5.20284097       7.53614240       2.23445694        3       1.00000000      -0.06215013       0.02086079       0.02500633
Ni       7.81948031       7.53982398       2.26157366        3       1.00000000       0.02790216       0.05580988      -0.00121955
Pt      10.44038905       7.56836508       2.18722913        3       0.00000000      -0.00383296      -0.02314412       0.01052611
Ni      13.06869486       7.54435469       2.23879648        3       1.00000000      -0.01989019       0.03883983      -0.01583101
Ni      -0.02762366       1.51883000       4.40863294        2       1.00000000      -0.04235688       0.02055626      -0.02088162
Pt       2.65042383       1.53673084       4.30040099        2       0.00000000       0.00392315       0.02852328      -0.12975993
Ni       5.24270836       1.50756747       4.37283199        2       1.00000000       0.00624955      -0.05238058      -0.15523930
Ni       7.84804742       1.50594511       4.42254852        2       1.00000000       0.02458032       0.00871577      -0.08843595
Pt       1.28264279       3.81840173       4.41947400        2       0.00000000       0.02104042       0.08470197      -0.03300751
Ni       3.92470404       3.74906066       4.40322484        2       1.00000000      -0.00537234       0.03463845      -0.04610974
Pt       6.54573784       3.73863876       4.40676262        2       0.00000000      -0.05570536       0.00573088      -0.02554647
Ni       9.13628100       3.77928531       4.48059355        2       1.00000000       0.00428400       0.01545474      -0.07696151
Ni       2.60258551       6.00196014       4.43081603        2       1.00000000       0.00801550       0.05384731      -0.06227229
Pt       5.21313470       5.98594775       4.38714474        2       0.00000000      -0.01354981       0.03593951       0.07756212
Ni       7.88028264       5.96335797       4.45892578        2       1.00000000      -0.01923395      -0.01132411      -0.05521495
Ni      10.42146706       5.99134815       4.51444605        2       1.00000000      -0.01231014       0.03235467      -0.04970649
Pt       3.90272318       8.29922028       4.34781793        2       0.00000000      -0.00087754       0.01311360       0.00399380
Pt       6.53543642       8.26359133       4.35031584        2       0.00000000      -0.02682021       0.06419741      -0.00935361
Pt       9.13780677       8.18842450       4.44955140        2       0.00000000      -0.02304829       0.01958907      -0.01392451
Pt      11.75960889       8.24458271       4.44909317        2       0.00000000      -0.03442244       0.00574490       0.00627941
Pt       0.00427673       0.00410050       6.66721144        1       0.00000000      -0.01329655       0.00307280       0.16529899
Ni       2.63767154      -0.01720498       6.62162040        1       1.00000000       0.00069059      -0.00790131      -0.06459931
Pt       5.21745495      -0.11231520       6.69501437        1       0.00000000      -0.06480113      -0.13800170       0.15101114
Ni       7.81658175       0.00473098       6.62988438        1       1.00000000      -0.02534071       0.00730786      -0.06373595
Pt       1.30202437       2.24552019       6.54894773        1       0.00000000      -0.01407389      -0.02737969      -0.03394178
Pt       3.92189903       2.21406729       6.54891619        1       0.00000000       0.02222468      -0.03482396      -0.04053707
Pt       6.56026064       2.19118747       6.54283078        1       0.00000000      -0.07242374      -0.11292302      -0.03910073
Pt       9.12687598       2.32378909       6.61349879        1       0.00000000      -0.00671800       0.03488625       0.05929146
Pt       2.54001419       4.55294907       6.65109119        1       0.00000000      -0.04633810       0.00953289       0.10344616
Pt       5.25483970       4.50733260       6.67504629        1       0.00000000      -0.02656792       0.00929665       0.13408048
Ni       7.89732396       4.52301847       6.51442083        1       1.00000000       0.02355106       0.00704728      -0.21542609
Ni      10.38671906       4.57672900       6.61390658        1       1.00000000      -0.08824530       0.05352743      -0.10992939
Pt       3.83772112       6.79482674       6.68669433        1       0.00000000      -0.08321714       0.03414428       0.13861031
Pt       6.66268862       6.74165236       6.58983361        1       0.00000000       0.05702467       0.01944662       0.02185774
Ni       9.17932085       6.68287041       6.62457630        1       1.00000000       0.04269485      -0.16451415      -0.11087228
Ni      11.69703481       6.72514107       6.63102836        1       1.00000000      -0.09658656      -0.10956759      -0.16668901
