64
Lattice="10.177176218939154 0.001694660004596654 -0.017945252807118957 5.090055728084337 8.790153311885483 -0.02246065565457213 0.0 0.0 21.521558157163856" Properties=species:S:1:pos:R:3:tags:I:1:initial_magmoms:R:1:forces:R:3 unique_id=19c4ea7fc9184154a2d9932e22394057 energy=-369.70366656635474 stress="0.0036828957360131864 -8.445965516599806e-05 6.012801487254584e-06 -8.445965516599806e-05 0.0033822618195719304 -0.00015331071472101 6.012801487254584e-06 -0.00015331071472101 -0.002937654010837727" pbc="T T T"
Ni       0.03422961      -0.01412216       0.16392382        2       1.00000000       0.16644904      -0.06513459      -0.49566683
Ni       2.52051834      -0.03174884       0.18561150        2       1.00000000       0.01876569      -0.00464624      -0.21749667
Ni       5.08560469      -0.02711365       0.06332727        1       1.00000000      -0.04657094       0.07497522       0.10946348
Ni       7.63199365      -0.01478918       0.13265033        1       1.00000000      -0.05344554       0.03869907      -0.73951337
Ni       1.22984951       2.20288161       0.09580632        1       1.00000000       0.01870736      -0.03501721       0.33181026
Pt       3.75591755       2.20166929       0.16719454        2       0.00000000      -0.01975679      -0.00625917      -0.67978357
Pt       6.41437889       2.21329852       0.06582626        1       0.00000000      -0.04298667       0.04477259      -0.19936646
Ni       8.94815721       2.23666450       0.04090951        0       1.00000000       0.00332657       0.08804384       0.11284754
Ni       2.53594822       4.41738761       0.04480938        0       1.00000000       0.04925423      -0.01499771       0.08669518
Ni       5.07508081       4.43951820       0.04723917        0       1.00000000      -0.10265522      -0.07590623       0.07773284
Ni       7.67091726       4.41927744       0.04828279        0       1.00000000       0.13168295       0.03535057       0.12232338
Ni      10.15687082       4.37753999       0.03351065        0       1.00000000      -0.09269591       0.04045126       0.13751634
Ni       3.84316693       6.57230281       0.04203862        0       1.00000000       0.10461125      -0.01559859       0.13849990
Ni       6.35611486       6.60937148       0.04972285        0       1.00000000       0.03578616       0.11214709       0.13792292
Ni       8.87781363       6.57639008       0.11537801        1       1.00000000      -0.12821091      -0.09705256      -0.16552371
Ni      11.44174617       6.58336852       0.00000000        0       1.00000000      -0.08909586      -0.05701788       0.03666252
Ni       1.31535922       0.75278433       2.15579120        4       1.00000000       0.09840465       0.15845900       0.08347962
Ni       3.76342074       0.72873837       2.18877496        4       1.00000000      -0.12202937      -0.02935109       0.12963144
Ni       6.33382086       0.75253327       2.15843893        4       1.00000000      -0.06266502       0.05583269       0.07024565
Pt       8.96558768       0.79726574       2.11050587        3       0.00000000       0.03221367      -0.00402388       0.03510053
Ni       2.53216594       2.89932163       2.21733120        4       1.00000000       0.01383114      -0.08878129       0.19288819
Ni       5.06904395       2.94054559       2.19434222        4       1.00000000      -0.01991869       0.08728259       0.11441570
Ni       7.66146789       2.96463650       2.16155423        4       1.00000000       0.06113400       0.10833541       0.10395391
Ni      10.17278586       2.92945805       2.13779784        3       1.00000000       0.03930327       0.01857370       0.07856940
Ni       3.83082611       5.08234154       2.16334596        4       1.00000000       0.00449038      -0.14459012       0.03950777
Pt       6.36302359       5.15335793       2.11615694        3       0.00000000      -0.00299689      -0.00204633      -0.03221349
Ni       8.88721348       5.09364394       2.15660135        4       1.00000000      -0.01119111      -0.07000860       0.09210816
Pt      11.43209407       5.05590674       2.11352945        3       0.00000000      -0.02317741      -0.07310281      -0.00459518
Ni       5.11898746       7.31700030       2.11494857        3       1.00000000       0.00294390       0.01585654      -0.02752527
Ni       7.61222218       7.34041659       2.12525784        3       1.00000000      -0.04191449      -0.00636782       0.00882934
Pt      10.09802095       7.35187982       2.16283298        4       0.00000000      -0.03275912       0.03478281       0.08050327
Pt      12.74279963       7.28985150       2.09766226        3       0.00000000       0.06722318      -0.04303004       0.04840652
Ni       0.02090121       1.48436859       4.33183152        6       1.00000000       0.08905868      -0.08410129      -0.06687169
Ni       2.51459042       1.46558659       4.27089842        6       1.00000000      -0.02416073      -0.08405420      -0.19826528
Pt       5.03308378       1.40679584       4.23926213        5       0.00000000      -0.07890146      -0.09060358      -0.02241032
Pt       7.67168119       1.50213416       4.30463181        6       0.00000000       0.12181873      -0.00366915      -0.02035905
Pt       1.26192497       3.64437017       4.36555277        7       0.00000000      -0.00185960      -0.02035822       0.05825499
Ni       3.79422542       3.71547515       4.27691929        6       1.00000000      -0.00803813       0.05696116      -0.23347547
Pt       6.34334367       3.73803848       4.34740839        6       0.00000000      -0.05786944       0.05947191      -0.02442348
Ni       8.91971464       3.70563149       4.31380226        6       1.00000000       0.00630002       0.13771385      -0.08048663
Ni       2.53173518       5.82121856       4.35733691        7       1.00000000      -0.06896829      -0.04715284      -0.06661824
Ni       5.05481215       5.83048593       4.33413174        6       1.00000000      -0.01199430      -0.00057710      -0.09173965
Ni       7.67025579       5.84818346       4.29792293        6       1.00000000       0.15915093       0.01381661      -0.17108053
Ni      10.16800242       5.85271180       4.30381507        6       1.00000000      -0.00252352      -0.05077022      -0.13656930
Pt       3.80435026       7.96489799       4.31004214        6       0.00000000      -0.03577751      -0.01790359      -0.00059441
Pt       6.41452363       8.02268149       4.21213152        5       0.00000000       0.08551669      -0.04043804      -0.01015259
Ni       8.91734176       8.01787182       4.29001546        6       1.00000000      -0.01537998      -0.07252279      -0.08576039
Ni      11.40570048       7.99261393       4.30944724        6       1.00000000      -0.01264965      -0.11585970      -0.05363312
Pt      -0.02169742       0.00939205       6.52155816        9       0.00000000      -0.11275926       0.08057965       0.41967726
Pt       2.57026752      -0.00498778       6.49038239        9       0.00000000       0.08930526       0.08968813       0.27898001
Ni       5.08513717      -0.02643174       6.43551348        8       1.00000000      -0.08571279       0.02629720      -0.02266313
Pt       7.53802818      -0.03732694       6.50935923        9       0.00000000       0.01253622      -0.01774605       0.52693170
Ni       1.23091708       2.23318299       6.45745860        9       1.00000000       0.06547073      -0.05796644       0.01616715
Pt       3.80725745       2.29362481       6.39159515        8       0.00000000      -0.07828939       0.18944419       0.67839838
Ni       6.36321169       2.22516625       6.38368006        8       1.00000000      -0.03910267       0.06082060       0.42303838
Ni       8.90830074       2.25918736       6.43972951        8       1.00000000      -0.00022090       0.02763928      -0.06972990
Ni       2.52627412       4.44365636       6.44054614        8       1.00000000       0.04065273       0.03626076      -0.12168570
Ni       5.08023297       4.44538007       6.44159830        8       1.00000000      -0.05131325       0.02301899      -0.04549434
Ni       7.62553354       4.36894416       6.44426545        8       1.00000000       0.07073583      -0.02707820      -0.07454127
Ni      10.17882524       4.35951018       6.43210483        8       1.00000000      -0.03894515      -0.00638180      -0.12935567
Ni       3.80439380       6.50704713       6.43897907        8       1.00000000      -0.02701384       0.02824604      -0.11927573
Ni       6.32923669       6.52006494       6.42934129        8       1.00000000       0.04910628       0.00364966      -0.21517468
Pt       8.93666926       6.50308755       6.42411852        8       0.00000000      -0.02938266      -0.06935579       0.01173159
Ni      11.45621316       6.53562439       6.39856460        8       1.00000000       0.03515289      -0.10769921      -0.16024822
