64
Lattice="10.341839608097356 -0.04381656423199498 0.01339154735211887 5.132973546317225 8.906752991639069 -0.03665476229202588 0.0 0.0 21.57232751096874" Properties=species:S:1:pos:R:3:tags:I:1:initial_magmoms:R:1:forces:R:3 unique_id=70ccfcab0a61465fb93af5477ed8eabb stress="0.005625105868987683 -0.00012834416704670193 0.0001081719698511474 -0.00012834416704670193 0.006031292638426757 -0.000328654365069499 0.0001081719698511474 -0.000328654365069499 -0.0016339230663849746" energy=-376.6546717474255 pbc="T T T"
Ni       0.00446769       0.01459249       0.12562229        1       1.00000000       0.09951119      -0.04071261      -0.10928066
Ni       2.55400262      -0.00386944       0.15270012        2       1.00000000      -0.07485081       0.06115098      -0.09156550
Pt       5.16165730      -0.05725881       0.09544845        1       0.00000000      -0.00603905       0.21890123      -0.92244033
Ni       7.78465198      -0.07617822       0.13787261        1       1.00000000      -0.08472079      -0.11275755      -0.18425022
Ni       1.24791622       2.22819829       0.04270656        0       1.00000000      -0.11222069       0.01476377       0.49759235
Pt       3.78236276       2.26297411       0.05736439        1       0.00000000       0.04486665      -0.00490768       0.01834205
Pt       6.49429804       2.19963294       0.14180236        1       0.00000000       0.01288561      -0.02881120      -0.45118987
Ni       9.08488242       2.18948310       0.10037155        1       1.00000000       0.08246001       0.14581943      -0.00132585
Ni       2.56140530       4.46769532       0.00000000        0       1.00000000       0.08764393       0.01631232       0.25128053
Ni       5.11963068       4.46072979       0.11414360        1       1.00000000      -0.05941461       0.09314899       0.11888878
Pt       7.81518217       4.44631308       0.04312414        0       0.00000000       0.00546695      -0.00765995       0.06894522
Ni      10.35185773       4.40439887       0.01073599        0       1.00000000       0.04440303      -0.11579965       0.30731710
Ni       3.81975252       6.67072973       0.11064836        1       1.00000000      -0.01159248      -0.06434319       0.12342447
Pt       6.40505132       6.70285268       0.11412965        1       0.00000000      -0.13432075       0.01514098      -0.46348198
Ni       9.03301366       6.63616867       0.00504589        0       1.00000000      -0.03875912      -0.00215573       0.15714909
Ni      11.63323763       6.61447959       0.00138019        0       1.00000000       0.11111811       0.03300819       0.20502678
Ni       1.30294694       0.74699472       2.11902239        3       1.00000000       0.01470176       0.11874404      -0.01210517
Ni       3.85797343       0.75225021       2.16744575        4       1.00000000       0.05669056       0.07070339       0.17992071
Ni       6.47010187       0.73706480       2.20912268        4       1.00000000      -0.03285189       0.14832889       0.29413725
Pt       9.06068889       0.73432152       2.14397888        3       0.00000000       0.03413527       0.08011817       0.15486034
Ni       2.57856945       2.94877026       2.15390443        4       1.00000000       0.03619588      -0.00037906       0.10320133
Ni       5.13138530       2.96215268       2.18298735        4       1.00000000      -0.17920637       0.02205598       0.16006601
Ni       7.77735224       2.95306142       2.19652573        4       1.00000000       0.13251559       0.06886574       0.18878154
Ni      10.33022378       2.91651792       2.14330703        3       1.00000000       0.08765933       0.01739590       0.05170485
Ni       3.89333993       5.17811674       2.14659197        3       1.00000000       0.13029099      -0.07957288       0.13963591
Ni       6.42714367       5.17228458       2.16792061        4       1.00000000      -0.07846621       0.03485248       0.15259412
Ni       9.00311700       5.12899966       2.17284609        4       1.00000000      -0.09136758      -0.19443920       0.20668216
Pt      11.67042624       5.09824371       2.08485078        3       0.00000000       0.14364831      -0.16206779       0.00604678
Ni       5.11859016       7.37770281       2.12396882        3       1.00000000      -0.12796135      -0.14969974       0.09242331
Ni       7.71769710       7.39103506       2.12101110        3       1.00000000       0.04038620      -0.07673032       0.00893626
Pt      10.29036299       7.33301073       2.10943751        3       0.00000000      -0.02838667      -0.20258750      -0.27637541
Ni      12.92815468       7.35230724       2.09394994        3       1.00000000       0.04481129      -0.06447635       0.04055005
Ni      -0.01702005       1.49851413       4.29681656        6       1.00000000      -0.04766439      -0.03858382      -0.21992706
Pt       2.61596192       1.51336791       4.26172602        6       0.00000000      -0.00355251      -0.02364728      -0.13765260
Ni       5.17038662       1.48452577       4.27870643        6       1.00000000       0.04238910       0.12624266      -0.39748348
Ni       7.77581657       1.47089876       4.28801655        6       1.00000000       0.06216693       0.04695630      -0.30725550
Pt       1.27798895       3.68581796       4.34823814        6       0.00000000      -0.06091780      -0.03208215      -0.04614681
Ni       3.87864489       3.71386074       4.28211864        6       1.00000000       0.07015445       0.11386280      -0.31288049
Pt       6.46569601       3.70099771       4.19725826        5       0.00000000      -0.06195914       0.02035262      -0.03086512
Ni       9.02086872       3.64467923       4.29058215        6       1.00000000      -0.05420570      -0.13032866      -0.33844671
Ni       2.59063030       5.88073395       4.29038604        6       1.00000000       0.08994206      -0.10912215      -0.21337824
Ni       5.12813097       5.86814853       4.24725524        5       1.00000000      -0.08092365      -0.07705369      -0.40022294
Ni       7.73917026       5.85347421       4.26964383        6       1.00000000      -0.07248486      -0.04119008      -0.36056391
Pt      10.27913960       5.83137115       4.37357373        7       0.00000000       0.00349494       0.01931202      -0.03612179
Pt       3.85585617       8.11677991       4.21458766        5       0.00000000       0.02562904      -0.05073876       0.00635917
Pt       6.41315720       8.10506923       4.16461075        5       0.00000000      -0.08885213       0.00358832      -0.21311535
Pt       8.98301401       8.11250285       4.23583526        5       0.00000000      -0.08266444      -0.03118702      -0.06585541
Pt      11.63962754       8.13721633       4.22977188        5       0.00000000       0.07673212       0.03161488      -0.07237384
Pt       0.03161028       0.02217989       6.54162396        9       0.00000000       0.06582250       0.05436128       0.20058700
Pt       2.60364480       0.01998952       6.57232751       10       0.00000000       0.02815473       0.01715453       0.33015675
Pt       5.16133616      -0.09116658       6.44994939        8       0.00000000      -0.01219664       0.13344791       1.03619299
Pt       7.75659479      -0.06929812       6.56230474       10       0.00000000      -0.00503274       0.24051556       0.36984939
Ni       1.31550844       2.26095817       6.48861892        9       1.00000000       0.03752422       0.03392350      -0.14766212
Ni       3.84009467       2.22330733       6.41156362        8       1.00000000      -0.01003962      -0.03456319       0.06952683
Pt       6.45904110       2.20252807       6.40914473        8       0.00000000       0.03480908      -0.08630216       0.47469501
Pt       9.11069482       2.28459468       6.47227514        9       0.00000000      -0.01468901       0.06163444      -0.00407453
Ni       2.52300217       4.40060466       6.47202372        9       1.00000000      -0.04158550      -0.01341795      -0.21051218
Pt       5.09089718       4.37453502       6.47499461        9       0.00000000      -0.09372376       0.06743095       0.00856784
Ni       7.79512215       4.43214363       6.39345828        8       1.00000000       0.08088345       0.07580558      -0.09213804
Ni      10.34964754       4.42880094       6.50119246        9       1.00000000       0.02950353       0.03987808      -0.13714713
Pt       3.77978178       6.58795822       6.48416347        9       0.00000000       0.09724444      -0.13006881       0.03168454
Pt       6.50698902       6.58350525       6.39936575        8       0.00000000      -0.09184088      -0.06242810       0.39121211
Ni       9.05130635       6.57520506       6.48046675        9       1.00000000      -0.08076825      -0.01928722      -0.06841021
Ni      11.58604491       6.55899522       6.48563242        9       1.00000000       0.00941815      -0.05829048      -0.12209018
