64
Lattice="9.875078755242349 -0.0010051596585012284 -0.004547907568750624 4.936668883822105 8.548798775741107 -0.006264829946509132 0.0 0.0 21.210304326576384" Properties=species:S:1:pos:R:3:tags:I:1:initial_magmoms:R:1:forces:R:3 unique_id=d3bff7b6858a44049d566bb5a0005ba5 stress="0.0032885890031789516 -6.823384764528725e-05 1.0856161474291246e-05 -6.823384764528725e-05 0.003360247299212551 -9.218076812829352e-05 1.0856161474291246e-05 -9.218076812829352e-05 -0.003047317919907335" energy=-357.934975173806 pbc="T T T"
Ni       0.02876610      -0.04837834       0.07580578        1       1.00000000      -0.01611612       0.06228075      -0.15155754
Ni       2.49284359      -0.01895857       0.01263751        0       1.00000000      -0.00625527       0.08378815      -0.10484189
Ni       4.89243127       0.00004492       0.05601600        1       1.00000000       0.07712611      -0.03309770       0.01762183
Pt       7.39468912      -0.00762652       0.01268067        0       0.00000000      -0.03110606       0.03600041      -0.30831490
Pt       1.24470449       2.15171410       0.00000000        0       0.00000000      -0.00812678       0.02175295      -0.16639370
Ni       3.75213015       2.15096695       0.05549877        1       1.00000000      -0.09218728       0.00434177       0.06790683
Ni       6.14615106       2.18286663       0.06252672        1       1.00000000       0.06794780      -0.04718573       0.08242767
Ni       8.61191635       2.19131964       0.17373092        2       1.00000000       0.00734442      -0.03452590      -0.59242261
Ni       2.49942649       4.31328805       0.05614772        1       1.00000000      -0.04851699      -0.09704274       0.08049526
Ni       4.93770629       4.27204612       0.05066564        1       1.00000000       0.02096233       0.00859712       0.13196359
Ni       7.39431059       4.28305648       0.05717180        1       1.00000000      -0.01552909       0.01351030       0.06914888
Ni       9.85179847       4.31189600       0.05297649        1       1.00000000       0.03959308      -0.07238861       0.02206482
Ni       3.72118403       6.36318409       0.05690707        1       1.00000000      -0.02712354       0.03711696      -0.07645555
Ni       6.15595534       6.37793798       0.00577930        0       1.00000000       0.00958105      -0.04933943      -0.03612963
Ni       8.65674187       6.39034319       0.00449899        0       1.00000000      -0.00842965      -0.01299962      -0.04617067
Ni      11.08707533       6.36574095       0.04188478        0       1.00000000       0.01906772       0.08732108       0.01790395
Ni       1.22361021       0.73499918       2.11790211        4       1.00000000      -0.01573363       0.03137645       0.05810424
Ni       3.72279139       0.75213916       2.08687895        4       1.00000000       0.00641970       0.00277138       0.00863669
Ni       6.14710170       0.72986373       2.10974546        4       1.00000000       0.02848652       0.00873566       0.02920413
Ni       8.64972050       0.74401684       2.08782777        4       1.00000000      -0.00207726       0.00020061       0.04222257
Ni       2.49057802       2.86919051       2.11589945        4       1.00000000      -0.00755895      -0.00054244       0.01035383
Ni       4.93479555       2.85602216       2.09662656        4       1.00000000      -0.00702095      -0.01114701       0.06491865
Ni       7.38406266       2.86259899       2.10227111        4       1.00000000      -0.02175861      -0.00237875       0.06786511
Ni       9.87211211       2.87467939       2.12023050        4       1.00000000       0.02293809       0.00692402       0.07034368
Ni       3.70232515       4.97155745       2.09412369        4       1.00000000      -0.01678803      -0.01841836       0.05301582
Ni       6.14794823       4.94144104       2.08153164        4       1.00000000      -0.01098071      -0.01342937       0.04376860
Ni       8.65939887       4.94925068       2.07919183        4       1.00000000       0.01899902      -0.03315579       0.05993548
Ni      11.10961668       4.97561335       2.08130401        4       1.00000000       0.00224229      -0.01471409       0.00290700
Ni       4.91331268       7.09190975       2.04253612        3       1.00000000      -0.02183574      -0.00979754       0.00497867
Pt       7.41380889       7.11312564       2.07749898        4       0.00000000       0.01049364       0.02490475      -0.10829187
Ni       9.91282509       7.11684475       2.07238433        4       1.00000000      -0.00785541      -0.00505656      -0.01442573
Ni      12.31863836       7.07582917       2.07123716        4       1.00000000       0.00174995      -0.00924539      -0.01164885
Ni       0.03284155       1.45317528       4.10516979        5       1.00000000      -0.03667645       0.01786317      -0.08999551
Ni       2.49440755       1.42562731       4.11778807        5       1.00000000       0.01750984       0.01529589      -0.06814138
Ni       4.92517201       1.42857692       4.13635434        5       1.00000000       0.04216488       0.00500252      -0.04137138
Ni       7.35771602       1.45803174       4.09839979        5       1.00000000       0.00287954       0.02513999      -0.04485897
Ni       1.23764937       3.57451712       4.12216875        5       1.00000000      -0.01141095       0.01678611      -0.04431565
Ni       3.70266495       3.55268760       4.14132843        5       1.00000000      -0.01871668      -0.01464660      -0.02390798
Ni       6.16219042       3.55941456       4.13728939        5       1.00000000       0.00488397      -0.01094056       0.01948779
Ni       8.63820003       3.58801453       4.10789254        5       1.00000000       0.02530552      -0.03002068      -0.01096589
Ni       2.44198330       5.65294456       4.13699407        5       1.00000000      -0.00412705       0.00964445      -0.04885652
Ni       4.95770446       5.64750859       4.13490141        5       1.00000000       0.00305499      -0.02143907      -0.01561248
Ni       7.40853413       5.67476961       4.16026888        6       1.00000000       0.00674599      -0.02158369      -0.01236156
Ni       9.87016632       5.69756001       4.12196730        5       1.00000000       0.00218839      -0.01841576      -0.04745503
Pt       3.70721922       7.81901998       4.12218509        5       0.00000000       0.02656768      -0.00159322       0.00703394
Ni       6.20676075       7.84277888       4.16892308        6       1.00000000       0.00528707       0.02203175      -0.03990357
Ni       8.65814905       7.84412902       4.15834452        6       1.00000000       0.01142952      -0.00657855      -0.04544035
Ni      11.05168093       7.82578236       4.11352612        5       1.00000000       0.01775831      -0.01219733      -0.08084467
Ni       0.05008845      -0.03321585       6.20030638        9       1.00000000      -0.02566273       0.09995676       0.10481467
Ni       2.48714364      -0.00423819       6.15419215        9       1.00000000       0.01138021       0.04496510       0.04393371
Ni       4.91740591      -0.00459011       6.16735361        9       1.00000000      -0.00347973      -0.00934296      -0.09134659
Ni       7.33790377      -0.02575457       6.07933012        8       1.00000000      -0.04318896       0.09730859       0.75668178
Ni       1.28931974       2.13810380       6.04526283        7       1.00000000      -0.07286707       0.01435034       0.57396407
Ni       3.70140978       2.13291625       6.16235917        9       1.00000000      -0.01833971       0.01306807      -0.09836957
Ni       6.11096401       2.14165841       6.15863190        9       1.00000000       0.07871025      -0.00469137      -0.03644467
Pt       8.63537561       2.14456133       6.21030433        9       0.00000000       0.02675642      -0.01927472       0.25734670
Ni       2.47092849       4.27078653       6.16283167        9       1.00000000       0.00912866      -0.01412766      -0.06827920
Ni       4.92816894       4.26790685       6.16742079        9       1.00000000      -0.02470318       0.01207634      -0.07536031
Ni       7.37534624       4.31890339       6.16666258        9       1.00000000       0.02789455      -0.07594933      -0.03905052
Ni       9.89858344       4.32375547       6.14990667        8       1.00000000      -0.01802218      -0.10123431      -0.07485475
Ni       3.70149471       6.36872652       6.19594226        9       1.00000000      -0.02356558      -0.01790267       0.02918649
Ni       6.17425961       6.40658773       6.15451646        9       1.00000000      -0.02239376      -0.02304393       0.03312263
Ni       8.63923717       6.41698585       6.14868030        8       1.00000000       0.02013952       0.01202853      -0.01572158
Ni      11.09835224       6.40578372       6.15303785        9       1.00000000       0.01541707       0.03230744      -0.10124803
