64
Lattice="10.3282799741704 -0.013694088504470165 0.026810112379830667 5.152280558558663 8.845672749410735 0.01570866149912527 0.021890365092419907 0.0021718599137594856 8.78606384900355" Properties=species:S:1:pos:R:3:tags:I:1:initial_magmoms:R:1:forces:R:3 unique_id=e1b43d17ca3d4f8f9e921a3abae7d718 stress="0.000223515238107444 3.5511962605788813e-06 -1.5145701418776114e-05 3.5511962605788813e-06 0.00022884826920590434 1.035302190038192e-05 -1.5145701418776114e-05 1.035302190038192e-05 0.0002219360999276207" energy=-397.4435750055497 pbc="T T T"
Ni       0.00149865       0.02408055       0.18256476        4       1.00000000       0.06427769       0.10135872       0.28261578
Ni       2.58219300       0.00732552       0.21470174        4       1.00000000       0.01126232       0.04787853       0.41901323
Ni       5.16300270      -0.01582431       0.16987904        4       1.00000000      -0.03931082       0.12439923       0.23244163
Ni       7.75457377      -0.04748321       0.20433468        4       1.00000000      -0.01464933      -0.10540066       0.36603999
Ni       1.25979953       2.22013865       0.18448753        4       1.00000000      -0.10833466       0.03790171       0.27280683
Pt       3.80933813       2.21725793       0.12107671        4       0.00000000      -0.07468424       0.08204189      -0.13857951
Pt       6.47709846       2.15840826       0.12655509        4       0.00000000       0.08372317      -0.04815532      -0.08503661
Ni       9.07750769       2.20597490       0.16994031        4       1.00000000       0.15005437       0.05746119       0.12289723
Ni       2.55886560       4.44544284       0.06273486        4       1.00000000      -0.04490395       0.02268360      -0.09153197
Ni       5.15420877       4.42982165       0.17301760        4       1.00000000       0.19782283      -0.06264699       0.22116498
Pt       7.81979834       4.43044178       0.12508337        4       0.00000000       0.14495549       0.01246468      -0.12889753
Ni      10.35040515       4.41066221       0.10487880        4       1.00000000       0.09581519      -0.05239986       0.09594940
Ni       3.83037266       6.65531140       0.09924931        4       1.00000000      -0.06801062       0.10188803       0.10440270
Pt       6.42496944       6.68341600       0.21490838        4       0.00000000      -0.05077051       0.03311951       0.18045166
Ni       9.05354029       6.64447932       0.10384457        4       1.00000000       0.00279413       0.04109000       0.01876278
Ni      11.62858461       6.62703129       0.09126866        4       1.00000000       0.09811572      -0.00580737      -0.01487769
Ni       1.32002440       0.77402891       2.18356440        3       1.00000000       0.03669594       0.18333539       0.01875074
Ni       3.85150470       0.77169941       2.22753483        3       1.00000000      -0.03553990       0.13909823       0.10609108
Ni       6.45274964       0.75902068       2.24080830        3       1.00000000      -0.03795130       0.12819349       0.12869117
Pt       9.05014176       0.77439242       2.20404505        3       0.00000000      -0.01633975       0.12683398       0.15337919
Ni       2.56695443       2.89902830       2.25561930        3       1.00000000      -0.04391700      -0.08983624       0.15172381
Ni       5.16514485       2.91214908       2.25071725        3       1.00000000      -0.06868561      -0.12424872       0.04151830
Ni       7.76297790       2.95362542       2.25634700        3       1.00000000       0.09966194       0.05092141      -0.04335293
Ni      10.33145407       2.92755614       2.24051286        3       1.00000000       0.00174646       0.02274825       0.10062954
Pt       3.88326086       5.13379332       2.17221512        3       0.00000000      -0.05808296      -0.10255920      -0.02098624
Ni       6.49166994       5.13937444       2.24134367        3       1.00000000       0.11786560      -0.01854966      -0.02574774
Ni       9.00967496       5.12956700       2.25813450        3       1.00000000      -0.04079235      -0.07751522       0.14635052
Pt      11.59980958       5.08094781       2.20196634        3       0.00000000      -0.01395666      -0.09307083      -0.00260998
Ni       5.15220104       7.39004260       2.21251679        3       1.00000000      -0.10523071       0.01040013      -0.04056612
Ni       7.74324946       7.37056062       2.22330237        3       1.00000000       0.02237209      -0.06542828      -0.01221070
Pt      10.29808488       7.37952637       2.14191055        3       0.00000000       0.01354212      -0.10259281      -0.07464762
Ni      12.91220698       7.36025257       2.19960915        3       1.00000000      -0.01102805      -0.09568038      -0.03424234
Ni       0.02053794       1.55137980       4.33326864        2       1.00000000       0.07886706       0.20183193      -0.10054810
Ni       2.60441207       1.54675549       4.32879905        2       1.00000000      -0.01974947       0.07728394      -0.17669934
Ni       5.14619600       1.51168455       4.35767339        2       1.00000000      -0.09226303       0.02225881      -0.17696973
Ni       7.76513675       1.49181369       4.36327253        2       1.00000000       0.06473205      -0.05744868      -0.09740283
Ni       1.32273043       3.66174700       4.35018805        2       1.00000000       0.06352816      -0.07945931      -0.21376613
Ni       3.82711154       3.63520990       4.36857788        2       1.00000000      -0.08641036      -0.06737815      -0.19929284
Pt       6.50673676       3.61956429       4.32722741        2       0.00000000      -0.03150963      -0.03926570      -0.04650502
Ni       9.05352911       3.65526605       4.35034982        2       1.00000000       0.06042220      -0.13991824      -0.29022206
Ni       2.56920612       5.84347789       4.41598445        2       1.00000000      -0.03914192      -0.12321504      -0.07113233
Pt       5.14333755       5.84473772       4.33454299        2       0.00000000       0.04880517      -0.07016845       0.05789869
Ni       7.77601774       5.85139927       4.35650025        2       1.00000000       0.01208667      -0.03607190      -0.23030880
Pt      10.31931764       5.78923138       4.45740473        2       0.00000000      -0.01034566      -0.05416896      -0.05648517
Pt       3.86001970       8.11891698       4.33257642        2       0.00000000      -0.05291662      -0.03389615       0.12192623
Pt       6.46403688       8.17665011       4.25872118        2       0.00000000      -0.00323552       0.12191974       0.04324325
Pt       9.02285425       8.13658923       4.33210772        2       0.00000000      -0.11959415       0.09065164       0.08967900
Pt      11.62520905       8.12155958       4.33428936        2       0.00000000       0.06423986       0.03750953       0.01995133
Pt       0.00488193      -0.00965871       6.57883978        1       0.00000000      -0.01593063       0.00709696       0.12596575
Pt       2.62321138       0.02157514       6.58916692        1       0.00000000      -0.00618877       0.02507311       0.20529728
Pt       5.18267487       0.00124734       6.58049548        1       0.00000000      -0.03253582      -0.05296234       0.04979441
Pt       7.73701043      -0.04763017       6.61606260        1       0.00000000       0.00031784      -0.11153451       0.19012024
Pt       1.34403764       2.32768164       6.50009691        1       0.00000000       0.00487376       0.17536934       0.10984414
Ni       3.88567575       2.22459491       6.42868235        1       1.00000000      -0.06238537      -0.07641799      -0.33197400
Ni       6.45896472       2.20915993       6.45459575        1       1.00000000      -0.01309087      -0.05575878      -0.26778359
Pt       9.01081601       2.29615088       6.51677370        1       0.00000000      -0.03083783       0.05950490      -0.00456181
Ni       2.57607975       4.46834556       6.49944801        1       1.00000000      -0.06987975       0.16759911      -0.28312023
Pt       5.10501950       4.34228337       6.56960946        1       0.00000000      -0.08336401      -0.07640225       0.08231984
Ni       7.78327294       4.42552057       6.45324613        1       1.00000000       0.04303075       0.04484605      -0.32140809
Ni      10.34080108       4.45170859       6.55835299        1       1.00000000      -0.01150813       0.07889708      -0.02239171
Ni       3.82970812       6.58750939       6.53612834        1       1.00000000      -0.07213548      -0.10375117      -0.14915677
Pt       6.51293600       6.56237871       6.49578459        1       0.00000000       0.02696413      -0.06507123      -0.23865973
Ni       9.07591420       6.57440532       6.55130192        1       1.00000000       0.05872572      -0.05067833      -0.12611269
Ni      11.63368373       6.55899822       6.56007592        1       1.00000000       0.01791298      -0.09620137      -0.14193276
