64
Lattice="10.31561016096524 -0.0072457962236816935 0.012076124364155923 5.151530036882268 8.857907539754189 -0.002742837067726241 0.009860114254191381 -0.008278711205936653 8.77785871683406" Properties=species:S:1:pos:R:3:tags:I:1:initial_magmoms:R:1:forces:R:3 unique_id=1338b27f265c4b969b21bd033fd34d93 stress="0.00021879369925458664 3.657836811906697e-06 -8.950352556590234e-06 3.657836811906697e-06 0.0002239802169740554 3.4281450176999783e-06 -8.950352556590234e-06 3.4281450176999783e-06 0.0002098734350941614" energy=-397.78077658214926 pbc="T T T"
Ni       0.00406874       0.02448008       0.18355168        4       1.00000000       0.03581445       0.11725566       0.23903952
Ni       2.57435979       0.00690264       0.21597096        4       1.00000000      -0.00202603       0.04553522       0.35356786
Ni       5.15752064      -0.01458311       0.15833613        4       1.00000000      -0.04765759       0.06839965       0.18897537
Ni       7.74268338      -0.04600368       0.18026821        4       1.00000000      -0.02534316      -0.14208670       0.30155761
Ni       1.26000892       2.22068509       0.19084464        4       1.00000000      -0.10789673       0.02451065       0.28011918
Pt       3.81230694       2.22544869       0.18817956        4       0.00000000      -0.08470656       0.04469786       0.14966906
Pt       6.46581147       2.15432275       0.11304464        4       0.00000000       0.06314131      -0.10954518      -0.03544112
Ni       9.06885949       2.20859698       0.15665217        4       1.00000000       0.12608097       0.05407417       0.13916430
Ni       2.56134120       4.45272328       0.05567553        4       1.00000000      -0.06109416       0.04097238      -0.05320000
Ni       5.13837431       4.44254274       0.07152967        4       1.00000000       0.06144734      -0.03910790       0.06198026
Pt       7.77026928       4.42326529       0.04401396        4       0.00000000       0.11594470       0.01371444      -0.17000915
Ni      10.35078238       4.41475836       0.07614412        4       1.00000000       0.08390749      -0.04148714       0.05322432
Ni       3.83243861       6.65761450       0.07632142        4       1.00000000      -0.09622701       0.08780989       0.08331700
Pt       6.40587201       6.69505745       0.10575851        4       0.00000000      -0.06369341       0.03896588      -0.11676856
Ni       9.04351885       6.66591132       0.15470178        4       1.00000000      -0.02479612       0.03390389       0.19665264
Ni      11.62382519       6.64075306       0.06892338        4       1.00000000       0.10058211      -0.03010142      -0.04496970
Ni       1.29828806       0.75302529       2.16499993        3       1.00000000      -0.02904611       0.06682965       0.00959979
Ni       3.86687990       0.74539072       2.21192731        3       1.00000000       0.08406981       0.04866473       0.02754501
Ni       6.44797404       0.75287600       2.25463262        3       1.00000000       0.02809471       0.08497411       0.21496889
Pt       9.02937918       0.76777572       2.19150447        3       0.00000000      -0.02337323       0.10568140       0.11923344
Ni       2.55079327       2.93805258       2.21064659        3       1.00000000      -0.05227425       0.07405047      -0.02655177
Ni       5.17346049       2.92410233       2.24996817        3       1.00000000      -0.02512808      -0.11387630       0.04661832
Ni       7.72765150       2.92762258       2.24133534        3       1.00000000       0.01438195       0.00677560      -0.01493155
Ni      10.33240557       2.91798844       2.22113364        3       1.00000000       0.02462053       0.00599944       0.14719795
Pt       3.90300459       5.14895624       2.16099401        3       0.00000000       0.00564497      -0.05027642      -0.09876924
Ni       6.44264386       5.15642796       2.21640255        3       1.00000000       0.04857974      -0.00234072      -0.03666173
Pt       8.98945725       5.12954762       2.28538398        3       0.00000000      -0.06975254      -0.03913938      -0.01956045
Pt      11.61827392       5.11368200       2.22162619        3       0.00000000       0.04498564      -0.03185387      -0.00115900
Ni       5.15427716       7.38958723       2.18278261        3       1.00000000      -0.08765531      -0.01035383      -0.04556200
Ni       7.71570636       7.39628137       2.18765732        3       1.00000000       0.03934227      -0.03719956      -0.01154127
Pt      10.36302491       7.42922332       2.15961351        3       0.00000000       0.12677473      -0.01143322       0.01934995
Ni      12.89562361       7.38207652       2.18781177        3       1.00000000       0.03985847      -0.07298061      -0.05359771
Ni      -0.01939275       1.52847766       4.33472016        2       1.00000000      -0.03350504       0.11524469      -0.02365602
Pt       2.57662405       1.55887734       4.24681025        2       0.00000000      -0.00811016       0.09644518       0.11344814
Ni       5.20893240       1.46891463       4.31892397        2       1.00000000       0.02291352      -0.09185250      -0.15539404
Ni       7.72198196       1.47093926       4.34378680        2       1.00000000       0.00157064      -0.09948967      -0.08853329
Ni       1.26953751       3.73658236       4.36394391        2       1.00000000      -0.04057309       0.03240150      -0.03858666
Ni       3.84721746       3.71596968       4.33971880        2       1.00000000      -0.10527652       0.01124443      -0.18763329
Pt       6.48346619       3.62888217       4.34136810        2       0.00000000      -0.00343656      -0.04477739      -0.17937264
Ni       9.06361769       3.68935889       4.36484641        2       1.00000000       0.12566179      -0.05816381      -0.07036228
Ni       2.52801230       5.87097172       4.40781004        2       1.00000000      -0.09940795      -0.05293704      -0.04755520
Pt       5.13293604       5.84754410       4.40409332        2       0.00000000      -0.01105882       0.00521294      -0.08079239
Ni       7.75437027       5.85879772       4.37222441        2       1.00000000      -0.02782713      -0.02041890      -0.06695857
Ni      10.35719972       5.84994957       4.39855002        2       1.00000000       0.08223935      -0.01508428      -0.00850210
Pt       3.78473631       8.10211987       4.29992931        2       0.00000000      -0.06241357      -0.06954813       0.08194458
Pt       6.44487826       8.10717140       4.26621746        2       0.00000000      -0.07190807       0.08436362      -0.01668688
Pt       9.07619093       8.08938081       4.30248201        2       0.00000000      -0.02189073      -0.05580156       0.05280721
Ni      11.60799572       8.09581005       4.34369758        2       1.00000000      -0.01825150      -0.06123964      -0.08605603
Pt      -0.01290636      -0.07106750       6.56970283        1       0.00000000       0.02971086      -0.08477202       0.11090779
Pt       2.58360921      -0.03816393       6.58998157        1       0.00000000      -0.06705870       0.01589953       0.20827715
Pt       5.19458141      -0.02008219       6.53426406        1       0.00000000       0.04020188      -0.04399477       0.04328548
Pt       7.71924211      -0.06370139       6.55713524        1       0.00000000      -0.04682761      -0.13247099       0.14720614
Pt       1.28302189       2.31727381       6.52980076        1       0.00000000       0.04037480       0.06850499       0.16019145
Pt       3.93769162       2.31997484       6.44471486        1       0.00000000       0.04314677       0.19472247      -0.24518706
Ni       6.45610835       2.23608482       6.44252920        1       1.00000000      -0.00628614       0.01053695      -0.21295175
Pt       8.97320287       2.28936603       6.49132049        1       0.00000000      -0.03227465       0.06555816       0.02392882
Ni       2.58219080       4.49529741       6.48245445        1       1.00000000       0.02985097       0.13446881      -0.25281858
Ni       5.17203436       4.45499263       6.52106281        1       1.00000000       0.07260347       0.11784703      -0.07744571
Ni       7.70071118       4.42227649       6.41393745        1       1.00000000      -0.18937006       0.00226815      -0.35638234
Ni      10.34939441       4.44497420       6.48680303        1       1.00000000       0.14715769       0.01682827      -0.23507661
Ni       3.84295366       6.56418622       6.51647045        1       1.00000000      -0.09345990      -0.13576291      -0.08455526
Ni       6.43571823       6.56887208       6.44713525        1       1.00000000       0.05604285      -0.06563743      -0.20828635
Pt       9.04399914       6.50126766       6.52713897        1       0.00000000      -0.01093252      -0.06656203       0.10946724
Ni      11.63338578       6.56243320       6.48972640        1       1.00000000       0.01579324      -0.10406646      -0.23172813
