64
Lattice="10.338759542409889 -0.010532791831070872 0.016393620596911646 5.1602581059064665 8.874750298408262 0.0147587066053012 0.0 0.0 21.554044718653127" Properties=species:S:1:pos:R:3:tags:I:1:initial_magmoms:R:1:forces:R:3 unique_id=4ab48f64c73445059a513cb0dc51ec94 energy=-375.7055973912776 stress="0.0053662089865768765 -3.5852969917203703e-05 0.00031020450591673864 -3.5852969917203703e-05 0.005313662799775539 0.00015973845263232196 0.00031020450591673864 0.00015973845263232196 -0.002240501503274749" pbc="T T T"
Ni       0.00109075       0.02304177       0.11760282        1       1.00000000       0.10322116      -0.00306152      -0.19286479
Ni       2.58344775       0.00670168       0.15172356        2       1.00000000      -0.03151768       0.02897879      -0.11901120
Ni       5.16484943      -0.01303959       0.10021079        1       1.00000000      -0.00441732       0.19801754      -0.36128881
Ni       7.76038677      -0.04484703       0.12880646        1       1.00000000      -0.09341771      -0.10701413      -0.24492868
Ni       1.26130559       2.22601200       0.12662066        1       1.00000000      -0.08769315       0.03665216       0.07216089
Pt       3.81665731       2.22465259       0.05249103        1       0.00000000      -0.03263162      -0.01230349      -0.01862230
Pt       6.48385352       2.16698950       0.05729038        1       0.00000000       0.06926298      -0.07668306      -0.01250056
Ni       9.08461528       2.21556161       0.09648764        1       1.00000000       0.06859977       0.13006517      -0.08479129
Ni       2.56196069       4.45770949       0.00000000        0       1.00000000      -0.06011480      -0.04479383       0.14378200
Ni       5.15927796       4.44423830       0.10349066        1       1.00000000       0.17631480      -0.07358012      -0.33133773
Pt       7.82617948       4.44554415       0.05589944        1       0.00000000       0.04070459      -0.00097897      -0.00809490
Ni      10.35918293       4.42701247       0.03021113        0       1.00000000       0.03480662      -0.10022414       0.21387023
Ni       3.83555055       6.67606881       0.03303487        0       1.00000000      -0.02694247       0.14105114       0.27868307
Pt       6.43250597       6.70467307       0.14830652        1       0.00000000      -0.00567812       0.04194784      -0.63314489
Ni       9.06249990       6.66528355       0.03258135        0       1.00000000      -0.09334520       0.00032067       0.11134196
Ni      11.64159782       6.64998486       0.01830561        0       1.00000000       0.10264270       0.03701473       0.20214340
Ni       1.30554804       0.76391961       2.10391624        3       1.00000000       0.01228527       0.10450411       0.04356477
Ni       3.86890171       0.76191861       2.14241099        3       1.00000000       0.02319170       0.07970237       0.16166176
Ni       6.45851851       0.76235967       2.17125350        4       1.00000000      -0.03355985       0.16810042       0.21559447
Pt       9.05465808       0.77964232       2.13148038        3       0.00000000      -0.02671782       0.15058503       0.15832197
Ni       2.56773393       2.93664002       2.14595802        3       1.00000000      -0.03864461      -0.01340209       0.07591646
Ni       5.17527028       2.92701789       2.18203617        4       1.00000000      -0.01071947      -0.12593288       0.21029022
Ni       7.76949297       2.96619621       2.18828401        4       1.00000000       0.06364212       0.06594535       0.18335376
Ni      10.33444522       2.94349453       2.16759434        4       1.00000000      -0.02033772       0.00655881       0.15318036
Pt       3.88887186       5.15631667       2.10560379        3       0.00000000       0.01611506      -0.07474174      -0.01742892
Ni       6.49730247       5.15919635       2.17528047        4       1.00000000       0.12075982      -0.07749798       0.16574908
Ni       9.01796944       5.14972180       2.18915873        4       1.00000000      -0.07590030      -0.12326609       0.23763666
Pt      11.60886447       5.10541519       2.12929642        3       0.00000000      -0.05355462      -0.08929338       0.02662758
Ni       5.15466884       7.41330167       2.14468430        3       1.00000000      -0.12582305       0.02556749       0.06580739
Ni       7.75183053       7.39241605       2.15715941        4       1.00000000       0.04951077      -0.05161918       0.09964680
Pt      10.31188729       7.40527278       2.06916164        3       0.00000000       0.00040043      -0.09676143      -0.09978057
Ni      12.92552469       7.38830874       2.12872383        3       1.00000000       0.01424585      -0.03612446      -0.02378399
Ni      -0.01005566       1.55214861       4.28232184        6       1.00000000       0.00522482       0.14743126      -0.18298732
Pt       2.60705278       1.58499838       4.22607040        5       0.00000000      -0.01909546      -0.01115456      -0.08106111
Ni       5.18308977       1.51203539       4.29983445        6       1.00000000      -0.00793867       0.02000862      -0.25071336
Ni       7.76821355       1.50041840       4.29949443        6       1.00000000       0.09261871      -0.09633273      -0.24442900
Ni       1.29573290       3.71040249       4.30501166        6       1.00000000      -0.00554829      -0.06326890      -0.18175767
Ni       3.85687978       3.69996408       4.31445692        6       1.00000000      -0.00647731       0.03670229      -0.21038020
Pt       6.51570413       3.63690049       4.26531218        6       0.00000000       0.00448704      -0.01321650      -0.14172294
Ni       9.05810413       3.67323978       4.28847976        6       1.00000000       0.06398272      -0.16332706      -0.34901462
Ni       2.56966242       5.86919324       4.36032143        7       1.00000000      -0.01981770      -0.13819094      -0.04097091
Pt       5.14440916       5.86490232       4.27543689        6       0.00000000       0.00791690      -0.06188782      -0.08788275
Ni       7.78061965       5.86536788       4.29718431        6       1.00000000       0.00160215      -0.09449623      -0.33027603
Pt      10.32979991       5.81126312       4.39304968        7       0.00000000       0.01161821      -0.01895761      -0.04069985
Pt       3.85793666       8.14491197       4.27466390        6       0.00000000      -0.00198312       0.02198993       0.02596071
Pt       6.45921022       8.16401645       4.20063519        5       0.00000000      -0.08039609       0.16950241      -0.17612142
Pt       9.03770131       8.12344228       4.27940808        6       0.00000000      -0.10279747       0.01786734      -0.07912372
Pt      11.63860298       8.14967426       4.26995715        6       0.00000000       0.03248186       0.00467957      -0.12174434
Pt       0.00072352      -0.00784800       6.52544879        9       0.00000000       0.09950673       0.19726556       0.35127233
Pt       2.62131468       0.01191534       6.55404472       10       0.00000000      -0.04475607       0.05563149       0.40806544
Pt       5.18494400       0.00445403       6.52421452        9       0.00000000       0.00874979       0.12048186       0.38262364
Pt       7.74110211      -0.04105148       6.55323829       10       0.00000000      -0.04826573       0.11106721       0.35205410
Pt       1.32389836       2.34675263       6.49221760        9       0.00000000      -0.09972487       0.04225667       0.01362070
Ni       3.89100879       2.23854776       6.39326634        8       1.00000000      -0.00042297      -0.10437042       0.09446968
Ni       6.46056372       2.22216125       6.39847064        8       1.00000000      -0.02405018      -0.14032014       0.15242824
Pt       9.00867959       2.30875528       6.45719943        9       0.00000000       0.01760503      -0.04162843       0.05107617
Ni       2.57504123       4.48936965       6.45190578        9       1.00000000      -0.03086756       0.10056252      -0.27871141
Pt       5.10961357       4.36289495       6.51440147        9       0.00000000       0.00927463      -0.03982826       0.18339982
Ni       7.78730685       4.44453971       6.39783062        8       1.00000000       0.00520591       0.10022088       0.00923617
Ni      10.34414170       4.47494474       6.49631277        9       1.00000000      -0.02299442      -0.02431979      -0.10077300
Ni       3.83149107       6.61408337       6.48263793        9       1.00000000      -0.02746700      -0.07592132      -0.17496568
Pt       6.51358304       6.58292092       6.44512300        8       0.00000000       0.09288071      -0.15433574       0.64823592
Ni       9.08330859       6.59800715       6.49496324        9       1.00000000      -0.03149458      -0.01346073      -0.07442560
Ni      11.64286951       6.58864831       6.49938119        9       1.00000000       0.04625415       0.00161644      -0.19643618
