64
Lattice="10.467335745942075 0.0032407577872304626 0.07113829129692811 5.2364744515422865 9.113091914930827 0.00441462718239129 0.0 0.0 21.73345327502211" Properties=species:S:1:pos:R:3:tags:I:1:initial_magmoms:R:1:forces:R:3 unique_id=cc5e8273768e44e68c0831e5072646ab energy=-386.0200241316779 stress="0.005612218346357658 -9.175805910527592e-05 0.0003991381003006447 -9.175805910527592e-05 0.005828634962475692 -0.00020099407095873687 0.0003991381003006447 -0.00020099407095873687 -0.0024898241621220223" pbc="T T T"
Pt      -0.10719128      -0.02789349       0.06133336        1       0.00000000      -0.18551263      -0.12466030      -0.52745276
Ni       2.65569390      -0.04000016       0.00000000        0       1.00000000       0.06178615      -0.05862550       0.37061811
Ni       5.26091761      -0.04535539       0.08541293        1       1.00000000       0.12987733       0.06755939      -0.06051549
Ni       7.83401332      -0.03779746       0.07300889        1       1.00000000      -0.12051728      -0.12694653       0.54290267
Pt       1.27519149       2.27392586       0.01415933        0       0.00000000       0.09515369       0.00723433      -1.01054236
Pt       3.97309372       2.24129798       0.04277072        0       0.00000000       0.14393789       0.11266516      -0.87567018
Pt       6.60161624       2.20024837       0.08623470        1       0.00000000      -0.12926185      -0.14823371      -0.07341400
Ni       9.15044404       2.27242781       0.03823436        0       1.00000000       0.04783906      -0.09178305       0.29668020
Pt       2.62698093       4.64110798       0.00759782        0       0.00000000       0.02948383      -0.02217503      -1.02617840
Ni       5.26775051       4.55642046       0.07998623        1       1.00000000       0.18220317      -0.10452265       0.01224855
Pt       7.92737600       4.56381802       0.09577038        1       0.00000000      -0.01665883       0.09936724       0.03427868
Ni      10.46167263       4.59535994       0.02732318        0       1.00000000       0.07211059       0.12020548       0.30413550
Ni       3.91306881       6.86152790       0.08075997        1       1.00000000      -0.07946680       0.11656108      -0.00140488
Pt       6.57094211       6.84074216       0.13475879        1       0.00000000      -0.04056105      -0.00854092      -0.21127504
Ni       9.19412485       6.84593925       0.02660934        0       1.00000000      -0.00051484      -0.04912238       0.48087801
Ni      11.78101272       6.87495392       0.10603796        1       1.00000000       0.14847246       0.05837360       0.00117058
Pt       1.30794286       0.66179502       2.16925233        3       0.00000000       0.09525495      -0.11428721       0.23535120
Pt       4.01749791       0.73311808       2.21124773        3       0.00000000       0.04161052      -0.06894336       0.22157846
Ni       6.59693903       0.73718404       2.22984059        3       1.00000000       0.05853905      -0.06504286       0.16909283
Ni       9.10195500       0.73594113       2.22966168        3       1.00000000      -0.17264909       0.06024373       0.08652855
Pt       2.65257605       3.04955768       2.20640478        3       0.00000000      -0.04778031       0.04650420       0.42076898
Ni       5.28874213       3.03183424       2.22008490        3       1.00000000       0.03457872       0.04356871       0.29034993
Pt       7.79619931       3.02228104       2.33787492        4       0.00000000      -0.04328478      -0.02780968       0.16511905
Pt      10.37854978       3.05579827       2.21142871        3       0.00000000      -0.20802710       0.05858845       0.07238803
Pt       4.03856930       5.38060330       2.13372730        2       0.00000000       0.17531459       0.06887675       0.13953031
Ni       6.60960047       5.31368521       2.22401045        3       1.00000000       0.11303286      -0.03370513       0.30609041
Ni       9.13141930       5.34612194       2.26231683        4       1.00000000      -0.09938272       0.07408165       0.21525140
Pt      11.73122329       5.36568779       2.21928257        3       0.00000000      -0.10214413      -0.00825915       0.18740023
Ni       5.23661140       7.58543679       2.17758545        3       1.00000000      -0.00910724       0.01355456       0.28181376
Ni       7.88186870       7.52728409       2.21149495        3       1.00000000       0.08029008      -0.11191715       0.20297029
Pt      10.46835639       7.57845080       2.14113252        2       0.00000000      -0.08103191       0.05159209       0.10013830
Ni      13.11640455       7.65021040       2.18578493        3       1.00000000       0.01753993       0.10321975       0.02638395
Pt      -0.10844512       1.56379353       4.37411129        6       0.00000000      -0.22986707       0.09354408      -0.28029963
Pt       2.66362027       1.47130051       4.41325466        6       0.00000000      -0.06189323      -0.08928745      -0.22951497
Ni       5.32307379       1.51666433       4.39283004        6       1.00000000       0.05338697       0.01916409      -0.34667786
Ni       7.84725739       1.53947662       4.42012130        6       1.00000000      -0.05896278       0.02839337      -0.17175949
Pt       1.22338530       3.84623883       4.40455811        6       0.00000000      -0.11368125       0.10918221      -0.24420690
Pt       4.06126054       3.74416263       4.36105601        6       0.00000000       0.08718778       0.02374837      -0.26732369
Ni       6.62469403       3.76394185       4.42488296        6       1.00000000       0.04049051       0.03073470      -0.20176515
Ni       9.13700521       3.82550409       4.43153196        6       1.00000000      -0.10434853       0.03354383      -0.24131104
Pt       2.61344691       6.09651102       4.35292190        6       0.00000000       0.02072025       0.03354279      -0.23812806
Pt       5.37073400       6.02068863       4.34877994        5       0.00000000       0.05299498      -0.10382426      -0.20958488
Ni       7.93920413       6.00379048       4.38655836        6       1.00000000       0.09479933      -0.11466898      -0.30661870
Ni      10.42581899       6.04289696       4.47674486        7       1.00000000      -0.07518305      -0.01837741      -0.09171398
Pt       3.92703663       8.37113206       4.29922677        5       0.00000000      -0.01805226      -0.01598508      -0.24715643
Pt       6.59540555       8.29759377       4.37174877        6       0.00000000      -0.00578044       0.07174912      -0.23359030
Pt       9.19935571       8.24127601       4.45619217        7       0.00000000       0.01523398      -0.06560301      -0.06747695
Pt      11.79610715       8.42592109       4.39967188        6       0.00000000      -0.06822854       0.06606380      -0.12569425
Pt      -0.00850503       0.01796101       6.59624556        9       0.00000000       0.03829784      -0.02871345       0.45939574
Ni       2.66347531      -0.03506261       6.65241608       10       1.00000000      -0.09989577       0.09379439      -0.17546950
Pt       5.23811429      -0.05244126       6.72399837       10       0.00000000       0.03469180       0.15164364      -0.06387170
Ni       7.88177190      -0.00704945       6.67819830       10       1.00000000      -0.03058624      -0.04971814      -0.38802270
Pt       1.27155654       2.27342855       6.58074078        9       0.00000000       0.00995572      -0.00523308       0.85744462
Pt       3.96874518       2.21537174       6.58599467        9       0.00000000       0.14057329      -0.02015036       0.84936107
Pt       6.66609027       2.21208430       6.54924258        8       0.00000000      -0.11366117       0.05334799       0.20044371
Ni       9.19222514       2.27008783       6.67799289       10       1.00000000      -0.01526008       0.01982403      -0.29266447
Pt       2.61714534       4.53947001       6.57442831        9       0.00000000       0.09599118      -0.05780506       0.87783926
Pt       5.32244990       4.53487645       6.67674849       10       0.00000000       0.24053579      -0.04037038       0.16181889
Pt       8.00732878       4.54058311       6.55213986        9       0.00000000      -0.15728785      -0.00064721       0.06104273
Ni      10.47648043       4.55143745       6.67356294       10       1.00000000       0.01852735       0.02186761      -0.24469734
Pt       3.93730715       6.85725299       6.69284685       10       0.00000000       0.10889296      -0.00711918       0.01029197
Pt       6.68434446       6.84967307       6.62230267        9       0.00000000      -0.04044951      -0.08727568       0.27457323
Ni       9.20574004       6.80640855       6.65490428       10       1.00000000       0.06038175      -0.03778210      -0.26643548
Pt      11.72696941       6.80271840       6.73345328       10       0.00000000      -0.11064803      -0.04520472      -0.19544262
