64
Lattice="10.511494002920758 0.0024686028962186217 0.009152789181050315 5.25788487428036 9.143123582501389 -0.0021627754341672573 0.007473221072279925 -0.006353750432038844 9.09782792577967" Properties=species:S:1:pos:R:3:tags:I:1:initial_magmoms:R:1:forces:R:3 unique_id=d92a3b53b3a643c1bcc4b5ccf18e18bc stress="-0.005238626242381993 -6.344295975389419e-06 1.0403515729371886e-05 -6.344295975389419e-06 -0.0052741713404255985 6.100516052110293e-06 1.0403515729371886e-05 6.100516052110293e-06 -0.004233649585703832" energy=-413.9333187758276 pbc="T T T"
Pt       0.01949638       0.03430123       0.00032127        4       0.00000000      -0.00792064      -0.00749422      -0.18345122
Ni       2.64149651       0.01570054       0.14700471        4       1.00000000       0.01126954       0.00252988       0.29941103
Pt       5.19005139       0.02341656       0.05114266        4       0.00000000      -0.05944850       0.08511641      -0.03719895
Pt       7.86812053       0.01796520       0.10497359        4       0.00000000      -0.02934440       0.00665990      -0.00847771
Pt       1.31985910       2.27304852       0.01173406        4       0.00000000       0.04832962      -0.02804045      -0.19564923
Ni       3.93223923       2.26790046       0.15424465        4       1.00000000      -0.01482922       0.01011362       0.31489672
Pt       6.62749066       2.32189897       0.10554393        4       0.00000000       0.10528609       0.03968399       0.04744478
Ni       9.20455662       2.31765134       0.06407195        4       1.00000000       0.02312353       0.01685425       0.06904174
Pt       2.59688070       4.57330807       0.12172552        4       0.00000000      -0.07873874       0.03542016      -0.03698347
Pt       5.28705651       4.54557170       0.12555773        4       0.00000000      -0.01841795      -0.02727956      -0.00098514
Ni       7.90361190       4.56211985       0.07970106        4       1.00000000       0.01127477       0.00816910       0.12889888
Pt      10.44885425       4.54229342       0.09867451        4       0.00000000      -0.07062817      -0.09769571      -0.04017984
Pt       3.91743208       6.85701382       0.09250645        4       0.00000000      -0.00758920      -0.00586630      -0.10799832
Pt       6.61758565       6.83594247       0.12546417        4       0.00000000       0.03997067      -0.02791335       0.00002081
Pt       9.22142603       6.82955166       0.01948398        4       0.00000000       0.04799349      -0.01148847      -0.15579064
Ni      11.80469049       6.85260851       0.12887548        4       1.00000000      -0.07583767      -0.02032020       0.15011257
Pt       1.34017923       0.79021062       2.30262205        3       0.00000000       0.00040670       0.01769322       0.02831957
Ni       3.94070564       0.75848061       2.27875440        3       1.00000000       0.03100975      -0.02356658       0.11076617
Pt       6.54972559       0.75888136       2.36985652        3       0.00000000       0.00598834      -0.01341240       0.07415956
Pt       9.22305779       0.86680333       2.34287679        3       0.00000000       0.06009380       0.16351875      -0.00520160
Pt       2.59581137       3.05486924       2.31938650        3       0.00000000      -0.04332992       0.01943991       0.05449517
Pt       5.26554298       3.05143173       2.35306015        3       0.00000000       0.03014300       0.01220141       0.12267357
Pt       7.95048986       3.15907107       2.36509821        3       0.00000000       0.03694822       0.10292636       0.09005664
Ni      10.50760021       3.09451814       2.31173431        3       1.00000000       0.00673314       0.09775105       0.03045188
Pt       3.93068623       5.30189529       2.34466713        3       0.00000000      -0.04404816       0.01923543       0.04703202
Ni       6.62077271       5.31323927       2.29936044        3       1.00000000       0.09024023       0.01158433       0.03182776
Ni       9.21958421       5.31049547       2.31354461        3       1.00000000       0.11776443      -0.01457420       0.06360270
Ni      11.76556025       5.30569399       2.30036955        3       1.00000000      -0.16506613      -0.11228712       0.04692179
Pt       5.26864563       7.61071160       2.31564490        3       0.00000000      -0.02239900       0.05412916       0.00306776
Pt       7.93111784       7.58770879       2.31259717        3       0.00000000       0.03176615      -0.04307441       0.08633435
Pt      10.51128862       7.53819842       2.34378477        3       0.00000000       0.01976354      -0.06731241       0.06122705
Pt      13.09367648       7.59142790       2.31234827        3       0.00000000       0.01142519      -0.00004708       0.01729827
Ni      -0.04365764       1.56789478       4.57316766        2       1.00000000      -0.11870253       0.07038929       0.00450720
Pt       2.62111723       1.56624922       4.53663863        2       0.00000000       0.01730974       0.03435685       0.06546363
Pt       5.30574885       1.53412059       4.54753783        2       0.00000000       0.01703160       0.00240694       0.09452361
Ni       7.93149747       1.58034464       4.53877162        2       1.00000000       0.10320621       0.17257260      -0.06244495
Pt       1.16777398       3.80159814       4.51795029        2       0.00000000      -0.17852147      -0.01979251      -0.07397945
Ni       3.95026394       3.79126569       4.54005694        2       1.00000000      -0.05952846      -0.02425059       0.03297373
Ni       6.62412808       3.78985601       4.52116706        2       1.00000000       0.12421215      -0.06468696      -0.05401851
Ni       9.19173239       3.77219297       4.56127533        2       1.00000000      -0.08970980      -0.18273170       0.08325170
Pt       2.53997129       6.08685736       4.49770799        2       0.00000000      -0.11017330      -0.02551919      -0.02965381
Pt       5.29614101       6.01417194       4.48256765        2       0.00000000       0.06143151      -0.04631879      -0.08059556
Pt       7.97842478       5.96142836       4.51765304        2       0.00000000       0.08044722      -0.14174780      -0.10292011
Ni      10.50498032       6.06576359       4.53282010        2       1.00000000      -0.05526044      -0.08645745      -0.07168650
Pt       3.91837800       8.46472996       4.52198243        2       0.00000000      -0.01061672       0.02517709      -0.11231921
Pt       6.56689793       8.41243244       4.55392478        2       0.00000000       0.03997527       0.00237960       0.01936655
Pt       9.27215292       8.33776361       4.57981842        2       0.00000000      -0.01154303      -0.01695719       0.05303602
Ni      11.82380702       8.38149564       4.55295663        2       1.00000000       0.00828230       0.01634182      -0.00197458
Ni       0.00684111       0.05217851       6.67064209        1       1.00000000      -0.01091416       0.14716527      -0.25073591
Pt       2.63406488       0.00147041       6.81020355        1       0.00000000      -0.00893381       0.00517678       0.21446219
Ni       5.26220887      -0.01060928       6.69482704        1       1.00000000       0.05030135       0.05837479      -0.11452165
Pt       7.88667836       0.05143110       6.67603742        1       0.00000000      -0.01775834       0.04190880      -0.00336479
Ni       1.25257509       2.27214832       6.67299584        1       1.00000000      -0.20719867      -0.02367863      -0.26314443
Pt       3.94403926       2.25560710       6.79124746        1       0.00000000       0.06221550       0.00684216       0.23171826
Pt       6.67946634       2.32558059       6.67010655        1       0.00000000       0.24423680       0.17073978       0.03243810
Ni       9.24275203       2.30817725       6.71939154        1       1.00000000       0.17654779       0.07288046      -0.22003537
Pt       2.56093001       4.52734543       6.68285467        1       0.00000000      -0.13917212      -0.06566371      -0.02643186
Pt       5.30496669       4.54396310       6.67388941        1       0.00000000      -0.01132330      -0.00988581      -0.00414905
Ni       7.95569776       4.55376592       6.73735323        1       1.00000000       0.22159618      -0.02314912      -0.12199480
Ni      10.45987139       4.54949621       6.68742732        1       1.00000000      -0.19203496      -0.03513532      -0.15539445
Pt       3.95193153       6.88478920       6.68714536        1       0.00000000      -0.00850680       0.00812228      -0.06265399
Pt       6.64493348       6.83098734       6.70939075        1       0.00000000       0.08967463      -0.09359072       0.01167019
Ni       9.21240652       6.81354373       6.68471563        1       1.00000000      -0.03819244      -0.17426930      -0.21582811
Pt      11.71197629       6.86224774       6.74602368        1       0.00000000      -0.12031041      -0.00365419       0.07829123
