64
Lattice="10.335601504024138 0.006288900987390951 0.023898561294488297 5.173247100029033 8.893695340577754 0.008260984423656153 0.0 0.0 21.605464728435834" Properties=species:S:1:pos:R:3:tags:I:1:initial_magmoms:R:1:forces:R:3 unique_id=10bf87c45c9e482f84cf52caf3c17b79 stress="0.0014007547276787512 0.00014385767131204176 0.0002930327406969629 0.00014385767131204176 0.0012998673593219087 0.00017599724145013072 0.0002930327406969629 0.00017599724145013072 -0.006524043006050639" energy=-378.3131815499331 pbc="T T T"
Ni       0.01362791       0.00586752       0.15498839        2       1.00000000       0.13087551       0.02830879      -0.13890334
Ni       2.58503164       0.01244659       0.19053085        2       1.00000000      -0.02304457       0.05228405      -0.00597756
Ni       5.16280295      -0.01255235       0.13479429        1       1.00000000      -0.04196180       0.09884011      -0.41107868
Ni       7.75211394      -0.05661161       0.18035425        2       1.00000000      -0.06830213      -0.04947819      -0.23237186
Ni       1.30225623       2.23043971       0.16069081        2       1.00000000       0.01740719      -0.01709486       0.11713913
Pt       3.79199680       2.18754133       0.15993506        2       0.00000000       0.03898482       0.01786993      -0.35286686
Pt       6.46695413       2.13770882       0.08363479        1       0.00000000       0.04719903       0.00572573      -0.12761604
Pt       9.14649771       2.22909634       0.10523642        1       0.00000000      -0.01446671       0.12794940      -0.63323678
Ni       2.54412553       4.47337138       0.02966501        0       1.00000000       0.01410244      -0.05793091       0.14998117
Pt       5.12979260       4.47337936       0.12122230        1       0.00000000       0.21662467      -0.10878938      -1.05427722
Pt       7.81254135       4.49617359       0.00000000        0       0.00000000      -0.15516676      -0.06018367      -0.35299796
Ni      10.39572393       4.48413349       0.05239266        1       1.00000000       0.04162162      -0.03744538       0.07370243
Ni       3.82497126       6.71485417       0.06826786        1       1.00000000       0.02055134       0.06764173       0.28822940
Pt       6.46963727       6.77886918       0.17316288        2       0.00000000       0.01061266      -0.03420029      -0.59896890
Ni       9.08684478       6.71073406       0.05158133        1       1.00000000      -0.04706728       0.07955438       0.06787313
Ni      11.65631716       6.68043594       0.04934776        0       1.00000000       0.07197584       0.07039340       0.23582898
Ni       1.33071625       0.75221241       2.20649191        4       1.00000000       0.04057846       0.03772977       0.26143498
Ni       3.84246753       0.77421024       2.22682287        4       1.00000000      -0.06994375       0.06841985       0.27861706
Ni       6.45722547       0.77601202       2.22408160        4       1.00000000      -0.02765327       0.14025507       0.21246467
Pt       9.06635010       0.75614598       2.22614406        4       0.00000000       0.01121131      -0.01293105       0.20109235
Ni       2.56623026       2.90841742       2.25309842        5       1.00000000      -0.01854713      -0.08207893       0.28313055
Ni       5.16431374       2.91609157       2.24575161        4       1.00000000      -0.04706177      -0.08342012       0.21720663
Ni       7.74445662       2.94334510       2.22244410        4       1.00000000      -0.06735249      -0.00583873       0.11870304
Ni      10.38753028       2.93418492       2.25623172        5       1.00000000       0.08054654      -0.07357564       0.25740030
Pt       3.86336940       5.18718188       2.22381719        4       0.00000000      -0.00362823      -0.00631898       0.10313351
Ni       6.47944292       5.19097996       2.20717284        4       1.00000000       0.00715758      -0.07614116       0.14995990
Pt       8.99940288       5.15910635       2.24291096        4       0.00000000      -0.01411628      -0.06356371       0.01940915
Pt      11.63878583       5.13303912       2.17822623        4       0.00000000      -0.08530872      -0.06242843       0.06961408
Ni       5.19952726       7.44137307       2.20173600        4       1.00000000      -0.00575247       0.05248028       0.22984065
Ni       7.72361208       7.46174694       2.22599224        4       1.00000000      -0.06689856       0.09704479       0.25711136
Pt      10.33902154       7.46519850       2.11132986        3       0.00000000      -0.04017041      -0.01711838       0.03239807
Ni      12.93687526       7.41934744       2.17099877        4       1.00000000       0.03280945       0.01672294       0.08795657
Ni       0.05935519       1.52389780       4.30109948        6       1.00000000       0.13488254      -0.00143008      -0.20422143
Ni       2.55876850       1.51917510       4.27818532        6       1.00000000      -0.08101014      -0.00208583      -0.23579441
Ni       5.16422790       1.50629582       4.29733940        6       1.00000000      -0.09147347       0.00686126      -0.31235769
Ni       7.76527296       1.49932829       4.32630499        6       1.00000000       0.01323834      -0.07311833      -0.27470040
Ni       1.32899061       3.67013078       4.31951968        6       1.00000000       0.04949743      -0.12060283      -0.16154531
Ni       3.83102397       3.67782980       4.30416560        6       1.00000000      -0.10933863      -0.09489531      -0.25240987
Pt       6.51781077       3.64388002       4.28947818        6       0.00000000       0.04741956      -0.07429717      -0.25746357
Ni       9.07488671       3.67873055       4.32216734        6       1.00000000       0.09913616      -0.13820457      -0.30097323
Ni       2.59303464       5.87898351       4.40106612        7       1.00000000       0.08525712      -0.10213526      -0.03901364
Pt       5.21267074       5.93642257       4.29402969        6       0.00000000      -0.00508485       0.04281887      -0.19411465
Ni       7.77352188       5.91449854       4.34496854        6       1.00000000       0.00149757      -0.01345109      -0.22726657
Pt      10.35811449       5.85040897       4.46717972        8       0.00000000      -0.00935426      -0.01674433       0.00153977
Pt       3.91810992       8.16014598       4.32664998        6       0.00000000       0.05655407       0.10749532      -0.03224149
Ni       6.47840003       8.19971895       4.29361150        6       1.00000000      -0.04959917       0.20071225      -0.23902210
Pt       8.97851527       8.18568568       4.30265664        6       0.00000000      -0.05620537       0.05897938      -0.00467784
Pt      11.65362045       8.17969429       4.30833220        6       0.00000000      -0.03434130       0.00080873      -0.07831471
Pt       0.00506016      -0.01827218       6.54571997       10       0.00000000       0.10348251       0.14960550       0.27412272
Pt       2.59941959      -0.01575641       6.56365348       11       0.00000000      -0.07464861       0.10994822       0.24011995
Pt       5.19098530      -0.06802279       6.57088862       11       0.00000000       0.00239302       0.09713998       0.33138290
Pt       7.74697481      -0.04900997       6.60546473       11       0.00000000      -0.03192145       0.15010901       0.28201615
Pt       1.29064571       2.33483568       6.48743088       10       0.00000000      -0.09473368      -0.00826015      -0.07784062
Pt       3.89757760       2.24335820       6.39739872        9       0.00000000       0.01099089      -0.06926268       0.39613250
Ni       6.47950662       2.22142775       6.42985354        9       1.00000000      -0.05866705      -0.13107546       0.10900833
Pt       9.00379078       2.31033581       6.39173647        9       0.00000000       0.07751148      -0.11812403       0.54958638
Ni       2.56537696       4.50542352       6.47380780       10       1.00000000       0.03033907       0.00499243      -0.26565627
Pt       5.15734362       4.44181671       6.44355826        9       0.00000000      -0.04786185      -0.08746521       0.86068200
Ni       7.80437757       4.46113055       6.39325843        9       1.00000000       0.02139876       0.08822897       0.13397695
Ni      10.35086107       4.48979524       6.53924644       10       1.00000000      -0.06335483      -0.08112422      -0.09600052
Ni       3.84250469       6.62557893       6.51018203       10       1.00000000      -0.00766799      -0.04693155      -0.16283643
Pt       6.54017654       6.61797941       6.45663640       10       0.00000000       0.08697603       0.03967023       0.61633926
Ni       9.09038068       6.60425129       6.52985970       10       1.00000000      -0.03927756      -0.03422150      -0.03711417
Ni      11.66180079       6.59676771       6.54307473       10       1.00000000       0.04814955       0.04337701      -0.14527389
