64
Lattice="10.165808692630442 -0.014413774606736356 -0.0005558770809432121 5.070421651341367 8.79334043280697 0.0025949909403045184 0.0 0.0 21.48128133078263" Properties=species:S:1:pos:R:3:tags:I:1:initial_magmoms:R:1:forces:R:3 unique_id=f9983ecfc4ea4d819e2be6731b941068 energy=-369.4208097951834 stress="0.0018182674605986757 2.725753471099626e-05 -6.186004324930866e-06 2.725753471099626e-05 0.0017872496632598215 -0.00012073750366491757 -6.186004324930866e-06 -0.00012073750366491757 -0.005260415094117853" pbc="T T T"
Ni       0.02359343       0.02754495       0.11159455        1       1.00000000       0.08062496       0.07278819      -0.77558432
Ni       2.51164962      -0.00542278       0.17052068        2       1.00000000       0.01233824      -0.04595441      -0.29712972
Ni       5.12379141      -0.00385781       0.07549885        1       1.00000000      -0.07233869      -0.04442613       0.18422878
Ni       7.59386046       0.00369015       0.01420367        0       1.00000000       0.01522778      -0.01537308       0.00519898
Ni       1.22884830       2.22096952       0.07436541        1       1.00000000       0.05620182      -0.01537386       0.20543994
Pt       3.80207944       2.19940052       0.16749870        2       0.00000000      -0.03447526       0.00579159      -0.85554239
Ni       6.38804583       2.18976722       0.07403765        1       1.00000000      -0.07102168       0.04510392       0.16122229
Ni       8.89181675       2.23732912       0.02430539        0       1.00000000       0.04291492      -0.00707718       0.07946553
Ni       2.50064933       4.42379010       0.07451671        1       1.00000000       0.07622136      -0.04115816       0.24046395
Ni       5.06416451       4.39855793       0.14754778        1       1.00000000      -0.16397591      -0.05410219      -0.50501411
Ni       7.63693892       4.33555453       0.03444681        0       1.00000000       0.10360280       0.06165171       0.00907204
Ni      10.17691118       4.35136965       0.07051645        1       1.00000000      -0.04892420       0.11230504       0.13413680
Ni       3.79133847       6.57212880       0.02132121        0       1.00000000      -0.00558867      -0.05613965       0.06580668
Ni       6.33143351       6.59333163       0.00000000        0       1.00000000       0.07716529       0.01207368      -0.00294447
Pt       8.89234498       6.58053857       0.13706894        1       0.00000000      -0.01106640      -0.03938864      -0.59020605
Ni      11.43460798       6.56227576       0.00952188        0       1.00000000      -0.10422188      -0.05552885       0.11051384
Ni       1.30034420       0.76892765       2.09479331        3       1.00000000       0.05058421       0.13440019       0.05428323
Ni       3.81742624       0.66665561       2.12695314        3       1.00000000       0.02895955      -0.13520841       0.08243290
Ni       6.31096390       0.73514106       2.08475359        3       1.00000000      -0.05928745       0.02518135      -0.01475689
Pt       8.89993057       0.81210036       2.07603256        3       0.00000000      -0.07495630      -0.02475627       0.02884293
Ni       2.51079488       2.97064814       2.13929706        3       1.00000000      -0.02496062       0.05818863       0.08737205
Ni       5.07818290       2.91673293       2.15733212        4       1.00000000       0.01619466       0.00513147       0.13080188
Ni       7.62321406       2.93154110       2.08865270        3       1.00000000      -0.01209541       0.06734562       0.03264877
Ni      10.19244395       2.96031194       2.09822628        3       1.00000000       0.02804716       0.05968164       0.02221694
Ni       3.76749852       5.07358753       2.14688611        3       1.00000000      -0.03832852      -0.04863029       0.10540565
Pt       6.40607789       5.10752841       2.09099413        3       0.00000000       0.11654863       0.00776336       0.05186003
Ni       8.94331741       5.11375188       2.15951524        4       1.00000000       0.09816583      -0.01266132       0.06877820
Ni      11.39667651       5.09145677       2.10243513        3       1.00000000      -0.04023458       0.01558861      -0.01271268
Pt       5.12257658       7.32366465       2.11055814        3       0.00000000      -0.02978689      -0.03712715       0.02840523
Ni       7.65598012       7.35841858       2.19849567        4       1.00000000      -0.00170661       0.05375535       0.23545964
Ni      10.12183905       7.32790890       2.19799988        4       1.00000000      -0.01546913       0.03249797       0.13810878
Pt      12.60456406       7.26228682       2.10568131        3       0.00000000       0.01666660       0.01806004      -0.02103262
Ni       0.00602807       1.46698215       4.28190535        6       1.00000000      -0.02861142       0.00527398      -0.10594970
Pt       2.48049137       1.41257952       4.17674703        5       0.00000000      -0.07668845      -0.10033148      -0.14057098
Pt       5.06615184       1.37218686       4.21821532        5       0.00000000      -0.02289116      -0.15197909      -0.09386203
Pt       7.63881504       1.42782752       4.33658559        6       0.00000000       0.03216205      -0.00030614       0.03568317
Pt       1.30776574       3.73452679       4.27092889        6       0.00000000       0.05371991      -0.01586459      -0.00811224
Ni       3.79876055       3.72536217       4.23412459        5       1.00000000      -0.00430774       0.03574381      -0.19306575
Pt       6.31216864       3.70430431       4.29516684        6       0.00000000       0.01376547       0.01074335      -0.02102092
Pt       8.91807899       3.72941957       4.28161402        6       0.00000000       0.00060766       0.09226328       0.01525458
Ni       2.53026849       5.85559998       4.30973136        6       1.00000000       0.03264866      -0.03443905      -0.07920903
Ni       5.06684772       5.86492383       4.28573591        6       1.00000000       0.03687131      -0.01720726      -0.11226340
Ni       7.60851668       5.91931714       4.25108831        6       1.00000000      -0.04867228       0.04742865      -0.15209474
Ni      10.19841918       5.90938245       4.21911409        5       1.00000000       0.08447490       0.00552078      -0.24639112
Pt       3.79375932       7.98239768       4.32127237        6       0.00000000      -0.01628107      -0.06556925      -0.06846339
Ni       6.36249759       8.00166955       4.27135505        6       1.00000000       0.04328689      -0.09168638      -0.10007629
Ni       8.88921314       7.99286355       4.22664303        5       1.00000000      -0.05424051      -0.01869809      -0.15758544
Ni      11.38644814       7.97578828       4.31012800        6       1.00000000      -0.03947486      -0.06590457      -0.05603419
Pt      -0.06027730       0.02531978       6.46842358        9       0.00000000       0.10303546       0.10331628       0.38608284
Pt       2.55347429      -0.03914423       6.44882687        8       0.00000000       0.05327697      -0.13319282       0.23317927
Ni       5.15016241      -0.03349995       6.40172418        8       1.00000000      -0.07475083      -0.08654135      -0.10671922
Ni       7.56338892      -0.04002136       6.42895581        8       1.00000000       0.01174710      -0.02305968       0.07193242
Ni       1.22251951       2.24643381       6.41886850        8       1.00000000      -0.00244160      -0.06299372      -0.07376060
Pt       3.79973590       2.24041336       6.36370825        8       0.00000000       0.06158230       0.27377975       0.95456625
Ni       6.39475378       2.17365636       6.44807458        8       1.00000000      -0.15356406       0.07048048       0.05903943
Ni       8.89079617       2.22804834       6.43374618        8       1.00000000       0.04706055       0.02102873       0.04563362
Ni       2.49565880       4.45972439       6.41681726        8       1.00000000       0.11168678       0.01198121      -0.10491604
Pt       5.07313835       4.49430108       6.48128133        9       0.00000000      -0.22994828      -0.12648757       0.39551694
Ni       7.63525060       4.36619586       6.43035260        8       1.00000000       0.05960152       0.04073881       0.08574862
Ni      10.20212975       4.36484909       6.44236487        8       1.00000000      -0.01186804       0.04972490      -0.09515623
Ni       3.74292244       6.58906155       6.41259532        8       1.00000000      -0.04347139       0.00829256       0.07510282
Ni       6.34551447       6.58781287       6.36132517        8       1.00000000       0.08320234       0.06618244      -0.02264545
Pt       8.95049428       6.50804723       6.29957154        7       0.00000000       0.03504006       0.05301096       0.58731285
Ni      11.47252409       6.57864882       6.37119441        8       1.00000000      -0.06758385      -0.05565170      -0.19439785
