64
Lattice="10.262636581248762 0.004362765808114029 -0.041807208798065286 5.1350965566449664 8.86436014678024 -0.10501801875299334 -0.034135443041751846 -0.07930383038029426 8.777857251516048" Properties=species:S:1:pos:R:3:tags:I:1:initial_magmoms:R:1:forces:R:3 unique_id=075e926975be47688d0f5a10d3632eff stress="-0.0003286096024659804 -2.464011606291173e-06 1.3785725220783692e-05 -2.464011606291173e-06 -0.0003191434781078875 2.0297713850994723e-05 1.3785725220783692e-05 2.0297713850994723e-05 -0.0002669027837715124" energy=-396.4014292043725 pbc="T T T"
Ni      -0.00370514       0.00909120       0.18786434        4       1.00000000      -0.00331459       0.04002059       0.22111242
Ni       2.56111001      -0.00764979       0.20506017        4       1.00000000      -0.00219802      -0.02450590       0.32740452
Ni       5.13395328      -0.03155216       0.05896789        4       1.00000000      -0.00471272      -0.02428134       0.01710464
Ni       7.69561267      -0.05172158       0.04959151        4       1.00000000      -0.04335035      -0.14226098       0.06856164
Ni       1.24182045       2.21137006       0.17292567        4       1.00000000      -0.16619309      -0.02567652       0.24831950
Pt       3.79054148       2.19892753       0.06652781        4       0.00000000      -0.08578422      -0.04875097      -0.12214061
Pt       6.46674115       2.19300756       0.14054604        4       0.00000000       0.09148470      -0.08310864       0.32433793
Ni       9.01301357       2.23413410       0.10012290        4       1.00000000       0.08301441       0.03104831       0.11290413
Ni       2.52838134       4.43590883      -0.00025275        4       1.00000000      -0.18461107      -0.07472617      -0.05061028
Ni       5.12586140       4.41831988       0.09725638        4       1.00000000       0.04845232      -0.15514236       0.28190033
Ni       7.75686458       4.42049660       0.00764936        4       1.00000000       0.17184937      -0.06777758       0.06495420
Ni      10.24570987       4.41408360      -0.00644578        4       1.00000000      -0.08103483      -0.10402636       0.00255175
Ni       3.81248250       6.66441596      -0.00410517        4       1.00000000      -0.08387606       0.04313901       0.01688479
Pt       6.41419186       6.67635767      -0.03493227        4       0.00000000      -0.06348978      -0.07428795      -0.16468521
Ni       8.98968578       6.62265289       0.05832220        4       1.00000000      -0.06115265      -0.15413733       0.18890948
Ni      11.56365807       6.64539172      -0.05465915        4       1.00000000       0.01134178      -0.10445498      -0.08123227
Ni       1.27757107       0.73603264       2.14455324        3       1.00000000      -0.07240382       0.03355555      -0.01135326
Ni       3.84141523       0.73370345       2.17602815        3       1.00000000       0.07570745       0.02299824       0.01496125
Ni       6.39949220       0.72415158       2.21394653        3       1.00000000       0.01876678       0.05794751       0.11347867
Pt       8.96341239       0.75583412       2.13870472        3       0.00000000      -0.06584244       0.00470285       0.01116424
Ni       2.51957130       2.90182720       2.15400279        3       1.00000000      -0.07667694       0.00668376      -0.05016837
Ni       5.11326421       2.88534443       2.18430518        3       1.00000000      -0.02664609      -0.11094493       0.01771643
Ni       7.75548156       2.94324518       2.16546613        3       1.00000000       0.16649854       0.05469903       0.02480534
Ni      10.24527163       2.93258123       2.14322890        3       1.00000000      -0.00454577      -0.02757654       0.12725882
Pt       3.81899555       5.17145950       2.06822664        3       0.00000000      -0.06642004       0.02810726      -0.07619512
Pt       6.49817779       5.14169874       2.11269136        3       0.00000000       0.07883481       0.09258976      -0.09656887
Ni       8.98352218       5.11866493       2.12475871        3       1.00000000       0.07596025      -0.03204977       0.07352331
Pt      11.48768743       5.09918126       2.11530986        3       0.00000000       0.02222125      -0.04381130      -0.03932216
Ni       5.12018085       7.39649110       2.07889756        3       1.00000000      -0.04195685      -0.00048686      -0.09684256
Ni       7.70305479       7.39824322       2.08313626        3       1.00000000       0.05951647       0.00536048      -0.00851042
Pt      10.27606597       7.40535537       2.03207804        3       0.00000000       0.04670399       0.01156569       0.00138266
Ni      12.81082822       7.39160366       2.04409363        3       1.00000000      -0.04362344       0.01169615      -0.08852151
Ni      -0.04378063       1.49934967       4.32099235        2       1.00000000      -0.06176369       0.11718037      -0.00057389
Pt       2.52055853       1.46579971       4.24178157        2       0.00000000      -0.05364135       0.12227296       0.03435166
Ni       5.14528490       1.40249786       4.27816135        2       1.00000000       0.04227421      -0.02278726      -0.18663438
Ni       7.67488504       1.42674431       4.27888221        2       1.00000000      -0.04170819       0.03834074      -0.03324642
Ni       1.20403869       3.69867116       4.31918601        2       1.00000000      -0.03659486      -0.02943520      -0.03552559
Pt       3.78058876       3.66410610       4.29972925        2       0.00000000      -0.07416270      -0.03907925       0.00347931
Pt       6.49412849       3.60901552       4.25186948        2       0.00000000       0.02173160      -0.08316197       0.14206760
Ni       9.02051872       3.68201713       4.26305968        2       1.00000000       0.10808890       0.05415817      -0.13769278
Ni       2.46925463       5.87694094       4.34703425        2       1.00000000      -0.15975639       0.02883621      -0.06356177
Pt       5.09648251       5.89030020       4.30458989        2       0.00000000       0.01907373       0.01026741       0.04093544
Ni       7.75005942       5.83491876       4.27570044        2       1.00000000       0.19326613      -0.03788884      -0.07682676
Ni      10.27832576       5.82373717       4.28023584        2       1.00000000       0.00247446       0.00920051      -0.05194910
Pt       3.71367624       8.10436654       4.25347848        2       0.00000000      -0.00212529      -0.01100506       0.04872232
Pt       6.40130175       8.09313027       4.17430829        2       0.00000000      -0.08199470       0.02216277       0.01579448
Pt       9.04972515       8.05894848       4.22108262        2       0.00000000      -0.06835311      -0.07960323       0.05899911
Ni      11.52700725       8.08930876       4.26891031        2       1.00000000      -0.05148167      -0.02353959      -0.05172126
Pt      -0.07493470      -0.11045214       6.58631940        1       0.00000000      -0.01154778       0.01109403       0.12567431
Pt       2.60638937      -0.04317321       6.59038691        1       0.00000000       0.11206147       0.07428696       0.23699743
Ni       5.15692264      -0.08815167       6.48629620        1       1.00000000       0.10182681      -0.19450808      -0.11686661
Ni       7.62024691      -0.10526649       6.48105309        1       1.00000000      -0.05813344      -0.06453844      -0.08389753
Pt       1.29339203       2.27386902       6.51924452        1       0.00000000       0.13309167       0.11361218       0.19122448
Ni       3.83737400       2.17322634       6.40443172        1       1.00000000       0.01502450       0.06048057      -0.28979338
Pt       6.35239309       2.07970549       6.40919812        1       0.00000000      -0.03575413      -0.06171000      -0.22831491
Pt       8.94062184       2.23264793       6.43442114        1       0.00000000      -0.01095250       0.11256286      -0.00149370
Ni       2.50953760       4.45438718       6.44993589        1       1.00000000      -0.07138587       0.26731748      -0.17392373
Pt       5.08235788       4.42278583       6.53625808        1       0.00000000      -0.01669158       0.15401640       0.10278385
Ni       7.68419896       4.40190585       6.43105541        1       1.00000000      -0.02861966       0.04102679      -0.13192884
Ni      10.27445750       4.41947521       6.39531083        1       1.00000000       0.17045751       0.07325096      -0.18719567
Ni       3.75227270       6.58986046       6.44054421        1       1.00000000      -0.15922638       0.04952970      -0.11057622
Ni       6.41631768       6.58238806       6.34626026        1       1.00000000       0.16944089       0.05291693      -0.36246951
Pt       9.02124916       6.51447352       6.43738123        1       0.00000000       0.12406454       0.02588413       0.13282476
Ni      11.56196383       6.59731291       6.37373061        1       1.00000000       0.03849754       0.06275107      -0.18274808
