64
Lattice="10.351422318769034 -0.008878280930596826 -0.007080555355581053 5.168022342556682 8.826605157789485 -0.0696766354538818 -0.00578124923890148 -0.06235395608860499 8.778795227262222" Properties=species:S:1:pos:R:3:tags:I:1:initial_magmoms:R:1:forces:R:3 unique_id=b1bd7e4e7d6c49d2bf107eb92f93c2be stress="0.00024530877270023677 -5.783418979720354e-07 1.733981016763089e-07 -5.783418979720354e-07 0.00026071879604363385 1.7579621566063256e-05 1.733981016763089e-07 1.7579621566063256e-05 0.00023502642224410702" energy=-397.93586455560927 pbc="T T T"
Ni      -0.01216008      -0.02678387       0.17989405        4       1.00000000      -0.02515801      -0.00149486       0.29902678
Ni       2.60511787      -0.02411605       0.19675951        4       1.00000000       0.10004265       0.00862040       0.40477124
Ni       5.17849503      -0.04286730       0.15119590        4       1.00000000       0.00164864      -0.07219885       0.17996741
Ni       7.75079147      -0.07040154       0.16924184        4       1.00000000      -0.06967319      -0.12524161       0.31657591
Pt       1.28713998       2.21134151       0.16867894        4       0.00000000       0.02620825       0.00814287       0.25323845
Pt       3.86478171       2.15835736       0.16626130        4       0.00000000      -0.03584818      -0.02959752       0.18965052
Pt       6.47905986       2.14799673       0.08570723        4       0.00000000       0.03103933      -0.13944784      -0.01729761
Pt       9.05948504       2.24445639       0.10484101        4       0.00000000       0.00377533       0.07425841       0.12935570
Ni       2.55953519       4.46020593       0.02352184        4       1.00000000      -0.01492741       0.06716095       0.01055171
Pt       5.16671615       4.44462410      -0.00080490        4       0.00000000      -0.01918982       0.03719739      -0.13864975
Ni       7.77377345       4.43548780       0.03715131        4       1.00000000      -0.04577114       0.07226734       0.10204770
Ni      10.34912929       4.45590877       0.02218479        4       1.00000000       0.00381488       0.14844818       0.02020421
Ni       3.83202601       6.65315694       0.03194541        4       1.00000000      -0.05576748       0.06896259       0.16879516
Pt       6.49726137       6.67711461       0.05369554        4       0.00000000       0.02636301       0.03585014      -0.06326695
Ni       9.06461785       6.61581470       0.09140224        4       1.00000000       0.00322706       0.00833881       0.16711499
Ni      11.65639108       6.61219265       0.00970658        4       1.00000000       0.06950606      -0.04559082       0.00330787
Ni       1.32062841       0.70205634       2.25105591        3       1.00000000       0.03304421       0.01509027       0.15611073
Ni       3.85474342       0.73684601       2.23768884        3       1.00000000      -0.02888153       0.09513900       0.12676232
Ni       6.46264740       0.73709762       2.23974766        3       1.00000000      -0.00463358       0.07473497       0.19985273
Pt       9.05711280       0.71477847       2.22194918        3       0.00000000       0.00460785       0.19221156      -0.09097446
Ni       2.58660417       2.88583187       2.27514739        3       1.00000000      -0.00679006      -0.10551132       0.16153191
Ni       5.18103861       2.88913842       2.24262304        3       1.00000000      -0.07081560      -0.06945189       0.05458680
Ni       7.73192647       2.91725885       2.22271908        3       1.00000000      -0.00656298      -0.07326212      -0.00448613
Ni      10.35942167       2.90377372       2.26329233        3       1.00000000       0.02369878      -0.08768295       0.19007185
Pt       3.88296065       5.13590816       2.19166754        3       0.00000000      -0.00648504      -0.04709712      -0.12704891
Ni       6.47487955       5.13120342       2.17766465        3       1.00000000      -0.03811954       0.01059264      -0.02718949
Pt       8.98847396       5.09511107       2.18432023        3       0.00000000      -0.05269550       0.01196301       0.03366422
Pt      11.63974571       5.08511716       2.17711558        3       0.00000000       0.01549806      -0.10133453      -0.01432897
Ni       5.20069607       7.35029129       2.14996183        3       1.00000000       0.07499297      -0.00559071       0.06351443
Ni       7.71979285       7.36936818       2.16376326        3       1.00000000      -0.06576956       0.01242592       0.12029573
Pt      10.37654848       7.39031504       2.11094488        3       0.00000000       0.05564045       0.00396565       0.03042515
Ni      12.92527537       7.34143719       2.12036339        3       1.00000000      -0.02364323      -0.04939017       0.00308090
Ni       0.02642206       1.46811557       4.30225992        2       1.00000000       0.11023801       0.04218118      -0.05104242
Ni       2.56683128       1.46626969       4.27633784        2       1.00000000      -0.03178062       0.07406671      -0.07648139
Ni       5.18923523       1.43593152       4.29049938        2       1.00000000      -0.02831716      -0.06182378      -0.16709272
Ni       7.72673282       1.42904462       4.31466001        2       1.00000000      -0.06728568      -0.12100123      -0.07998738
Ni       1.28918111       3.67143810       4.30870200        2       1.00000000       0.01753228      -0.00761233      -0.07083760
Ni       3.83257795       3.64429138       4.29850272        2       1.00000000      -0.07680187      -0.03774387      -0.14394374
Pt       6.50008290       3.59661250       4.31339991        2       0.00000000       0.03491447      -0.02401141      -0.08613376
Ni       9.08453171       3.66575389       4.30257568        2       1.00000000       0.10496852       0.01568924      -0.09947701
Ni       2.53956183       5.82592881       4.36916677        2       1.00000000      -0.06856535      -0.04419869      -0.01062210
Pt       5.19239080       5.85324556       4.34998369        2       0.00000000       0.08853925       0.04128357      -0.09204777
Ni       7.75939402       5.83450193       4.31198160        2       1.00000000       0.00735360      -0.00797250      -0.08186623
Ni      10.37765563       5.81033377       4.34242627        2       1.00000000       0.06230038      -0.00140996      -0.02855152
Pt       3.83316208       8.04751348       4.24690708        2       0.00000000      -0.06765227      -0.05054270       0.11174948
Ni       6.46732677       8.07911200       4.24514342        2       1.00000000      -0.03645119       0.11257992      -0.13056972
Pt       9.02286111       8.06566205       4.22039545        2       0.00000000      -0.05360267      -0.02663853       0.15017008
Ni      11.63323813       8.04144929       4.26832239        2       1.00000000      -0.03095536      -0.05553439      -0.07463497
Pt      -0.00680070      -0.11510886       6.53217505        1       0.00000000       0.02101985      -0.06896256       0.07918012
Pt       2.57313366      -0.07751948       6.52452955        1       0.00000000      -0.03917537       0.02596440       0.17052989
Pt       5.20184690      -0.05959445       6.51484736        1       0.00000000       0.05249613      -0.02093758       0.00676192
Pt       7.74269716      -0.10575305       6.53378684        1       0.00000000      -0.06954475      -0.08677386       0.17325987
Pt       1.28932002       2.26145765       6.38087325        1       0.00000000       0.04312529       0.09059979      -0.17696481
Pt       3.92466481       2.25883163       6.38036059        1       0.00000000       0.03796244       0.19404773      -0.22127720
Ni       6.46782536       2.18943344       6.41066701        1       1.00000000      -0.01138579       0.00198078      -0.22140738
Pt       9.00361298       2.24187886       6.35897425        1       0.00000000      -0.02594010       0.08523877      -0.36516675
Ni       2.57819815       4.44128676       6.43592215        1       1.00000000       0.02821872       0.12867091      -0.27232789
Ni       5.18036457       4.39876864       6.38841317        1       1.00000000       0.03209044       0.09434239      -0.30762596
Ni       7.71795943       4.37004312       6.45633231        1       1.00000000      -0.17969533       0.00615647      -0.17440753
Ni      10.37824010       4.39178468       6.43274334        1       1.00000000       0.17066666       0.02898858      -0.29386769
Ni       3.84762946       6.50713438       6.46083739        1       1.00000000      -0.05377187      -0.12497591      -0.07768168
Ni       6.46100266       6.51590832       6.38926251        1       1.00000000       0.10494665      -0.04657347      -0.15000041
Pt       9.06204577       6.44448766       6.45977223        1       0.00000000       0.00684237      -0.06555092       0.07357734
Ni      11.66242867       6.49910575       6.42803778        1       1.00000000       0.01533468      -0.08200452      -0.21247519
