64
Lattice="10.352405254684028 -0.018494580405696612 0.06840320232504797 5.160185850878347 8.878041053302722 0.0338820136096103 0.055850980822909055 -0.00030131003446440247 8.834469868555189" Properties=species:S:1:pos:R:3:tags:I:1:initial_magmoms:R:1:forces:R:3 unique_id=8c937eb9c1a3412ebb480c093a5fce8c stress="0.0003271920265783407 5.0835594734867904e-06 -2.658582668650704e-05 5.0835594734867904e-06 0.000335018895201801 1.0415063246662852e-05 -2.658582668650704e-05 1.0415063246662852e-05 0.0003046897609866664" energy=-399.6072993127379 pbc="T T T"
Ni       0.01422691       0.00370938       0.17623501        4       1.00000000       0.08805059       0.06482724       0.34044532
Ni       2.59335009       0.00509941       0.21761465        4       1.00000000       0.02733346       0.04180281       0.45986197
Ni       5.17611405      -0.02739117       0.18519326        4       1.00000000      -0.02479323       0.07343569       0.21398930
Ni       7.76776484      -0.06825251       0.23514879        4       1.00000000       0.01828943      -0.08983365       0.39537460
Ni       1.30024773       2.22683976       0.18889788        4       1.00000000       0.04863593       0.00170556       0.35152745
Pt       3.79902061       2.17825182       0.20985802        4       0.00000000      -0.03490629       0.03909107       0.12734718
Pt       6.46961445       2.13174753       0.14986187        4       0.00000000       0.07260538      -0.06623724      -0.03202625
Pt       9.15063579       2.20762533       0.18341268        4       0.00000000       0.16668137       0.00778739       0.09723521
Ni       2.54544191       4.46435653       0.07422290        4       1.00000000      -0.02008022       0.02279079      -0.00888530
Pt       5.12231706       4.46734991       0.07058955        4       0.00000000      -0.03535323       0.03810539      -0.17418306
Pt       7.80784966       4.47342967       0.08247766        4       0.00000000       0.13142703       0.09471075      -0.18244899
Ni      10.40011277       4.45582924       0.13286082        4       1.00000000       0.13465141       0.08645351       0.10244082
Ni       3.82349715       6.69957719       0.11173552        4       1.00000000      -0.06380677       0.11307873       0.17188567
Pt       6.46714592       6.75861156       0.23625581        4       0.00000000       0.02396763       0.08034392       0.25229504
Ni       9.08830588       6.68579540       0.12982331        4       1.00000000       0.07447316       0.08384710       0.07081765
Ni      11.65815155       6.65046903       0.13671517        4       1.00000000       0.13869672       0.01196496       0.02442548
Ni       1.33839996       0.74616831       2.24554161        3       1.00000000       0.05536139       0.03661012       0.17577839
Ni       3.86070082       0.75957779       2.27790137        3       1.00000000      -0.07543395       0.15670753       0.13514800
Ni       6.47768153       0.75985355       2.28529583        3       1.00000000      -0.02580484       0.12228116       0.13295068
Pt       9.08581432       0.72472558       2.31155674        3       0.00000000       0.03578526       0.22149243      -0.05782690
Ni       2.57266500       2.90752321       2.29514136        3       1.00000000      -0.03322741      -0.11953778       0.21450517
Ni       5.18463924       2.91744807       2.30585929        3       1.00000000      -0.10270584      -0.08321140       0.02224429
Ni       7.75152861       2.92780029       2.31132716        3       1.00000000       0.02405848      -0.07193250      -0.08802410
Ni      10.40107548       2.91497310       2.33246126        3       1.00000000       0.07822531      -0.09657137       0.18134940
Pt       3.89083805       5.17458939       2.27117001        3       0.00000000      -0.02514682      -0.10374678      -0.19083760
Ni       6.47758627       5.16890613       2.28526730        3       1.00000000       0.00783804      -0.03146799      -0.10073785
Pt       9.01625059       5.13909825       2.32752256        3       0.00000000      -0.15340684      -0.10332300      -0.11104962
Pt      11.66386020       5.10849830       2.26737671        3       0.00000000      -0.00947470      -0.06472823       0.03775275
Ni       5.19851882       7.42195618       2.26929604        3       1.00000000       0.07410065       0.04496515       0.10006768
Ni       7.73269454       7.43563320       2.29747220        3       1.00000000      -0.11253833       0.05829688       0.12050599
Pt      10.35078029       7.44029199       2.20254427        3       0.00000000       0.00535282      -0.04276681      -0.06852089
Ni      12.95226749       7.38517069       2.26980791        3       1.00000000       0.02635510      -0.07758900      -0.00020847
Ni       0.06759926       1.52012000       4.34870140        2       1.00000000       0.16450308       0.08499844      -0.09690838
Ni       2.58745758       1.51294920       4.34703198        2       1.00000000      -0.06613475       0.07654716      -0.12323710
Ni       5.19252870       1.49639020       4.37467352        2       1.00000000      -0.12016499      -0.01474105      -0.20056436
Ni       7.78852477       1.49092458       4.41400847        2       1.00000000       0.03035365      -0.06632902      -0.11411022
Ni       1.33884748       3.67293218       4.38063797        2       1.00000000       0.06517559      -0.07589662      -0.17989402
Ni       3.85923928       3.68539888       4.38531968        2       1.00000000      -0.13474727      -0.12087873      -0.20134006
Pt       6.51786092       3.63895360       4.40949405        2       0.00000000      -0.01419409      -0.07665738      -0.16938021
Ni       9.08623733       3.66536694       4.41846193        2       1.00000000       0.06743066      -0.19346810      -0.24366854
Ni       2.60103586       5.87241419       4.45581355        2       1.00000000      -0.04000210      -0.08550743      -0.00219007
Pt       5.19199277       5.88673971       4.40082940        2       0.00000000       0.16349034       0.02791767       0.06425857
Ni       7.78393818       5.89391165       4.43088070        2       1.00000000      -0.06693228       0.00356008      -0.09805589
Pt      10.37339539       5.82564068       4.55483605        2       0.00000000       0.02998689      -0.01589186       0.02830091
Pt       3.92875472       8.13884614       4.38176497        2       0.00000000      -0.02993765      -0.01705825       0.18597783
Ni       6.48738706       8.16664599       4.37675890        2       1.00000000      -0.04102447       0.09424707      -0.09880162
Pt       8.99466648       8.15839478       4.38177857        2       0.00000000      -0.10168143       0.07869728       0.13845278
Pt      11.67155472       8.14963980       4.40172468        2       0.00000000       0.03871100       0.04633721       0.03834985
Pt       0.03080110      -0.02710456       6.58008209        1       0.00000000      -0.04105751      -0.00721120       0.13406406
Pt       2.62660301      -0.02093943       6.60913502        1       0.00000000      -0.02253061       0.06534790       0.16642348
Pt       5.21752871      -0.05543357       6.63383299        1       0.00000000      -0.03558391      -0.12552773       0.02285311
Pt       7.78422075      -0.06334600       6.67135400        1       0.00000000      -0.09169105      -0.13743473       0.21587280
Pt       1.32661840       2.32607533       6.53401358        1       0.00000000      -0.01664462       0.17958700       0.08769531
Pt       3.96030304       2.30143984       6.47431286        1       0.00000000      -0.00454320       0.08019931      -0.17374022
Ni       6.50374420       2.23253385       6.51817684        1       1.00000000      -0.03476192      -0.02148644      -0.23550985
Pt       9.04277381       2.28840382       6.49207121        1       0.00000000      -0.07396074       0.02228554      -0.30648502
Ni       2.61440780       4.49913929       6.54309174        1       1.00000000      -0.00977560       0.13379824      -0.26666241
Ni       5.19476438       4.42981854       6.50021040        1       1.00000000      -0.04507885       0.00847585      -0.38464213
Ni       7.80645704       4.43337027       6.49782721        1       1.00000000       0.06035963       0.00127874      -0.47027293
Ni      10.38578915       4.46248213       6.63201612        1       1.00000000      -0.04579769       0.05825547      -0.02404627
Ni       3.86894859       6.59054427       6.58087850        1       1.00000000      -0.06365371      -0.15464468      -0.11289333
Pt       6.52369732       6.55597842       6.54764617        1       0.00000000      -0.02670258      -0.07361834      -0.10928481
Ni       9.10175908       6.58643441       6.62120852        1       1.00000000      -0.04167630      -0.10834473      -0.09041411
Ni      11.68481904       6.57412092       6.64263250        1       1.00000000       0.03305577      -0.11618904      -0.09334613
