64
Lattice="10.260680310752269 -0.0002180289449563594 0.0178238710354292 5.1301513367710365 8.789741520125135 -0.052424381582094864 0.0 0.0 21.53482469615902" Properties=species:S:1:pos:R:3:tags:I:1:initial_magmoms:R:1:forces:R:3 unique_id=e25c0e6843844188b6ddc7df0fd603e5 energy=-372.13602735829903 stress="0.005369052315949549 2.0126842265886197e-05 0.00023399676041244933 2.0126842265886197e-05 0.004564150822266598 -8.08287496813766e-05 0.00023399676041244933 -8.08287496813766e-05 -0.0014602819364225444" pbc="T T T"
Ni       0.03913613      -0.04435890       0.14935250        1       1.00000000       0.13429381      -0.01795723      -0.11273220
Ni       2.50994951      -0.03229903       0.17257758        2       1.00000000      -0.01955005       0.00643319      -0.05471602
Pt       5.12284776      -0.04824188       0.10929074        1       0.00000000      -0.10685726       0.13907284      -1.12419624
Ni       7.72066938      -0.05625389       0.16651041        2       1.00000000      -0.05648610      -0.00101727      -0.31771404
Ni       1.27822469       2.19882949       0.06376564        1       1.00000000      -0.01049424       0.00526825       0.37079075
Pt       3.74956788       2.21179774       0.13622342        1       0.00000000       0.06895158      -0.00526889      -0.40899348
Pt       6.44699813       2.21584113       0.06745391        1       0.00000000      -0.02826889      -0.00822148      -0.18197028
Pt       9.06080379       2.23586854       0.09309585        1       0.00000000       0.05256182       0.07211533      -0.55026692
Ni       2.53378323       4.42321997       0.00000000        0       1.00000000       0.05211760       0.02515816       0.17628236
Pt       5.12316464       4.50762561       0.03796414        0       0.00000000      -0.07675665       0.10373980       0.07086873
Ni       7.70685070       4.44315696       0.01962856        0       1.00000000      -0.00755557       0.03189387       0.10057780
Ni      10.29452914       4.41864612       0.01402660        0       1.00000000       0.07141139       0.04738027       0.22358438
Ni       3.82706057       6.62733028       0.02811478        0       1.00000000       0.02772975       0.06941902       0.34595759
Ni       6.42980282       6.63176483       0.04282530        0       1.00000000      -0.00939289       0.08156147       0.36662801
Ni       8.94283898       6.55647839       0.08605768        1       1.00000000      -0.14084116       0.04067879      -0.27650483
Ni      11.58283707       6.55204724       0.01180363        0       1.00000000       0.05786077       0.03862152       0.17072228
Ni       1.31506459       0.72225568       2.18281711        4       1.00000000       0.04161131       0.05497929       0.24191185
Ni       3.80438672       0.75268590       2.21617262        4       1.00000000      -0.06340556       0.08555266       0.22901888
Ni       6.42000540       0.76098060       2.21773428        4       1.00000000      -0.06274169       0.13715754       0.26941219
Pt       9.00740853       0.70929997       2.21404570        4       0.00000000       0.07212190       0.06174821       0.04089281
Ni       2.55926496       2.88612660       2.23122813        4       1.00000000       0.05562610      -0.12417935       0.26840326
Ni       5.11425181       2.92549623       2.21343105        4       1.00000000      -0.11728124      -0.00705731       0.17506570
Ni       7.67310083       2.91094521       2.21025397        4       1.00000000      -0.09779633      -0.11257665       0.17293233
Ni      10.31511749       2.89216047       2.22369921        4       1.00000000       0.13219657      -0.14091649       0.29987608
Ni       3.87797554       5.11857226       2.18212181        4       1.00000000       0.11065740      -0.05689404       0.23517456
Ni       6.38909475       5.14115837       2.16353276        4       1.00000000      -0.08114297       0.04086802       0.12590446
Pt       8.91073925       5.05678661       2.16713141        4       0.00000000      -0.09270971      -0.23448535       0.05623982
Pt      11.62404534       5.04963244       2.17175581        4       0.00000000       0.12431450      -0.18800183       0.11137325
Ni       5.17181344       7.26808006       2.10320023        3       1.00000000       0.06187108      -0.12637318       0.01539577
Ni       7.61891366       7.32370601       2.10747464        3       1.00000000      -0.17776903      -0.01914721       0.11260711
Pt      10.26233037       7.28115500       2.13689147        3       0.00000000       0.02491224      -0.04506401      -0.17290238
Ni      12.87257892       7.27880300       2.09618407        3       1.00000000       0.13933638      -0.11609078       0.00516977
Ni       0.06656726       1.47534751       4.28319912        6       1.00000000       0.17613738       0.00609217      -0.15467491
Ni       2.52598566       1.48690453       4.25801022        6       1.00000000      -0.08462251       0.06736103      -0.21048821
Ni       5.12701796       1.47552003       4.25691395        6       1.00000000      -0.09430276       0.00841354      -0.40319689
Ni       7.69991051       1.46496352       4.29920801        6       1.00000000      -0.01634506      -0.03138437      -0.23914096
Ni       1.29663831       3.62038722       4.32477618        6       1.00000000       0.04617684      -0.06598493      -0.02426975
Ni       3.82315498       3.67452979       4.24993800        5       1.00000000      -0.07135645       0.06107278      -0.30412277
Pt       6.41280776       3.65175214       4.28444466        6       0.00000000      -0.00290999      -0.02197050      -0.08811519
Ni       9.01482769       3.65881137       4.28472549        6       1.00000000       0.06601599       0.00630974      -0.14738127
Ni       2.59389893       5.75998582       4.31863313        6       1.00000000       0.07353968      -0.16561747      -0.04817247
Ni       5.14332756       5.81061212       4.29084960        6       1.00000000       0.06919180      -0.07023207      -0.17784842
Ni       7.66086379       5.82014153       4.29504861        6       1.00000000      -0.14969215       0.04823990      -0.13394803
Ni      10.28733370       5.75957501       4.32809195        6       1.00000000       0.05291039      -0.08449104      -0.04005682
Pt       3.92671176       7.95446450       4.22682121        5       0.00000000       0.12326396      -0.09622144       0.03735730
Ni       6.41284368       8.00861811       4.22310130        5       1.00000000      -0.05652252      -0.02750519      -0.26278284
Pt       8.88657807       8.03916078       4.20176120        5       0.00000000      -0.10978157       0.08782893      -0.03718305
Pt      11.58733003       7.99989139       4.22441018        5       0.00000000       0.02699541      -0.07302241       0.02608156
Pt       0.02314624      -0.07842704       6.49990302        9       0.00000000       0.00324546       0.09839081       0.26242814
Pt       2.54334298      -0.03203450       6.50089540        9       0.00000000       0.00717618       0.09399941       0.28161284
Pt       5.14370481      -0.02105461       6.41113782        8       0.00000000      -0.05402359       0.18748039       1.12634207
Pt       7.71385609      -0.07826437       6.53482470        9       0.00000000      -0.00001208       0.16017655       0.44012090
Ni       1.29016521       2.22176496       6.41411994        8       1.00000000       0.00505209       0.08787131      -0.27389135
Pt       3.83674403       2.28432055       6.34046989        7       0.00000000       0.00751551       0.11397074       0.34452432
Ni       6.42482986       2.20419145       6.36917446        8       1.00000000      -0.02483223      -0.00976886       0.14292925
Pt       9.00344543       2.25824352       6.34018294        7       0.00000000      -0.00812904      -0.07962055       0.54535694
Ni       2.54460876       4.40047527       6.39780112        8       1.00000000       0.03436410       0.02188676      -0.37206171
Ni       5.14357218       4.40929113       6.35254596        8       1.00000000      -0.09985099       0.07857589      -0.00230184
Ni       7.65830389       4.35717857       6.42957640        8       1.00000000      -0.12592748      -0.03529480      -0.18750958
Ni      10.33472761       4.35506932       6.41719041        8       1.00000000       0.12147300      -0.01590619      -0.29702223
Ni       3.85640549       6.46983458       6.41432773        8       1.00000000      -0.00007955      -0.14337065      -0.30895575
Ni       6.39566091       6.48938993       6.40664647        8       1.00000000      -0.04133855      -0.01454648      -0.32874512
Pt       8.98497596       6.42377772       6.44261329        8       0.00000000       0.04584505      -0.04278558       0.07113443
Ni      11.58139692       6.47592860       6.42664035        8       1.00000000       0.00229881       0.01165542      -0.22081196
