64
Lattice="10.312364981137373 -0.02045554414294164 -0.01636113711178435 5.138467469692666 8.923631310112487 -0.016682038948378608 0.0 0.0 21.6067224123042" Properties=species:S:1:pos:R:3:tags:I:1:initial_magmoms:R:1:forces:R:3 unique_id=c111a57461c44487a6dca6d6c49943ff stress="0.005154687672931944 -6.0963916867134575e-05 -0.00010326350899068578 -6.0963916867134575e-05 0.0053357166901515304 -0.0002769940995402869 -0.00010326350899068578 -0.0002769940995402869 -0.0016785178062869357" energy=-376.19506866813026 pbc="T T T"
Ni       0.03562661       0.02062505       0.13986531        1       1.00000000       0.15632835      -0.03543712      -0.23339178
Ni       2.57007317      -0.00101899       0.17037579        2       1.00000000      -0.06970050      -0.01001853      -0.08471671
Ni       5.11937509      -0.02471177       0.11634267        1       1.00000000      -0.08190870       0.16060385      -0.43405643
Pt       7.75495748      -0.10883419       0.00000000        0       0.00000000      -0.00728227      -0.10301580      -0.28356625
Ni       1.25045851       2.23729371       0.07164597        1       1.00000000      -0.09066717       0.01506795       0.50040769
Pt       3.77646894       2.23716119       0.07751430        1       0.00000000      -0.01046412       0.01700211       0.07255959
Pt       6.43189580       2.25486661       0.10932418        1       0.00000000      -0.03060816       0.08920371      -0.83444949
Ni       9.06657256       2.23226369       0.11765703        1       1.00000000       0.02637468       0.12336014      -0.12637591
Ni       2.56382923       4.47702638       0.03234677        0       1.00000000       0.05505037      -0.02511328       0.27710477
Ni       5.10703458       4.47847907       0.13691854        1       1.00000000      -0.05666441       0.06229628       0.08401918
Pt       7.80730376       4.48229083       0.06053486        1       0.00000000       0.04693788       0.08503171      -0.00251325
Ni      10.33129022       4.43482639       0.02089457        0       1.00000000       0.06056226      -0.07422052       0.28817369
Ni       3.83522286       6.65175984       0.06182077        1       1.00000000      -0.02635274      -0.11124765       0.42729392
Pt       6.40210823       6.72621253       0.14404793        1       0.00000000       0.01578619       0.02158915      -0.46216229
Ni       9.02340498       6.69065171       0.01703949        0       1.00000000      -0.14084273       0.00889379       0.09175100
Ni      11.58837293       6.63900075       0.00268353        0       1.00000000       0.06740360      -0.08634523       0.14830445
Ni       1.31810288       0.75727226       2.14515649        3       1.00000000       0.13255337       0.11333511      -0.03930966
Ni       3.81743131       0.75437031       2.17018357        4       1.00000000      -0.08712791       0.04558032       0.16836583
Pt       6.38889141       0.75750673       2.22343081        4       0.00000000      -0.05311230       0.11572057       0.08049913
Pt       9.11377069       0.75070801       2.15105116        4       0.00000000       0.03489839       0.02479109       0.08667942
Ni       2.57386940       2.96347735       2.18101821        4       1.00000000       0.01325967       0.01469335       0.11807381
Ni       5.09733896       3.01997636       2.20548681        4       1.00000000      -0.20297936       0.12082088       0.17000790
Ni       7.75813641       3.01888559       2.19028667        4       1.00000000       0.09147304       0.13663968       0.17968182
Ni      10.31353477       2.95998202       2.15341779        4       1.00000000       0.12423384       0.05611484       0.06390447
Ni       3.88636528       5.20065294       2.18146268        4       1.00000000       0.09331737      -0.01795900       0.08866511
Ni       6.41592471       5.20400947       2.19349914        4       1.00000000      -0.05940645       0.05919693       0.14016266
Ni       8.98272902       5.16339545       2.19795610        4       1.00000000      -0.07598211      -0.13492874       0.22322019
Pt      11.63598718       5.13823166       2.09796202        3       0.00000000       0.08100261      -0.10084909       0.00953155
Ni       5.12108403       7.38983961       2.17243290        4       1.00000000      -0.14993024      -0.21668835       0.04608804
Ni       7.69703040       7.42341720       2.16505437        4       1.00000000      -0.02967729      -0.08164157       0.06967812
Pt      10.23504154       7.37912170       2.06945483        3       0.00000000       0.00980179      -0.15327774      -0.07661436
Ni      12.91330320       7.36983962       2.14975337        3       1.00000000       0.11912596      -0.10195640       0.04693503
Ni       0.00956964       1.50733638       4.34888142        6       1.00000000       0.11818225      -0.03913242      -0.18934277
Pt       2.59807260       1.53359374       4.30019917        6       0.00000000      -0.00658208      -0.02550252      -0.11985809
Ni       5.12115663       1.51339785       4.33790389        6       1.00000000      -0.00988633       0.12932507      -0.21529081
Pt       7.78508738       1.51960497       4.32020325        6       0.00000000       0.14721719      -0.01022577       0.00769621
Pt       1.28022527       3.71255536       4.39771700        7       0.00000000      -0.01093564      -0.04194406      -0.04966826
Ni       3.85626494       3.74382958       4.32373547        6       1.00000000       0.02510667       0.08350773      -0.29298093
Pt       6.41009594       3.78656021       4.24798081        5       0.00000000      -0.04019125       0.04320364      -0.15201418
Ni       9.00286984       3.71608009       4.32148138        6       1.00000000      -0.04241637      -0.01500252      -0.28388078
Ni       2.59949255       5.89790368       4.37692286        7       1.00000000       0.08765672      -0.22937018      -0.07838798
Ni       5.10164919       5.90981655       4.29979598        6       1.00000000      -0.08473112      -0.07507300      -0.35652592
Ni       7.71822964       5.90211235       4.31239227        6       1.00000000      -0.04124555       0.00418142      -0.33666969
Pt      10.24876027       5.86968607       4.40327111        7       0.00000000      -0.02680335      -0.04349751      -0.07777660
Pt       3.85141108       8.08036766       4.32896549        6       0.00000000       0.07305242      -0.12337280      -0.07731594
Pt       6.40468921       8.14086723       4.21687872        5       0.00000000      -0.05196064       0.01766213      -0.23303511
Pt       8.98298590       8.15621291       4.29345810        6       0.00000000      -0.05622997       0.00299340      -0.09474841
Pt      11.60008279       8.11037413       4.35180683        7       0.00000000       0.00281778      -0.07205080      -0.12936483
Pt      -0.04696560       0.00049491       6.58002584       10       0.00000000       0.05972339       0.10522044       0.19505033
Pt       2.57615441       0.03732850       6.60672241       10       0.00000000      -0.01192880      -0.00809915       0.29311647
Pt       5.17944150      -0.07808444       6.58470589       10       0.00000000       0.03556332       0.07399571       0.48110901
Ni       7.73243802      -0.05719812       6.44811989        8       1.00000000       0.02636995       0.06625013       0.43498858
Ni       1.29784480       2.27724794       6.53490787        9       1.00000000       0.04359523       0.03538545      -0.15383774
Ni       3.82490883       2.25106833       6.44990287        8       1.00000000       0.02467393      -0.01986223       0.05826709
Pt       6.41292063       2.23272635       6.45718063        9       0.00000000      -0.08553039       0.02373187       0.85388538
Pt       9.07903819       2.30883101       6.53937939        9       0.00000000       0.04305551       0.12451223       0.20073227
Ni       2.52470495       4.47320855       6.52170038        9       1.00000000      -0.10690351       0.08777845      -0.26880752
Pt       5.02104194       4.46496800       6.52114343        9       0.00000000      -0.11874374       0.04244711       0.00424848
Ni       7.75869769       4.46975536       6.43126669        8       1.00000000       0.05115091       0.07268273      -0.03171036
Ni      10.31646297       4.47230477       6.52907612        9       1.00000000       0.08805073       0.06665811      -0.09124335
Ni       3.78239576       6.66972773       6.51116965        9       1.00000000      -0.08674158      -0.05832777      -0.26018815
Pt       6.45469126       6.62916290       6.44586870        8       0.00000000      -0.06510260      -0.05312451       0.41477178
Ni       9.02699001       6.62523278       6.52060495        9       1.00000000      -0.03514605      -0.04094418      -0.06960557
Ni      11.60929282       6.62272487       6.52130106        9       1.00000000       0.09946010      -0.14124865      -0.18556385
