64
Lattice="10.547138370467252 0.004476114826934416 0.030661296817965148 5.277445614384011 9.068222614877405 -0.008645821422240555 0.02503484401867877 -0.02260523254209676 9.022335985744286" Properties=species:S:1:pos:R:3:tags:I:1:initial_magmoms:R:1:forces:R:3 unique_id=0a10131ceeb64766bcffb862bc1ed306 stress="-0.0004139281319879354 -2.52070335026896e-07 1.8452727532265463e-06 -2.52070335026896e-07 -0.00040514482661442586 1.1015121500166426e-05 1.8452727532265463e-06 1.1015121500166426e-05 -0.0003312119661941365" energy=-411.3293579076295 pbc="T T T"
Pt       0.01812183       0.03416249      -0.01244998        4       0.00000000       0.00724289      -0.01028434      -0.21866716
Pt       2.65424281       0.05714079      -0.00622983        4       0.00000000      -0.00688188       0.07632781      -0.15387787
Pt       5.26809485      -0.04976420       0.01869191        4       0.00000000       0.02351069      -0.08398443      -0.13006591
Pt       7.90443972      -0.03425284       0.04750977        4       0.00000000       0.05680129       0.03201255      -0.15587289
Ni       1.34371139       2.30698170       0.04789163        4       1.00000000       0.00602884       0.10678955       0.06479209
Ni       3.93224780       2.28747263       0.14823337        4       1.00000000      -0.01238073       0.00585778       0.23766887
Pt       6.60477638       2.29860192       0.13248384        4       0.00000000       0.07524837      -0.01105593       0.07555685
Pt       9.26237660       2.33346268       0.04134940        4       0.00000000       0.08949962       0.05792068      -0.14861646
Ni       2.61749982       4.52151285       0.14626105        4       1.00000000      -0.04703235      -0.01451218       0.13065359
Pt       5.21534409       4.50638738       0.03780011        4       0.00000000      -0.08182103      -0.07416426      -0.14647506
Ni       7.94907147       4.54571798       0.15578843        4       1.00000000       0.13288545      -0.02262795       0.15227349
Pt      10.59730955       4.60549672       0.08967796        4       0.00000000       0.08131615       0.02742865      -0.07729777
Pt       3.87280138       6.73920794       0.14523140        4       0.00000000      -0.02384805      -0.04197784      -0.00314104
Pt       6.65266513       6.76292685       0.09895816        4       0.00000000       0.00200588      -0.02293011      -0.05917972
Ni       9.25266436       6.77625369       0.16514453        4       1.00000000       0.00631986      -0.04889218       0.25446676
Ni      11.86941440       6.77476013       0.16363946        4       1.00000000       0.05557413      -0.01197851       0.13382868
Pt       1.29157565       0.77578586       2.32128643        3       0.00000000      -0.05178490       0.03223131      -0.03995092
Pt       3.96835774       0.76934479       2.28611195        3       0.00000000       0.00186669      -0.01124427       0.03253225
Pt       6.65158910       0.71590903       2.36848331        3       0.00000000       0.00993588      -0.05848127       0.00976369
Pt       9.20973194       0.77740266       2.43117094        3       0.00000000       0.02943793       0.06108886       0.00895218
Pt       2.60224194       3.11081125       2.21628851        3       0.00000000      -0.04939133      -0.00442377       0.13021870
Pt       5.29000849       3.04931657       2.31749914        3       0.00000000      -0.01020041      -0.00329291       0.09447695
Ni       7.94320236       3.03697449       2.33094378        3       1.00000000       0.04469158      -0.04600464       0.15787298
Pt      10.50689810       3.11182046       2.40092584        3       0.00000000      -0.03128195       0.07303154       0.09443276
Ni       3.92377100       5.29662301       2.26775858        3       1.00000000       0.01170230      -0.00242480       0.04829393
Pt       6.65713200       5.21235590       2.27944184        3       0.00000000       0.00946121      -0.01404430      -0.02676144
Ni       9.24493915       5.26094563       2.26676253        3       1.00000000      -0.00163484      -0.00212112       0.00613960
Ni      11.90025704       5.30211899       2.27169754        3       1.00000000       0.06505123       0.02116219      -0.00321620
Pt       5.22124774       7.53768327       2.33253628        3       0.00000000      -0.01417258       0.03301529      -0.00359985
Pt       7.95153527       7.52620717       2.29802576        3       0.00000000      -0.04002147       0.04223417       0.07280958
Pt      10.62731917       7.45568213       2.27029263        3       0.00000000       0.01114942       0.00489587       0.11668394
Ni      13.18010718       7.52177523       2.31463178        3       1.00000000       0.03910002       0.04138167       0.04314125
Ni      -0.03622146       1.51165068       4.55299951        2       1.00000000      -0.07895449       0.05185471       0.02608076
Pt       2.52268540       1.51784300       4.56358606        2       0.00000000      -0.06219974       0.02773654       0.01163727
Pt       5.35418038       1.48434828       4.52464295        2       0.00000000      -0.03701027       0.01019270       0.01111272
Ni       7.98558568       1.50811821       4.54274680        2       1.00000000       0.09014591       0.04083536       0.01997921
Ni       1.28138894       3.73867545       4.51393575        2       1.00000000      -0.07343152      -0.05886893       0.07800070
Pt       3.95660284       3.77373971       4.50817898        2       0.00000000      -0.09928362      -0.02124366       0.08955784
Ni       6.66246002       3.73460767       4.50219210        2       1.00000000       0.11994893      -0.12481304      -0.03509462
Ni       9.24493121       3.69652898       4.52627741        2       1.00000000      -0.05931541      -0.16788825       0.06560767
Pt       2.63089192       6.08703386       4.36973850        2       0.00000000       0.00697624       0.03042909       0.00209552
Pt       5.29127100       6.04510155       4.48069622        2       0.00000000       0.01672581      -0.05885806      -0.05334536
Pt       7.95183957       5.95698617       4.46428958        2       0.00000000       0.04496060      -0.13382905       0.02507699
Pt      10.57784599       5.93886351       4.47601959        2       0.00000000       0.00922958      -0.13334608       0.02046117
Ni       3.96108183       8.37015328       4.51653747        2       1.00000000      -0.01689692       0.09911731      -0.00046011
Ni       6.55483275       8.33826989       4.51624657        2       1.00000000      -0.12399260       0.05049640      -0.09783892
Pt       9.25074929       8.29966339       4.54641166        2       0.00000000      -0.00445500      -0.08526820      -0.00798875
Ni      11.93098047       8.31553509       4.52649465        2       1.00000000       0.08174223       0.00524840      -0.01452259
Ni       0.01051829       0.04987175       6.55943594        1       1.00000000      -0.04471793       0.16632461      -0.29109119
Ni       2.60877768       0.00635182       6.61257488        1       1.00000000      -0.17567900       0.03142105      -0.20609954
Ni       5.30150775      -0.00792101       6.62656492        1       1.00000000       0.05038958       0.01937130      -0.19278520
Ni       7.95304047       0.01298622       6.59330059        1       1.00000000       0.11043642       0.07504225      -0.27064144
Ni       1.27145741       2.23186833       6.68205730        1       1.00000000      -0.22735472      -0.01532109      -0.05567713
Pt       3.94644605       2.19502756       6.76609024        1       0.00000000      -0.04888567      -0.03130856       0.19351740
Pt       6.67843872       2.20828908       6.62788496        1       0.00000000       0.10064965      -0.02604786       0.08358195
Ni       9.29198277       2.22367956       6.59179962        1       1.00000000       0.09128299      -0.07325146      -0.20805882
Pt       2.58499802       4.48280804       6.72236723        1       0.00000000      -0.12284906       0.01980878       0.09408345
Ni       5.29696868       4.51554025       6.61892872        1       1.00000000       0.04225491       0.00094099      -0.19328101
Pt       7.97913473       4.46493484       6.70157957        1       0.00000000       0.07373462      -0.02196842       0.12214632
Ni      10.56373929       4.46526149       6.63894290        1       1.00000000      -0.04097438      -0.13627756      -0.15445380
Pt       3.96550750       6.85672975       6.62881870        1       0.00000000      -0.01922124       0.08928591      -0.00166006
Pt       6.60799200       6.86185635       6.62439710        1       0.00000000       0.00405154       0.09596786      -0.00456379
Pt       9.25967927       6.80843458       6.77625721        1       0.00000000       0.00268329       0.03617048       0.19182496
Pt      11.87464443       6.85547193       6.73402005        1       0.00000000       0.00163131       0.10711336       0.05496255
