64
Lattice="10.347028283177472 -0.013210200009917614 -0.04229734969643559 5.162073772791071 8.987771358697259 -0.037596396676613394 0.0 0.0 21.701103445215114" Properties=species:S:1:pos:R:3:tags:I:1:initial_magmoms:R:1:forces:R:3 unique_id=d2b57a66cc5d4141bc698f635510ef77 energy=-380.5054507340271 stress="0.004967083786134311 -6.512897535646424e-06 -0.0001353320746896262 -6.512897535646424e-06 0.005072409992669034 -0.00015189503339592015 -0.0001353320746896262 -0.00015189503339592015 -0.00306702143245487" pbc="T T T"
Ni      -0.01328122       0.01961280       0.23413263        2       1.00000000      -0.02312562      -0.05383380      -0.05566691
Pt       2.52330111      -0.00497438       0.22879928        2       0.00000000       0.08220904      -0.03347052      -0.76758617
Pt       5.15019747      -0.02419759       0.15316960        2       0.00000000      -0.08166584       0.22647085      -1.14682511
Pt       7.87365544      -0.03559212       0.10115889        1       0.00000000       0.02356594      -0.08019741      -0.03570739
Ni       1.22324882       2.28439672       0.13393480        1       1.00000000      -0.02695429      -0.02113766       0.34847606
Pt       3.82092720       2.33402969       0.05709448        1       0.00000000       0.11258837      -0.22457886      -0.11046858
Pt       6.47194590       2.30029420       0.16218067        2       0.00000000      -0.09206456       0.03229848      -0.87400359
Ni       9.11310801       2.23423674       0.20448457        2       1.00000000       0.08110571      -0.01818341      -0.04171321
Ni       2.58259719       4.49356363       0.10760843        1       1.00000000       0.00367148       0.06234803       0.25984321
Ni       5.12004785       4.52067987       0.13793637        1       1.00000000      -0.02593697       0.00757994       0.34777316
Pt       7.83881721       4.52938697       0.05844743        1       0.00000000      -0.02582611       0.07101421       0.09599488
Ni      10.36173057       4.43081112       0.08361097        1       1.00000000       0.02889339      -0.08828068       0.34100138
Ni       3.86970332       6.69124701       0.22541362        2       1.00000000      -0.09183711      -0.07488675       0.04673577
Pt       6.37311063       6.71594100       0.20678410        2       0.00000000      -0.00265383       0.05549194      -0.23790721
Ni       9.03675753       6.70692011       0.08488342        1       1.00000000      -0.06762315       0.03872278       0.06102707
Pt      11.65865067       6.63712724       0.00000000        0       0.00000000       0.19543445       0.12921367      -0.11608958
Pt       1.19526308       0.70812675       2.35313697        5       0.00000000      -0.10527290       0.01295222       0.22018054
Ni       3.86207616       0.76452376       2.31174532        4       1.00000000       0.00933779       0.06301543       0.30670974
Pt       6.45161511       0.75490307       2.33304011        4       0.00000000       0.04373219       0.03405274       0.25063315
Ni       9.05760267       0.72371135       2.26308669        4       1.00000000      -0.09945983      -0.00436696       0.21816648
Pt       2.62060067       3.01059515       2.28711420        4       0.00000000       0.02054764      -0.03241461       0.09496742
Ni       5.15375817       3.05052120       2.30261264        4       1.00000000       0.03000700       0.12131459       0.16394331
Pt       7.83172478       3.06319446       2.29271367        4       0.00000000       0.05538510       0.05387776       0.13791903
Ni      10.33870229       2.97734506       2.24577319        3       1.00000000       0.08795327       0.04937842       0.16182631
Ni       3.91962559       5.26432242       2.28493624        4       1.00000000       0.08095602       0.00057502       0.12761468
Ni       6.41262401       5.26380073       2.30184546        4       1.00000000      -0.08738375      -0.04440353       0.18377011
Ni       9.01447044       5.24129248       2.27675834        4       1.00000000      -0.05890521       0.04087822       0.10980097
Pt      11.64309889       5.20697432       2.24219402        3       0.00000000       0.00256044      -0.04302739       0.07979380
Ni       5.13651135       7.43272844       2.28359166        4       1.00000000      -0.03585422      -0.08164241       0.18713503
Ni       7.67875031       7.42410578       2.29344530        4       1.00000000      -0.09252325      -0.12258716       0.27666651
Pt      10.25398549       7.42237744       2.22014061        3       0.00000000      -0.13038965      -0.04917420       0.08895403
Ni      12.97908077       7.43971705       2.22669848        3       1.00000000       0.01953396      -0.02404129       0.15143835
Ni      -0.00096402       1.50097624       4.48008361        7       1.00000000       0.04464570      -0.06537989      -0.06755591
Pt       2.58953753       1.51994445       4.49244080        7       0.00000000      -0.03483592       0.09068600      -0.05676879
Ni       5.13193265       1.52361610       4.44222449        6       1.00000000       0.00442670       0.04706679      -0.36186766
Pt       7.81641027       1.51129568       4.46851950        7       0.00000000       0.09671383      -0.07321147      -0.17156096
Pt       1.26497176       3.73598322       4.56388796        8       0.00000000       0.02648050       0.01049395      -0.05060831
Ni       3.87176909       3.78743816       4.49515714        7       1.00000000       0.01724597       0.11157510      -0.11294791
Pt       6.38645473       3.83456932       4.42416008        6       0.00000000      -0.01672917       0.10924292      -0.12952650
Ni       9.02462460       3.74754137       4.46282529        7       1.00000000      -0.06035476      -0.03911110      -0.12954157
Ni       2.60977616       5.93386717       4.45275869        7       1.00000000       0.13711308      -0.05788951      -0.16523329
Ni       5.12960654       5.96865412       4.40108737        6       1.00000000      -0.05546184       0.00614181      -0.25790810
Ni       7.70493038       5.96708673       4.39707114        6       1.00000000      -0.09915490       0.00797035      -0.33776528
Pt      10.25009287       5.91509121       4.50605830        7       0.00000000      -0.07369296       0.03911754      -0.13172757
Pt       3.94098089       8.17134531       4.36505292        6       0.00000000       0.08637431      -0.00274513      -0.11745682
Ni       6.42831387       8.18063430       4.41613909        6       1.00000000      -0.04634050      -0.08446721      -0.23420950
Pt       8.94754754       8.19409352       4.37266925        6       0.00000000      -0.06185869      -0.15767218      -0.31212874
Pt      11.66804716       8.15921523       4.43052624        6       0.00000000       0.16214022      -0.10805875      -0.27078471
Pt      -0.04562334       0.01489730       6.70110345       11       0.00000000       0.11508676      -0.03866718      -0.02307477
Pt       2.56650437       0.01341068       6.63541040       10       0.00000000      -0.10475640      -0.13482744       0.87081432
Pt       5.17681592      -0.05302726       6.57705825       10       0.00000000       0.00149894       0.22918742       0.95341980
Ni       7.74944759      -0.02569491       6.57822552       10       1.00000000      -0.00719483       0.03650671       0.18058355
Ni       1.29635791       2.29129176       6.68363817       11       1.00000000      -0.02963525      -0.03131556      -0.11286132
Ni       3.83772641       2.30214285       6.54692621        9       1.00000000       0.11953329       0.03285723       0.16727028
Pt       6.39469049       2.30077140       6.57574623       10       0.00000000      -0.06474903      -0.04488399       0.86751932
Pt       9.09884766       2.33728841       6.68454334       11       0.00000000      -0.02702838       0.09690688      -0.02198381
Ni       2.55539611       4.45172577       6.65765464       11       1.00000000       0.04239315       0.04259660      -0.32850788
Ni       5.09524791       4.46626304       6.62365161       10       1.00000000      -0.12342026       0.01499445      -0.30371393
Ni       7.77035006       4.50684069       6.52984446        9       1.00000000       0.13770228       0.01399369       0.01853045
Ni      10.34253794       4.51011658       6.64578725       10       1.00000000       0.03905699       0.02870851      -0.20004040
Pt       3.77417610       6.64524486       6.66965999       11       0.00000000       0.05270588      -0.10088115      -0.29184622
Pt       6.46584581       6.63459676       6.53070141        9       0.00000000      -0.12397103       0.11919201       0.14099193
Ni       9.04000204       6.67129938       6.62859370       10       1.00000000      -0.07725328       0.03280434      -0.17268487
Ni      11.60152656       6.66814189       6.52660080        9       1.00000000       0.09331412      -0.13388940       0.28877193
