64
Lattice="10.287035345456763 -0.02017421770289769 0.013177835889636549 5.126046287696196 8.861394459469121 -0.02186221148786477 0.010759657947914938 -0.026823982072355083 8.810621886846699" Properties=species:S:1:pos:R:3:tags:I:1:initial_magmoms:R:1:forces:R:3 unique_id=3f1700d3560342eca92ab828432b4138 stress="0.00025243815893117444 5.101122848659316e-06 -2.1210809194968243e-05 5.101122848659316e-06 0.00025678365765519767 -2.052792770015531e-07 -2.1210809194968243e-05 -2.052792770015531e-07 0.00024695980666133294" energy=-397.20812355905974 pbc="T T T"
Ni       0.01192293      -0.00942350       0.17847968        4       1.00000000      -0.00232022       0.00955699       0.34394523
Ni       2.53725878       0.00365297       0.20986509        4       1.00000000      -0.06816956       0.05247424       0.41309070
Pt       5.13471359      -0.04915074       0.14554296        4       0.00000000      -0.03265827      -0.10792225       0.29207257
Ni       7.73879589      -0.07452478       0.19371964        4       1.00000000       0.03468183      -0.08444991       0.36466243
Ni       1.28647200       2.22071619       0.10180298        4       1.00000000       0.01874763       0.03811843       0.25188276
Pt       3.77191941       2.26592201       0.18775754        4       0.00000000      -0.02173843       0.08738194       0.15496856
Pt       6.42417527       2.21632290       0.11506862        4       0.00000000       0.04818927       0.08753965       0.01192419
Pt       9.08639561       2.19603422       0.12936653        4       0.00000000       0.10327196      -0.03187586       0.13124406
Ni       2.55930119       4.46156140       0.05321189        4       1.00000000       0.08222867       0.08217907      -0.04567869
Ni       5.09364076       4.45837542       0.09969230        4       1.00000000      -0.07042960       0.10002014       0.24873940
Pt       7.74231046       4.47191659       0.10166807        4       0.00000000       0.03113040       0.07045890      -0.05344561
Ni      10.32769643       4.43453611       0.07590284        4       1.00000000       0.12713301       0.04935284       0.12035642
Ni       3.80682048       6.63278743       0.09055300        4       1.00000000      -0.08394468      -0.04928994       0.21137117
Pt       6.36501663       6.68668768       0.17135965        4       0.00000000      -0.09502105       0.01213755       0.05671952
Ni       8.99841945       6.62017272       0.16262822        4       1.00000000      -0.05944614      -0.00132565       0.32985319
Ni      11.59830135       6.59616263       0.06882546        4       1.00000000       0.10663143      -0.03247781       0.05159582
Ni       1.29841582       0.72690248       2.19725504        3       1.00000000      -0.05049943      -0.01399705       0.02213886
Ni       3.83502605       0.75167362       2.23314500        3       1.00000000       0.05722075       0.02663013       0.00796418
Ni       6.43227514       0.76550849       2.25678163        3       1.00000000      -0.06689149       0.14045674       0.05910672
Pt       9.01814816       0.70642719       2.26478278        3       0.00000000      -0.00223550       0.15085514      -0.01522409
Ni       2.55977172       2.94829112       2.23860731        3       1.00000000       0.04256114       0.04284201       0.01464050
Ni       5.12762911       2.96704631       2.25753901        3       1.00000000      -0.11888995       0.06208182       0.04100666
Ni       7.71282000       2.95787691       2.26638593        3       1.00000000       0.07719223       0.01349391      -0.00489884
Ni      10.30614635       2.92967037       2.26471068        3       1.00000000       0.04406606      -0.04942513       0.14720235
Ni       3.88957680       5.15491770       2.20778010        3       1.00000000       0.14069016      -0.03679077       0.04032485
Ni       6.40151155       5.15760047       2.24786441        3       1.00000000      -0.05250899       0.05825385      -0.01204659
Ni       8.96107950       5.11663416       2.23577074        3       1.00000000      -0.07781292      -0.18104136       0.14232112
Pt      11.63202226       5.07626534       2.17471181        3       0.00000000       0.16922274      -0.10025477       0.03410184
Ni       5.13509706       7.34655800       2.22582902        3       1.00000000       0.02860720      -0.14546038       0.05923646
Ni       7.65793193       7.37049138       2.21730643        3       1.00000000      -0.18297387      -0.07877954       0.04681831
Pt      10.25946221       7.31616088       2.19244278        3       0.00000000       0.00834809      -0.01636659      -0.24157634
Ni      12.88359055       7.32617822       2.16337931        3       1.00000000       0.12545759      -0.19187338      -0.02460603
Ni       0.00719851       1.50799442       4.34467680        2       1.00000000      -0.03901016       0.06503789      -0.08870304
Pt       2.51231218       1.53682916       4.27550393        2       0.00000000       0.04978043      -0.03189941       0.11172524
Ni       5.15734833       1.49694759       4.33234265        2       1.00000000      -0.09838916       0.05182400      -0.20752297
Ni       7.71632359       1.48457748       4.35740794        2       1.00000000       0.00169033       0.01957906      -0.09337362
Ni       1.28896400       3.66946384       4.39489111        2       1.00000000       0.02130354      -0.01638114      -0.02019334
Ni       3.84707975       3.74185098       4.33393990        2       1.00000000      -0.06596183       0.10394028      -0.23539107
Pt       6.41683983       3.68371212       4.34184229        2       0.00000000      -0.04892941       0.00102494      -0.07083073
Ni       8.99678061       3.65089564       4.32328671        2       1.00000000      -0.04726915      -0.09191665      -0.33159213
Ni       2.60785867       5.83495937       4.39095545        2       1.00000000       0.05591135      -0.12614204      -0.10228018
Ni       5.11415506       5.85151108       4.31824381        2       1.00000000       0.00507779      -0.14343721      -0.23915959
Ni       7.68153963       5.85836470       4.31608866        2       1.00000000      -0.04453046      -0.03102899      -0.22773505
Pt      10.30004925       5.76340239       4.38237405        2       0.00000000      -0.02099735      -0.02616880       0.11305854
Pt       3.91774181       8.03949093       4.31881109        2       0.00000000       0.03882384      -0.14301469       0.24583066
Ni       6.40684412       8.08245309       4.29880662        2       1.00000000      -0.03518290      -0.05272308      -0.16973104
Pt       8.90595469       8.09605319       4.29215458        2       0.00000000      -0.04821406      -0.02770989       0.12688493
Pt      11.60829572       8.10743721       4.28903242        2       0.00000000       0.07845349       0.01429097       0.06956739
Pt       0.01011202       0.00278725       6.56481297        1       0.00000000       0.04674360       0.07673309       0.12397655
Pt       2.55952428       0.01220786       6.59208951        1       0.00000000      -0.02822713       0.07188885       0.21245029
Pt       5.16534605       0.00127430       6.48154466        1       0.00000000       0.07013228       0.07384667      -0.42123276
Pt       7.72823077      -0.06876665       6.60276024        1       0.00000000      -0.08793162      -0.05841368       0.14759432
Ni       1.28462440       2.27133975       6.51404951        1       1.00000000       0.03158687       0.18712129      -0.15670888
Pt       3.86339923       2.32767807       6.46096427        1       0.00000000      -0.07599475       0.17981499      -0.21838652
Ni       6.44070494       2.23352171       6.44894451        1       1.00000000       0.00912171       0.06683928      -0.23452098
Pt       9.01304662       2.28269222       6.41866061        1       0.00000000      -0.01497664       0.10703547      -0.32680270
Ni       2.54901901       4.45988459       6.49825664        1       1.00000000      -0.06300733       0.11344871      -0.25442821
Ni       5.12122001       4.41751685       6.50994044        1       1.00000000      -0.09190921       0.08718853      -0.16707071
Ni       7.69550099       4.37954929       6.44452925        1       1.00000000      -0.08394559      -0.01747391      -0.28784370
Ni      10.35077227       4.37865978       6.53216118        1       1.00000000       0.23811146      -0.03321030      -0.10918335
Ni       3.81389269       6.55139466       6.51037652        1       1.00000000      -0.06947602      -0.18956794      -0.12128956
Pt       6.36525586       6.52949315       6.42147314        1       0.00000000      -0.06406696       0.01764072      -0.25335048
Pt       9.02577839       6.50689135       6.57970205        1       0.00000000       0.05100838      -0.14156204       0.14072520
Ni      11.61099845       6.54906878       6.53869147        1       1.00000000       0.07043461      -0.06910795      -0.15429420
