64
Lattice="10.192577235095857 0.039065856568679766 -0.025403357603405462 5.130120641757004 8.811852193412973 -0.042235984104546445 0.0 0.0 21.515102507638325" Properties=species:S:1:pos:R:3:tags:I:1:initial_magmoms:R:1:forces:R:3 unique_id=caa5a63919fd4aa09e644f1bc7109b43 energy=-370.32033323988844 stress="0.0017092699914469968 -5.6864373777849936e-06 -8.75863078236662e-05 -5.6864373777849936e-06 0.001225884164583229 3.163806168696099e-05 -8.75863078236662e-05 3.163806168696099e-05 -0.005092054921167554" pbc="T T T"
Ni       0.03253692      -0.04676215       0.16869946        2       1.00000000       0.07185345      -0.03054843      -0.35495049
Ni       2.50087504       0.02197608       0.13620136        1       1.00000000       0.04613198       0.18167595      -0.45684281
Pt       5.12621224       0.00105460       0.13353725        1       0.00000000      -0.09744506       0.20787225      -1.16198571
Ni       7.65817807      -0.01768799       0.13068503        1       1.00000000      -0.04906919      -0.08014794      -0.39195827
Ni       1.27371318       2.22445806       0.08639693        1       1.00000000      -0.04743969       0.08339287       0.27142689
Pt       3.78994965       2.29475285       0.14738543        1       0.00000000       0.01988209      -0.02283730      -0.65560805
Ni       6.38363826       2.27418106       0.07106297        1       1.00000000      -0.03705828       0.02034933       0.17941741
Pt       8.92699260       2.29620424       0.08761386        1       0.00000000       0.04663747       0.16827708      -0.84589964
Ni       2.54041660       4.45058490       0.05751860        1       1.00000000       0.04005608       0.02821055       0.41793305
Ni       5.12894565       4.45885035       0.05424949        1       1.00000000      -0.11138859       0.02596046       0.30537672
Ni       7.62565155       4.46140680       0.05339478        1       1.00000000       0.04502334       0.03738522       0.27644886
Ni      10.24097852       4.46435737       0.04464150        0       1.00000000       0.00165689       0.00393881       0.38835724
Ni       3.84824062       6.58056300       0.04878422        0       1.00000000       0.00224069      -0.02779192       0.31544869
Ni       6.34589986       6.58255607       0.00217969        0       1.00000000      -0.08811021      -0.01274006       0.15184838
Ni       8.93694868       6.55771461       0.10406574        1       1.00000000       0.05645924      -0.09482124      -0.58215259
Ni      11.53629922       6.57894481       0.00000000        0       1.00000000       0.03893975       0.04054821       0.24239876
Ni       1.29492272       0.78570544       2.13935158        4       1.00000000      -0.00480176       0.16234050       0.11264680
Ni       3.77444930       0.78122545       2.15537216        5       1.00000000      -0.13076524       0.00502197       0.21916103
Ni       6.38820101       0.78876788       2.15474186        5       1.00000000       0.01756010       0.07624835       0.12001358
Pt       8.90099386       0.73798479       2.13564481        4       0.00000000       0.04666177      -0.11783201       0.16914614
Ni       2.52498106       2.97375576       2.21205803        5       1.00000000       0.01741934       0.04359841       0.12120604
Ni       5.10866793       3.00038619       2.13047165        4       1.00000000       0.00573575       0.06826423       0.04639044
Ni       7.62640147       2.99586714       2.15259305        5       1.00000000      -0.04095930       0.02428386       0.11568505
Ni      10.24589005       3.02654352       2.14001916        4       1.00000000       0.08594882       0.05459823       0.11340658
Ni       3.82726594       5.12397680       2.13619215        4       1.00000000      -0.03907455      -0.09959073       0.04416333
Ni       6.33856850       5.11608373       2.08045655        4       1.00000000      -0.06570728      -0.04353645       0.01933980
Ni       8.94432853       5.07974648       2.10759628        4       1.00000000      -0.00235382      -0.13016363       0.05313875
Ni      11.52826915       5.10242766       2.12690131        4       1.00000000       0.09582181      -0.09724257       0.12520580
Ni       5.08731429       7.26517564       2.09668302        4       1.00000000      -0.13773142      -0.13420917       0.06882043
Pt       7.57580015       7.33406695       2.04466562        3       0.00000000      -0.04793953      -0.03398825      -0.00520637
Pt      10.30671480       7.25419564       2.14641542        4       0.00000000       0.03891672      -0.22605445       0.15573622
Ni      12.79087542       7.28717999       2.07376801        4       1.00000000       0.08646186      -0.14989865       0.06800565
Pt       0.07663611       1.51616914       4.25735880        7       0.00000000       0.11032868      -0.06420818      -0.02898001
Ni       2.54241243       1.52851813       4.23868293        6       1.00000000       0.04537723       0.06985660      -0.24095822
Pt       5.10033671       1.49203342       4.17644528        6       0.00000000       0.08093803      -0.02077511      -0.19051944
Ni       7.64119231       1.47722942       4.26107166        7       1.00000000      -0.00069341      -0.08941471      -0.21181214
Ni       1.31286706       3.70615549       4.28912785        7       1.00000000       0.07936417      -0.00477697      -0.11889165
Ni       3.76664955       3.74416260       4.23230490        6       1.00000000      -0.03364132       0.07933598      -0.20146831
Pt       6.35973100       3.67889121       4.27363038        7       0.00000000       0.00319106      -0.06476996      -0.02045949
Ni       8.97289936       3.72694682       4.21474026        6       1.00000000       0.10350566       0.04481436      -0.23825038
Ni       2.53772678       5.80000052       4.27869550        7       1.00000000      -0.03715239      -0.02235369      -0.17982689
Ni       5.06258236       5.82912425       4.27363078        7       1.00000000      -0.03266965      -0.08103188      -0.15663666
Pt       7.63951499       5.85080812       4.24738553        6       0.00000000      -0.02259860       0.01539831      -0.03692298
Ni      10.27634677       5.81947532       4.27132663        7       1.00000000       0.04104899      -0.01412201      -0.06902030
Pt       3.82685556       7.94673516       4.22996933        6       0.00000000       0.02307494       0.00813541      -0.01161329
Ni       6.36292937       8.05538467       4.23614801        6       1.00000000      -0.03029605      -0.02924899      -0.16972698
Pt       8.91622704       8.08217406       4.20883392        6       0.00000000      -0.06389256      -0.01466103      -0.19886598
Ni      11.51687957       8.02509018       4.22970077        6       1.00000000       0.00849544      -0.12827736      -0.14715242
Pt      -0.00880154      -0.08252538       6.51510251       10       0.00000000      -0.18727871       0.09204471       0.27829278
Pt       2.50715752       0.00613056       6.47452358       10       0.00000000       0.17821212       0.11546484       0.37916846
Pt       5.11384453       0.00202303       6.37904952        9       0.00000000      -0.08631734      -0.04339706       1.25146919
Pt       7.62692500      -0.03667654       6.46305079       10       0.00000000       0.11289756       0.15796658       0.31313171
Ni       1.26835449       2.26193188       6.42643832        9       1.00000000       0.04625531       0.04920563      -0.07023265
Pt       3.79312720       2.34573436       6.35040373        9       0.00000000      -0.13680190      -0.03387323       0.59317169
Ni       6.35915429       2.26148880       6.42888222        9       1.00000000       0.01948763      -0.00089089       0.02865889
Pt       8.89671129       2.33271888       6.32403318        8       0.00000000      -0.14527294      -0.09996517       0.91020530
Ni       2.52194788       4.45330261       6.38790538        9       1.00000000       0.05931177      -0.03383613      -0.34668384
Ni       5.10098850       4.46192269       6.41792347        9       1.00000000      -0.08926780       0.02398413      -0.23254057
Ni       7.58170118       4.41535350       6.43471781        9       1.00000000      -0.01904480      -0.02400385      -0.03643021
Ni      10.27968120       4.41278008       6.37479556        9       1.00000000       0.03884061      -0.00963066      -0.26371504
Ni       3.82596254       6.49263639       6.41139934        9       1.00000000      -0.00450875      -0.02173528      -0.24848403
Ni       6.34438799       6.53527455       6.40300992        9       1.00000000      -0.03339624       0.05685170      -0.11609919
Pt       8.96209182       6.47827185       6.47954756       10       0.00000000       0.13187653       0.07692790       0.33322697
Ni      11.52328781       6.54564743       6.36221724        9       1.00000000      -0.02293653       0.08042254      -0.19815206
