64
Lattice="10.384967979476562 -0.04098087247455305 0.013826832738616561 5.1569935131061255 8.972751641552652 -0.016865466074745664 0.011289561656140009 -0.022418945366971206 8.9158373929108" Properties=species:S:1:pos:R:3:tags:I:1:initial_magmoms:R:1:forces:R:3 unique_id=bf3ef93b0d834923a37a86ff9224214a stress="0.000533441115612529 -2.646319250429276e-06 -6.249483964192336e-06 -2.646319250429276e-06 0.0005285549321048383 2.551073283889187e-06 -6.249483964192336e-06 2.551073283889187e-06 0.00048399403316259915" energy=-402.8696308248283 pbc="T T T"
Ni       0.04594562       0.02021985       0.16737476        4       1.00000000       0.20508018       0.06332322       0.25006932
Ni       2.55336920       0.00005587       0.19393627        4       1.00000000      -0.14642184       0.07648725       0.42803729
Pt       5.10277746      -0.03544329       0.13445846        4       0.00000000      -0.09685480       0.03128212       0.20634742
Pt       7.86958603      -0.06851082       0.16289458        4       0.00000000       0.07042605      -0.03919281       0.31381731
Ni       1.25754334       2.24768885       0.09713665        4       1.00000000      -0.16502520       0.01196411       0.28614127
Pt       3.78818878       2.28859668       0.12056956        4       0.00000000      -0.10108518       0.05422037      -0.06170515
Pt       6.48746672       2.28568322       0.16451387        4       0.00000000      -0.02071552       0.09864943       0.20843027
Ni       9.13068173       2.22947642       0.16725788        4       1.00000000       0.10430413       0.06737666       0.28724124
Ni       2.58269887       4.47018815       0.06969525        4       1.00000000       0.04794115      -0.04651188       0.14501184
Ni       5.13967861       4.49931182       0.16850994        4       1.00000000      -0.06730757       0.10872463       0.36990559
Pt       7.85241948       4.49712213       0.11407999        4       0.00000000       0.12241143       0.03692600      -0.07924728
Ni      10.38068071       4.40811578       0.07711552        4       1.00000000       0.11346392      -0.23953848       0.21086457
Ni       3.88389289       6.69302385       0.16717703        4       1.00000000       0.05429758      -0.17580503       0.38894689
Pt       6.44215758       6.75171882       0.18894575        4       0.00000000      -0.03109030      -0.02500765      -0.00339966
Ni       9.04348750       6.69335871       0.06910192        4       1.00000000      -0.05037337       0.00354219       0.12876578
Pt      11.67353958       6.60203096       0.02772559        4       0.00000000       0.01796940      -0.15552152      -0.20942698
Ni       1.33188321       0.75402876       2.20304138        3       1.00000000       0.18527921       0.13064937      -0.05542142
Ni       3.83726171       0.76325151       2.24968155        3       1.00000000      -0.08746262       0.09237359       0.00608825
Pt       6.44396812       0.77704407       2.31162490        3       0.00000000      -0.12152339       0.09154234      -0.11233450
Pt       9.21183109       0.75424041       2.24570562        3       0.00000000       0.09856893       0.07458879       0.00372639
Ni       2.59272251       2.96997215       2.23752175        3       1.00000000      -0.00379827      -0.00001127       0.09009933
Ni       5.13680898       3.02569638       2.26535466        3       1.00000000      -0.23406533       0.14802366       0.05976197
Ni       7.81634018       3.02304542       2.25551791        3       1.00000000       0.14714101       0.16875405      -0.00806798
Ni      10.38305132       2.95291565       2.22693456        3       1.00000000       0.10710951       0.09444975       0.05620216
Ni       3.91292530       5.21885203       2.23822200        3       1.00000000       0.10503240      -0.05273022       0.12647425
Ni       6.45783688       5.22026852       2.25436832        3       1.00000000      -0.04994589       0.12670999      -0.04158650
Ni       9.03663511       5.17058540       2.26022677        3       1.00000000      -0.06972839      -0.16633035       0.19635144
Pt      11.71637169       5.10995615       2.23141062        3       0.00000000       0.10532070      -0.07149139      -0.00866885
Ni       5.16207186       7.42854745       2.21945651        3       1.00000000      -0.07324672      -0.18837762      -0.04648724
Ni       7.73566049       7.45199210       2.21925027        3       1.00000000      -0.05469064      -0.10377798      -0.06518099
Pt      10.28205250       7.37497775       2.21672431        3       0.00000000       0.00668377      -0.21618493      -0.23894033
Ni      12.99860208       7.38656422       2.23160461        3       1.00000000       0.04301545      -0.21192324      -0.06099157
Ni       0.01882669       1.51291225       4.41858707        2       1.00000000       0.14193338       0.01050471      -0.03790830
Pt       2.62336491       1.53298402       4.37697151        2       0.00000000       0.02056582      -0.03493420      -0.09808627
Ni       5.16511422       1.51176450       4.42385370        2       1.00000000      -0.01131587       0.16108541      -0.06381585
Pt       7.84622294       1.53546619       4.39219660        2       0.00000000       0.12028279       0.07775562       0.11154035
Pt       1.29139451       3.71974253       4.46985215        2       0.00000000      -0.03714095      -0.06374094       0.02284053
Ni       3.89058802       3.74884249       4.40382939        2       1.00000000      -0.01134464       0.11480151      -0.24000012
Pt       6.46000171       3.79528816       4.32020568        2       0.00000000      -0.07771406      -0.03349452      -0.04717133
Ni       9.07142259       3.71894955       4.41489915        2       1.00000000      -0.03551376       0.01389788      -0.24265354
Ni       2.60822471       5.92278223       4.41076573        2       1.00000000       0.08556337      -0.22559671      -0.18298589
Ni       5.15254637       5.92814745       4.37022524        2       1.00000000      -0.08847573      -0.06354087      -0.22262437
Ni       7.77350068       5.91708492       4.39751187        2       1.00000000      -0.06003310      -0.01625293      -0.26105038
Pt      10.30699324       5.86947682       4.49362639        2       0.00000000      -0.12532495      -0.04883078      -0.10575836
Pt       3.89184142       8.13890738       4.32587182        2       0.00000000      -0.02930302      -0.13750205       0.00756128
Pt       6.45104713       8.17208777       4.29115770        2       0.00000000      -0.07557741      -0.04067421      -0.08527898
Pt       9.01833739       8.18047410       4.36237604        2       0.00000000       0.01707983       0.02470510      -0.00247116
Pt      11.67466649       8.12933909       4.38568972        2       0.00000000       0.03777457      -0.11340904      -0.02763049
Pt       0.03277975       0.03246206       6.65737770        1       0.00000000      -0.00516690       0.02294464       0.04557322
Pt       2.61351487       0.02961010       6.69085324        1       0.00000000      -0.01274604       0.09450111       0.22322728
Pt       5.17673820      -0.07263818       6.57001297        1       0.00000000       0.01473746      -0.09638762      -0.31429409
Pt       7.79397104      -0.06177062       6.60351609        1       0.00000000       0.04247053       0.08178156      -0.22615371
Ni       1.32367875       2.28334519       6.62312030        1       1.00000000       0.12110608       0.14112047      -0.03501154
Ni       3.85596807       2.24935899       6.55097580        1       1.00000000      -0.10590480       0.08044510      -0.23475270
Pt       6.46787187       2.24646573       6.56219649        1       0.00000000       0.03932831       0.11003164      -0.21319461
Pt       9.16696713       2.32448106       6.64450916        1       0.00000000       0.14791452       0.22490618       0.17224990
Ni       2.54145288       4.44513679       6.60814391        1       1.00000000      -0.16142552      -0.06743417      -0.11558757
Pt       5.11175404       4.42604526       6.61504497        1       0.00000000      -0.13250943      -0.05470098       0.09649829
Ni       7.82247782       4.47638379       6.54418466        1       1.00000000       0.07569470       0.09202737      -0.28520746
Ni      10.39467246       4.47324752       6.63431358        1       1.00000000       0.10906944       0.20054765       0.03233953
Pt       3.80552248       6.64546652       6.61528821        1       0.00000000      -0.12256541      -0.00485376       0.14880303
Pt       6.53600013       6.64862872       6.54527364        1       0.00000000      -0.00377233      -0.01082926      -0.16512256
Ni       9.09033057       6.64488697       6.62010057        1       1.00000000      -0.00518894      -0.08956795      -0.08585272
Ni      11.63806913       6.62551601       6.54003857        1       1.00000000      -0.03320772      -0.13648911      -0.33884556
