64
Lattice="10.08697275343008 0.017525175932458323 -0.0538183054156198 5.058663624278342 8.774003813097426 0.0299188337377583 -0.043942462363177746 0.05357793943578501 8.700972925641759" Properties=species:S:1:pos:R:3:tags:I:1:initial_magmoms:R:1:forces:R:3 unique_id=00fd12ec2f74424a9e802c8161a8ae4f stress="-0.0011987025298529144 -7.424892599026866e-06 2.890267146886169e-05 -7.424892599026866e-06 -0.0011962237115603208 -1.3699058043316376e-05 2.890267146886169e-05 -1.3699058043316376e-05 -0.0010102755969273874" energy=-389.97692488130025 pbc="T T T"
Pt      -0.07407749      -0.02034193       0.01346421        4       0.00000000      -0.21936195       0.02866351      -0.18165002
Pt       2.61629329      -0.00114904       0.17246072        4       0.00000000       0.09390512       0.00027818       0.32305812
Ni       5.07666175      -0.00498033       0.02760283        4       1.00000000       0.01928595      -0.01949030      -0.02512927
Ni       7.50451945      -0.00281957       0.02489338        4       1.00000000      -0.09187270       0.00589436       0.09772086
Pt       1.26245546       2.29813505       0.18687513        4       0.00000000      -0.03702770       0.16934909       0.36345906
Ni       3.83890271       2.24529106       0.09995673        4       1.00000000       0.04957960       0.04875069       0.17203545
Ni       6.27588829       2.22125447       0.12878815        4       1.00000000      -0.12200245       0.07470735       0.30742206
Ni       8.78062280       2.25087314       0.03356660        4       1.00000000      -0.09574336       0.05510484       0.14347157
Ni       2.56901690       4.43050153       0.09552221        4       1.00000000       0.07080982       0.10614227       0.07293440
Ni       5.01468956       4.35330610       0.10519717        4       1.00000000      -0.02511831      -0.03566626       0.16794852
Ni       7.59506412       4.38388833       0.04200209        4       1.00000000       0.00085716      -0.01606997       0.03082771
Ni      10.04756562       4.44957413       0.04748444        4       1.00000000      -0.13156646       0.08667161       0.09019793
Ni       3.72936165       6.54315758       0.12307647        4       1.00000000      -0.08995653      -0.02415367       0.19905182
Pt       6.31341527       6.48595987       0.18417835        4       0.00000000      -0.01122443      -0.15433260       0.31718076
Ni       8.89185229       6.55584485       0.09322597        4       1.00000000       0.06425557       0.00945155       0.10564096
Ni      11.35341385       6.61508902       0.04521766        4       1.00000000      -0.04287601       0.09932082       0.00510812
Ni       1.27332477       0.71696034       2.22554628        3       1.00000000      -0.02302231      -0.11425158      -0.12293769
Ni       3.77137728       0.76256145       2.21344406        3       1.00000000      -0.01808579      -0.03498178      -0.04044081
Pt       6.20815116       0.69934705       2.14351892        3       0.00000000      -0.07907646      -0.11295954       0.08196035
Pt       8.85719934       0.72195252       2.19366647        3       0.00000000       0.14755372      -0.15394236      -0.23716636
Ni       2.57720486       2.96554262       2.20623881        3       1.00000000       0.08503824       0.17246048      -0.06634056
Ni       4.98092853       2.98379756       2.18937058        3       1.00000000      -0.02468840       0.04729944       0.18957661
Pt       7.53254463       3.03618560       2.13140805        3       0.00000000      -0.08271224       0.09561860       0.06509536
Ni      10.08759380       2.97054526       2.19518226        3       1.00000000       0.04650103       0.00604003       0.11884577
Ni       3.82129832       5.12688651       2.18796142        3       1.00000000       0.03318515       0.03005879       0.03701967
Ni       6.26450625       5.14463475       2.26965532        3       1.00000000      -0.07094181       0.06260305       0.15721202
Ni       8.80408050       5.20318888       2.15644124        3       1.00000000      -0.10776322       0.09340892       0.03473607
Pt      11.33555143       5.14894991       2.11989462        3       0.00000000      -0.04667596       0.02290171      -0.06998377
Ni       5.05304985       7.27364406       2.27328760        3       1.00000000       0.01714705      -0.06475114       0.01892417
Ni       7.58584767       7.30537902       2.28565514        3       1.00000000      -0.05420546       0.01296238       0.06766177
Ni      10.03854454       7.31787809       2.18571755        3       1.00000000      -0.10302346      -0.00279697       0.04136348
Ni      12.62526492       7.31066758       2.14235238        3       1.00000000       0.02737088      -0.03295210      -0.00368126
Ni      -0.00328308       1.45980857       4.32585256        2       1.00000000       0.12252576       0.04096876      -0.06574945
Pt       2.53713679       1.51500379       4.21318931        2       0.00000000      -0.06351834       0.00086093       0.18010396
Ni       5.00884617       1.49372150       4.31467823        2       1.00000000       0.02874599       0.01361198       0.02228382
Pt       7.53864282       1.44708462       4.35195276        2       0.00000000      -0.06769264      -0.01935155       0.25693167
Ni       1.26501524       3.71519933       4.31972195        2       1.00000000       0.07701053       0.03619778      -0.06043129
Ni       3.80808970       3.69487627       4.33395415        2       1.00000000       0.07312532       0.03627660      -0.08106039
Ni       6.23623849       3.73871455       4.32040303        2       1.00000000      -0.03047411       0.03232397       0.04630811
Pt       8.84293916       3.76235595       4.34684279        2       0.00000000       0.08377139       0.07477239       0.05276755
Pt       2.53172741       5.88822331       4.38845486        2       0.00000000       0.03957308       0.02517289      -0.04600607
Ni       5.03910838       5.85803379       4.27921013        2       1.00000000       0.05659901      -0.02555631      -0.07978133
Ni       7.55798511       5.91459251       4.28282963        2       1.00000000      -0.02189945       0.07692729      -0.06145459
Ni      10.06179814       5.93998143       4.33647273        2       1.00000000       0.02617651       0.06347917      -0.09031032
Ni       3.81259954       8.02715468       4.38706011        2       1.00000000       0.06336889      -0.13700515      -0.06731792
Ni       6.27570489       8.05104412       4.27869644        2       1.00000000       0.06424875      -0.06046754      -0.08671491
Ni       8.85638204       8.02617968       4.29277018        2       1.00000000       0.00467031       0.00531196      -0.08916049
Ni      11.29649071       8.05497595       4.35551312        2       1.00000000      -0.03054954      -0.05814486      -0.03175706
Ni      -0.07913750       0.02944462       6.31881692        1       1.00000000       0.02643480      -0.03101261      -0.47363869
Pt       2.55852780       0.01047354       6.36541663        1       0.00000000       0.12194248      -0.08177655      -0.29248846
Ni       5.06041838       0.00082726       6.39584167        1       1.00000000       0.13755887      -0.15029244      -0.24407343
Ni       7.54615117      -0.01065563       6.41769585        1       1.00000000       0.04097739      -0.20784352      -0.03385948
Pt       1.19948547       2.29613654       6.39337098        1       0.00000000      -0.00576420       0.05377313      -0.27068657
Ni       3.76348670       2.27033406       6.43512591        1       1.00000000      -0.06622153       0.03259922      -0.13186371
Pt       6.24402663       2.25532431       6.47935926        1       0.00000000      -0.00759794      -0.04301584       0.15294845
Ni       8.79682519       2.23796265       6.43610912        1       1.00000000      -0.00498524      -0.06621612      -0.01977510
Ni       2.52060455       4.45311055       6.47210429        1       1.00000000       0.03288164       0.04297048      -0.05745131
Ni       4.97159094       4.42247041       6.42931378        1       1.00000000      -0.16659913       0.00072257      -0.15480180
Ni       7.57420030       4.43293529       6.43864866        1       1.00000000       0.08261155      -0.01502332      -0.13207637
Ni      10.06770478       4.50056413       6.43477574        1       1.00000000       0.14565148       0.14200852      -0.07661418
Ni       3.73412591       6.62137956       6.47853889        1       1.00000000      -0.01896029      -0.02976996       0.01375821
Pt       6.25264686       6.55488559       6.35489983        1       0.00000000      -0.02658376      -0.10821075      -0.28872810
Ni       8.86856734       6.58855178       6.41785553        1       1.00000000       0.07210923      -0.06341205      -0.16753854
Ni      11.31854904       6.63618135       6.43111038        1       1.00000000       0.03231894      -0.04221845      -0.08288508
