64
Lattice="10.709739432423117 -0.00041739355324768335 -0.003054104488880043 5.3545082427910735 9.267559506757117 -0.02028616951689658 -0.0024936658729665614 -0.017686265376570337 9.323709854490222" Properties=species:S:1:pos:R:3:tags:I:1:initial_magmoms:R:1:forces:R:3 unique_id=c00d94be6c234160b90bcfec1b82af2f stress="0.0021714793596757376 -8.432525388780856e-07 -4.011445572737256e-06 -8.432525388780856e-07 0.002185813337304651 4.93792860231428e-06 -4.011445572737256e-06 4.93792860231428e-06 0.0016283398119654874" energy=-424.94981521821205 pbc="T T T"
Pt       0.00716968       0.00752596       0.09792406        4       0.00000000       0.00340803       0.00248943       0.05621805
Pt       2.70847894       0.04575049       0.12255919        4       0.00000000       0.03141619       0.08192169       0.08957014
Pt       5.32328578       0.03200881       0.11272753        4       0.00000000       0.00234234       0.03004196       0.07018682
Pt       8.02428634       0.00501618       0.09546251        4       0.00000000      -0.02875330       0.01304048       0.08279033
Pt       1.34347329       2.35855626       0.10936710        4       0.00000000      -0.01631117       0.03975415       0.04652801
Ni       4.01208672       2.31493780       0.04694703        4       1.00000000      -0.01695716       0.00345097       0.14440523
Pt       6.66569269       2.31828123       0.09299617        4       0.00000000       0.03074635       0.00548826       0.04040401
Pt       9.40658693       2.36194976       0.11203117        4       0.00000000       0.04252054       0.02066041       0.03605508
Pt       2.65633790       4.60205463       0.00070904        4       0.00000000      -0.00143863      -0.01408848      -0.10244472
Pt       5.32825018       4.59680569       0.08593177        4       0.00000000      -0.03088731      -0.05204469       0.10563238
Pt       8.08461754       4.63506874       0.10718327        4       0.00000000       0.03211444      -0.00379180       0.03486968
Ni      10.70710997       4.62759436       0.04916226        4       1.00000000       0.00735440      -0.02296459       0.14040882
Pt       4.00919807       6.93737868      -0.00602489        4       0.00000000      -0.01360637      -0.02356610      -0.08065017
Pt       6.69995594       6.94747733       0.08653478        4       0.00000000       0.02627148      -0.00057570       0.08155121
Pt       9.39375749       6.90872450       0.10911457        4       0.00000000       0.03505786      -0.00872723       0.08632311
Pt      12.02820022       6.90747702       0.08146865        4       0.00000000      -0.00632432      -0.02974841       0.07740463
Pt       1.35670692       0.80216348       2.36152704        3       0.00000000      -0.02992689       0.04469554       0.06013359
Ni       4.01910759       0.76954733       2.36372937        3       1.00000000       0.02129062      -0.01386705       0.13195332
Pt       6.65692707       0.78890731       2.42219751        3       0.00000000       0.01002218       0.06372236       0.14708398
Pt       9.37104024       0.81552593       2.38713668        3       0.00000000      -0.04138077       0.02513070       0.09953524
Pt       2.68000605       3.05489479       2.33542224        3       0.00000000      -0.00349479       0.00825880       0.04488898
Pt       5.31743019       3.02771059       2.36029783        3       0.00000000      -0.07115101      -0.04540459       0.07862992
Pt       8.08196543       3.10439934       2.37653338        3       0.00000000      -0.00073822      -0.00441441       0.04418993
Ni      10.70070632       3.11011198       2.32420605        3       1.00000000      -0.02355602       0.03153865       0.03929002
Pt       3.99379115       5.38831317       2.35292878        3       0.00000000      -0.09918595      -0.02451719       0.07092507
Pt       6.73586438       5.38840157       2.35192402        3       0.00000000       0.00043132      -0.03053255       0.06330265
Ni       9.38765578       5.38417956       2.32048197        3       1.00000000       0.01707642      -0.03503728       0.02095635
Pt      11.95638827       5.33777552       2.31530659        3       0.00000000      -0.12132006      -0.11821979      -0.01375021
Pt       5.35918765       7.72364348       2.35671512        3       0.00000000      -0.03409280      -0.01597691       0.06631597
Pt       8.07911076       7.73876726       2.36642797        3       0.00000000       0.01990987       0.07325989       0.06417105
Pt      10.67112573       7.73177489       2.37010804        3       0.00000000       0.00024168       0.04749590       0.07824291
Pt      13.36444154       7.71076717       2.35169370        3       0.00000000      -0.08276868      -0.06381104       0.08209691
Pt      -0.01353525       1.55329448       4.61438602        2       0.00000000       0.09797502       0.05383205      -0.02865746
Pt       2.77572014       1.50103783       4.62153918        2       0.00000000       0.16394322      -0.10120176      -0.09373491
Ni       5.34640794       1.52132852       4.64212547        2       1.00000000      -0.00680154      -0.03206650      -0.06027293
Ni       8.01640689       1.53506119       4.65173288        2       1.00000000      -0.00856398       0.00575697       0.00431381
Pt       1.32905353       3.86104159       4.65686311        2       0.00000000       0.01744418       0.00103032      -0.06232181
Pt       4.01585032       3.79330947       4.68001236        2       0.00000000       0.00826645      -0.08637154       0.01018517
Pt       6.69511392       3.77987336       4.61946913        2       0.00000000       0.01471215      -0.08261494      -0.05964395
Pt       9.37995707       3.84659854       4.58496793        2       0.00000000       0.06544692       0.03915677      -0.10386473
Pt       2.68356515       6.16021592       4.68089827        2       0.00000000       0.00818826      -0.02208160      -0.06736599
Pt       5.34590165       6.16336082       4.64400401        2       0.00000000       0.03312104      -0.05089208      -0.05587374
Pt       8.05901302       6.18090039       4.58836527        2       0.00000000       0.03922700      -0.02928575      -0.07674317
Pt      10.69531363       6.18209134       4.60376124        2       0.00000000       0.02448378       0.03510814      -0.07407068
Pt       3.98819388       8.50575309       4.62922150        2       0.00000000      -0.02974365       0.04164337      -0.06780533
Pt       6.73418050       8.50084316       4.60679674        2       0.00000000       0.04491815       0.01749875      -0.01159244
Ni       9.38319078       8.50963957       4.61869944        2       1.00000000       0.05778603       0.03392278      -0.07452592
Pt      11.99261463       8.55574936       4.61541864        2       0.00000000      -0.05490192       0.02672729       0.04157566
Pt      -0.00915925      -0.02858477       6.88683338        1       0.00000000       0.02089587       0.04959514      -0.05326628
Pt       2.70009333       0.02283130       6.88035698        1       0.00000000      -0.02174627       0.04886871       0.01025174
Pt       5.32432027       0.02401041       6.84892090        1       0.00000000      -0.06236783       0.02414338      -0.01642359
Pt       8.03178434      -0.03163786       6.86364901        1       0.00000000      -0.03736824      -0.01105739      -0.02603789
Pt       1.38551583       2.37996390       6.88603570        1       0.00000000       0.10875976       0.11145695      -0.03889449
Ni       4.01143483       2.31390498       6.92451673        1       1.00000000      -0.01059959       0.02240524      -0.15018868
Pt       6.65070823       2.29647408       6.84331754        1       0.00000000      -0.04922903       0.01701036      -0.05442195
Pt       9.38516965       2.32917991       6.86863921        1       0.00000000       0.03974463       0.04184486      -0.06753957
Ni       2.67469433       4.61915874       6.87542938        1       1.00000000      -0.01146471       0.00260264      -0.25843703
Pt       5.26449390       4.61183038       6.88163094        1       0.00000000      -0.13294176      -0.00027713       0.02074425
Pt       8.05701657       4.62269025       6.87910263        1       0.00000000      -0.01954291       0.00842415      -0.06759939
Ni      10.72203777       4.62112836       6.92513831        1       1.00000000       0.01901101       0.00238863      -0.17823797
Ni       4.00595512       6.92467713       6.86627988        1       1.00000000      -0.02245045      -0.01571047      -0.27272181
Pt       6.65885088       6.92993723       6.87832383        1       0.00000000      -0.01940016      -0.03045223      -0.02616093
Pt       9.39773850       6.92199001       6.86640532        1       0.00000000       0.03904366       0.00647059      -0.02702436
Pt      12.08258434       6.86603494       6.87415383        1       0.00000000       0.02584468      -0.11153708      -0.00086194
