64
Lattice="10.144383444790568 0.014035247498941458 -0.01101919606210927 5.084346603277825 8.74468964358723 -0.029645611090329156 0.0 0.0 21.39839142914466" Properties=species:S:1:pos:R:3:tags:I:1:initial_magmoms:R:1:forces:R:3 unique_id=2ff141af8bb44500a0d99fa0d3e36b7f energy=-367.9694072922024 stress="0.002293023724795425 -6.475997714207864e-05 -2.174547958276829e-06 -6.475997714207864e-05 0.001571566215457159 -5.0232874742455624e-05 -2.174547958276829e-06 -5.0232874742455624e-05 -0.004978826305558815" pbc="T T T"
Ni       0.04242352      -0.05157213       0.11328009        1       1.00000000       0.07962928      -0.03124653      -0.53372266
Ni       2.49212372      -0.03093463       0.10427441        1       1.00000000       0.05895529      -0.01418888      -0.19151863
Pt       5.08844055      -0.06395941       0.11430663        1       0.00000000      -0.10927015      -0.00726470      -0.82216279
Ni       7.61573587      -0.04244839       0.08267832        1       1.00000000      -0.07572049      -0.08667808      -0.54269303
Ni       1.26571226       2.20353356       0.03518082        0       1.00000000      -0.03195350       0.02346213       0.21048792
Pt       3.76993548       2.24747138       0.10273171        1       0.00000000       0.01652719      -0.06526387      -0.73500018
Ni       6.34452554       2.23677377       0.02542695        0       1.00000000      -0.05168754      -0.02265354       0.12113213
Pt       8.88048763       2.26485972       0.03785146        0       0.00000000       0.03854897       0.18561295      -1.08254760
Ni       2.51641588       4.41764956       0.00785451        0       1.00000000       0.05164902      -0.00917371       0.39160995
Ni       5.09896341       4.42625473       0.00617491        0       1.00000000      -0.09983770       0.02140732       0.25503317
Ni       7.58127244       4.42761382       0.01223184        0       1.00000000       0.07827330       0.01947236       0.19722178
Ni      10.18136654       4.42868559       0.00612045        0       1.00000000      -0.04700652      -0.00427493       0.31056765
Ni       3.81813910       6.53537405       0.00492860        0       1.00000000       0.01571783       0.00925711       0.31260692
Ni       6.34195307       6.55013608       0.00558828        0       1.00000000       0.01028863       0.04991554       0.24411320
Ni       8.86169759       6.51602631       0.11179119        1       1.00000000       0.00440691       0.02670009      -0.26894582
Ni      11.44577457       6.51368700       0.00000000        0       1.00000000      -0.02166429       0.05847363       0.30589174
Ni       1.31657211       0.72163359       2.06590155        3       1.00000000      -0.00556122       0.09109040       0.09548154
Ni       3.74042518       0.69293509       2.10240839        3       1.00000000      -0.12958268      -0.08746261       0.17224840
Ni       6.34847848       0.73079210       2.08745273        3       1.00000000       0.02491264       0.04912294       0.10406427
Pt       8.85989631       0.70570258       2.06700384        3       0.00000000       0.04307033      -0.14581865       0.15357244
Ni       2.50283863       2.95157757       2.13990032        3       1.00000000      -0.01598103       0.06613279       0.09832861
Ni       5.08213755       2.97264065       2.06121184        3       1.00000000       0.02114934       0.08623488       0.05361279
Ni       7.58578775       2.96880515       2.08568752        3       1.00000000      -0.02488953       0.04404199       0.10183403
Ni      10.19550392       2.99787563       2.07439565        3       1.00000000       0.08127782       0.07817941       0.09598979
Ni       3.79770890       5.09473932       2.06257950        3       1.00000000      -0.04371039      -0.01935530       0.04002019
Ni       6.33038631       5.11726040       2.00865229        2       1.00000000       0.00812775       0.01815278       0.03351090
Ni       8.90717467       5.09165108       2.03860447        2       1.00000000       0.04599809      -0.07198185       0.04202876
Ni      11.42064407       5.10835572       2.06793543        3       1.00000000       0.01576096      -0.01084436       0.12327280
Ni       5.11697442       7.21526559       2.03231657        2       1.00000000      -0.03051059      -0.06545653       0.09762013
Ni       7.60891092       7.29245742       2.03111054        2       1.00000000      -0.03074114      -0.00425674       0.04963930
Ni      10.15353372       7.22753054       2.11834505        3       1.00000000      -0.00034934      -0.09575060       0.14982855
Ni      12.64651162       7.21204548       2.02048547        2       1.00000000      -0.02266794      -0.09306264       0.08166299
Pt       0.08744273       1.50493513       4.15379458        5       0.00000000       0.11410163      -0.07699690      -0.00964901
Ni       2.54420095       1.46968629       4.13327787        4       1.00000000       0.05100584      -0.02722689      -0.21789358
Pt       5.04980121       1.42192300       4.07299017        4       0.00000000       0.07612047      -0.02476921      -0.15489536
Ni       7.59408435       1.44624523       4.17096195        5       1.00000000      -0.03029462      -0.11195413      -0.20971994
Ni       1.30087697       3.69172904       4.18791062        5       1.00000000       0.05254157       0.01302172      -0.11257831
Ni       3.74746453       3.70979278       4.13058119        4       1.00000000      -0.02381095       0.06142310      -0.17817447
Pt       6.33044465       3.65086012       4.18139618        5       0.00000000       0.03198239      -0.02489235      -0.01391665
Ni       8.92745630       3.70644711       4.12128862        4       1.00000000       0.09695689       0.09738543      -0.21684836
Ni       2.50738652       5.76159141       4.17445247        5       1.00000000      -0.04490381      -0.01756887      -0.17878984
Ni       5.04633891       5.78875208       4.17615515        5       1.00000000       0.03436785      -0.03529720      -0.16456825
Pt       7.62846826       5.86762126       4.10196877        4       0.00000000       0.00144016       0.01855709       0.02950486
Ni      10.20608397       5.80837404       4.14441397        4       1.00000000      -0.00293187       0.02225403      -0.11016167
Pt       3.79255984       7.88326286       4.13649272        4       0.00000000       0.02619803       0.01950486      -0.01445455
Ni       6.36631925       8.00304531       4.10399024        4       1.00000000       0.03784353       0.03040341      -0.22068664
Ni       8.88171987       7.99522206       4.09530452        4       1.00000000      -0.02133025       0.02471846      -0.24546239
Ni      11.40020026       7.92862399       4.09685743        4       1.00000000      -0.02244568      -0.12068407      -0.19341987
Pt       0.00259410      -0.08179940       6.39839143        8       0.00000000      -0.19929316       0.10413679       0.37857214
Pt       2.51268025      -0.01536554       6.30761693        7       0.00000000       0.27326952       0.02794380       0.15217845
Pt       5.08222051      -0.03074529       6.24207110        6       0.00000000      -0.22302552      -0.16787080       0.90991605
Pt       7.58919457      -0.05558300       6.35290405        8       0.00000000       0.10757780       0.15473081       0.41230775
Ni       1.26818044       2.24586908       6.31065090        7       1.00000000       0.03591173       0.03366505      -0.00432218
Pt       3.77915244       2.32184255       6.23494966        6       0.00000000      -0.13472866      -0.04414030       0.68736385
Ni       6.32567352       2.22869835       6.31509017        7       1.00000000       0.01633697      -0.01813849       0.08438896
Pt       8.85443788       2.30234219       6.20956390        6       0.00000000      -0.15288271      -0.12532472       1.11369889
Ni       2.50737625       4.42038482       6.27222906        7       1.00000000       0.07048858      -0.04758069      -0.27378140
Ni       5.07357393       4.42657890       6.30690809        7       1.00000000      -0.08909499       0.01263174      -0.15495119
Ni       7.54177980       4.37680590       6.32061314        7       1.00000000      -0.03554740      -0.02262863      -0.03482439
Ni      10.22970172       4.36614698       6.26835450        7       1.00000000       0.04229092      -0.01113643      -0.23125505
Ni       3.79914888       6.44044319       6.30005110        7       1.00000000       0.00050177      -0.01169415      -0.18147009
Ni       6.30894199       6.47909127       6.29518544        7       1.00000000      -0.01791725       0.04876778      -0.19443583
Pt       8.90784610       6.42200242       6.36128366        8       0.00000000       0.10829251       0.15999275       0.12041079
Ni      11.45917360       6.47677728       6.25909297        7       1.00000000      -0.03218058       0.06624421      -0.23687197
