64
Lattice="10.248612272289426 -0.0126488702557304 -0.013446101086820273 5.113351893174072 8.849830413480483 -0.02860882677760273 -0.010978695564197331 -0.020634107715638676 8.787139703893581" Properties=species:S:1:pos:R:3:tags:I:1:initial_magmoms:R:1:forces:R:3 unique_id=8f5a5e8c3e8d4127a051769e899c486f stress="-0.0002077797097962894 -2.2892371636325145e-06 8.016190662452026e-06 -2.2892371636325145e-06 -0.0001983543144079905 2.8153567007355665e-05 8.016190662452026e-06 2.8153567007355665e-05 -0.00015947351511288316" energy=-394.0599958782708 pbc="T T T"
Ni       0.02002025       0.03815709       0.14994122        4       1.00000000       0.16915842       0.09738094       0.20062172
Ni       2.57961832       0.03236763       0.20285778        4       1.00000000       0.03339272       0.04704546       0.25491980
Ni       5.09650387      -0.02566143       0.06003244        4       1.00000000      -0.08932231      -0.00363302       0.04335198
Ni       7.68874706      -0.03262938       0.03232587        4       1.00000000      -0.02503364       0.01476443      -0.00922552
Ni       1.28007730       2.22159722       0.10064483        4       1.00000000       0.01388497       0.05857407       0.12295475
Ni       3.80138006       2.21266662       0.19698628        4       1.00000000      -0.05430038      -0.02744302       0.25338182
Pt       6.39968708       2.27296113       0.13981504        4       0.00000000      -0.05089278       0.11807907       0.50750107
Ni       9.00719333       2.24107236       0.04628631        4       1.00000000       0.10065370       0.10370533       0.02661328
Ni       2.56662822       4.39970387       0.05470022        4       1.00000000       0.00986728      -0.14814372      -0.00112796
Ni       5.06127585       4.41858539       0.05910651        4       1.00000000      -0.21515230       0.02698987       0.05949183
Ni       7.74643356       4.40837553       0.05250436        4       1.00000000       0.24953362      -0.00312239       0.04917654
Ni      10.23110487       4.38886255       0.03844217        4       1.00000000      -0.01686899      -0.08596111      -0.01003360
Ni       3.80809961       6.60653006       0.01873785        4       1.00000000      -0.04137259      -0.12970942      -0.03059303
Pt       6.43514407       6.63115567      -0.04527589        4       0.00000000       0.01908762       0.00077683      -0.27907520
Ni       8.97067151       6.61101658       0.10917755        4       1.00000000       0.01000493      -0.09348854       0.17671879
Ni      11.51378599       6.61533275      -0.00024800        4       1.00000000      -0.09929898      -0.08091805      -0.12851545
Ni       1.32571801       0.78016967       2.15219950        3       1.00000000      -0.01559710       0.08684774      -0.02804794
Ni       3.78566917       0.74573505       2.15757336        3       1.00000000       0.03103666      -0.02310070       0.09255206
Pt       6.35809709       0.73539736       2.19210288        3       0.00000000      -0.06486603       0.12666802      -0.08386311
Pt       9.02912492       0.81977450       2.13204669        3       0.00000000       0.04542610      -0.01728887      -0.02254688
Ni       2.57075806       2.92508276       2.15382971        3       1.00000000      -0.05695962       0.03467398       0.01336712
Ni       5.03704239       2.96651591       2.19885540        3       1.00000000      -0.10109951      -0.01337029       0.14876454
Ni       7.74183229       2.98283992       2.19333796        3       1.00000000       0.12212239       0.02984848       0.06610970
Ni      10.24846484       2.94508711       2.16257802        3       1.00000000       0.04226382      -0.03102756       0.03086735
Ni       3.83585239       5.08644107       2.18582951        3       1.00000000      -0.03084339      -0.08187118       0.02942327
Pt       6.43416919       5.10691666       2.16350641        3       0.00000000       0.01831723      -0.02681484      -0.12858179
Ni       8.95281460       5.10357424       2.18310491        3       1.00000000       0.04829919      -0.10125261       0.04631342
Pt      11.50719282       5.05740312       2.12452915        3       0.00000000       0.02360795      -0.04632159      -0.09735165
Pt       5.14053313       7.35355842       2.14910380        3       0.00000000       0.04041052      -0.10271368      -0.19203347
Ni       7.68401226       7.38420674       2.17353184        3       1.00000000      -0.04630915      -0.02367433      -0.01818430
Pt      10.13447364       7.33665384       2.19034418        3       0.00000000      -0.10481607      -0.05805102       0.02331887
Pt      12.78858596       7.30769781       2.12385143        3       0.00000000       0.00368470      -0.10260774      -0.08131304
Ni       0.00219059       1.49731109       4.38070417        2       1.00000000       0.03624048      -0.02455233      -0.01906286
Pt       2.51439843       1.48772572       4.27166158        2       0.00000000       0.04846221      -0.00312766       0.08858856
Pt       5.08039175       1.41893089       4.35063454        2       0.00000000      -0.07349673       0.03712794       0.16721947
Pt       7.76496897       1.48758870       4.36875751        2       0.00000000       0.02012190       0.05375649       0.11728997
Pt       1.22986248       3.73044634       4.41823111        2       0.00000000      -0.02809076      -0.01097998      -0.00966518
Ni       3.82199336       3.74692474       4.34031866        2       1.00000000      -0.08833213       0.05235316      -0.07230427
Pt       6.39446526       3.75649037       4.37111295        2       0.00000000      -0.02508182       0.06715841      -0.00946095
Ni       8.97337046       3.72112230       4.35874406        2       1.00000000       0.01207195       0.14627936      -0.06499374
Ni       2.53955785       5.86181260       4.40020403        2       1.00000000      -0.08009285      -0.05954163      -0.08964663
Ni       5.06458802       5.85304145       4.38586194        2       1.00000000      -0.12636621      -0.08485609      -0.15159503
Ni       7.73646079       5.87190029       4.33753171        2       1.00000000       0.20039417      -0.04268882      -0.17694989
Ni      10.23040754       5.89121567       4.34685475        2       1.00000000       0.00845752      -0.00014838      -0.08147805
Pt       3.77864378       8.01323176       4.40057073        2       0.00000000       0.00021059       0.00914120       0.05702687
Pt       6.43445450       8.02541433       4.32012297        2       0.00000000       0.01923728       0.00406007       0.06690587
Ni       8.97622445       8.04354547       4.33566601        2       1.00000000      -0.02294380      -0.03757625       0.04540760
Ni      11.48062020       8.02855695       4.39445350        2       1.00000000      -0.05984901      -0.09819337       0.00534815
Pt      -0.06914496       0.01761837       6.59025875        1       0.00000000      -0.11044666       0.00015296       0.05366504
Pt       2.58189552      -0.02876995       6.58974512        1       0.00000000       0.06517376       0.03803759       0.19082403
Ni       5.16149775      -0.06357057       6.50647595        1       1.00000000       0.07065750      -0.07387631      -0.09357340
Ni       7.63869901      -0.07747997       6.52034811        1       1.00000000      -0.10189824      -0.13951235      -0.11076393
Ni       1.22705761       2.24470922       6.52717965        1       1.00000000      -0.03624756       0.05714449       0.00623963
Pt       3.79305329       2.30788628       6.58234546        1       0.00000000      -0.10290350       0.23576358       0.21000763
Pt       6.44967335       2.20194032       6.50642621        1       0.00000000       0.09297714      -0.02375082      -0.18035672
Ni       8.99898187       2.24527803       6.50865638        1       1.00000000       0.11228317       0.21221629      -0.11975893
Ni       2.53460032       4.47971430       6.50458296        1       1.00000000      -0.05979605       0.22259082      -0.03933822
Ni       5.09409875       4.48713882       6.49615465        1       1.00000000      -0.03996395       0.16721310      -0.05697509
Ni       7.69764124       4.41819158       6.49886568        1       1.00000000       0.07780127       0.02569047      -0.06387441
Ni      10.24435489       4.38064362       6.49918615        1       1.00000000       0.04833015       0.00298092      -0.01292357
Ni       3.79761119       6.56577823       6.49388345        1       1.00000000      -0.04156957      -0.07341914      -0.09243349
Ni       6.36196198       6.55475149       6.37567748        1       1.00000000       0.00928865      -0.12217647      -0.46842429
Pt       9.00993587       6.54215209       6.47692125        1       0.00000000       0.11909489      -0.02833067       0.07658716
Ni      11.55183104       6.60807174       6.45710254        1       1.00000000       0.08825720      -0.05377712      -0.20648631
