64
Lattice="10.314006525200089 -0.030937592588463743 0.0036251963200333442 5.130210521486501 8.926934726935288 -0.01026061528013382 0.0029599604004990105 -0.011382734792323877 8.819011932422057" Properties=species:S:1:pos:R:3:tags:I:1:initial_magmoms:R:1:forces:R:3 unique_id=ca366925a2f34d53ae1f3d3800b24989 stress="0.0003095890860960321 9.700233657009748e-07 -4.094293051046654e-06 9.700233657009748e-07 0.000312946708286542 9.511423085028909e-06 -4.094293051046654e-06 9.511423085028909e-06 0.0002946652523292542" energy=-399.11808585044116 pbc="T T T"
Ni       0.02114371       0.03121418       0.20162654        4       1.00000000       0.10133247       0.11201458       0.31914491
Ni       2.56827321      -0.00345422       0.20756279        4       1.00000000      -0.05872859       0.01288518       0.42403838
Ni       5.12644685      -0.02951410       0.15797964        4       1.00000000      -0.08251726       0.14634390       0.28202046
Pt       7.79023884      -0.09502227       0.08795807        4       0.00000000       0.05377917      -0.04777802      -0.06750556
Ni       1.24424567       2.23447601       0.10875663        4       1.00000000      -0.16731808       0.01887049       0.26400924
Pt       3.77482451       2.23312935       0.11485327        4       0.00000000      -0.12114181       0.02982096      -0.12318220
Pt       6.43216947       2.24753109       0.15064219        4       0.00000000      -0.00363015       0.04099195       0.24859134
Ni       9.06861430       2.20552900       0.19004614        4       1.00000000       0.08211186      -0.04328488       0.35563079
Ni       2.55882018       4.47216914       0.07041950        4       1.00000000       0.06596538       0.00182334       0.03757247
Ni       5.10472635       4.47441676       0.17827741        4       1.00000000      -0.06599714       0.06308185       0.34341665
Pt       7.80454638       4.47512001       0.10729194        4       0.00000000       0.16937322       0.07057700      -0.10795273
Ni      10.32869761       4.42578276       0.07042972        4       1.00000000       0.12034476      -0.11641984       0.13489931
Ni       3.83255746       6.65873165       0.18296229        4       1.00000000      -0.00400099      -0.21372128       0.35871448
Pt       6.39932596       6.72772949       0.18868809        4       0.00000000      -0.04745768       0.03280721       0.04837162
Ni       9.01904384       6.68703469       0.06299214        4       1.00000000      -0.03129902       0.04620586       0.01535185
Ni      11.58449232       6.63950423       0.05756543        4       1.00000000       0.06825723      -0.11250167       0.00918162
Ni       1.27083630       0.75986320       2.17322532        3       1.00000000      -0.04271484       0.15413229      -0.02960509
Ni       3.82534264       0.74962428       2.20260566        3       1.00000000      -0.05669657       0.04079706       0.01517619
Pt       6.42890702       0.74720668       2.25734452        3       0.00000000      -0.03900327       0.09802435      -0.13786919
Ni       9.08362741       0.73303240       2.19526283        3       1.00000000       0.11548327       0.05411404      -0.01781658
Ni       2.57124630       2.96133041       2.20967970        3       1.00000000      -0.04775047       0.02455552       0.01336730
Ni       5.10180241       3.01090474       2.23989280        3       1.00000000      -0.21278359       0.06175787       0.00957252
Ni       7.78082237       2.99423435       2.22186448        3       1.00000000       0.15203620       0.09304924      -0.08669043
Ni      10.29498254       2.91101601       2.19784843        3       1.00000000       0.04490265      -0.04897781       0.07750758
Ni       3.88671347       5.20040754       2.21499667        3       1.00000000       0.06498515      -0.03122414       0.12798375
Ni       6.41440450       5.20169165       2.23230531        3       1.00000000      -0.03593569       0.14851418      -0.07887753
Ni       8.98522159       5.15593113       2.23854211        3       1.00000000      -0.01825567      -0.12660540       0.15493082
Pt      11.63435593       5.12833290       2.14537785        3       0.00000000       0.04376109      -0.09726270       0.00693715
Ni       5.10964527       7.42271720       2.19493581        3       1.00000000      -0.09040174      -0.10115994      -0.10388634
Ni       7.69662340       7.42408503       2.20186593        3       1.00000000      -0.02817011      -0.10047843      -0.06849938
Pt      10.23781660       7.37921385       2.11087795        3       0.00000000       0.01039744      -0.17004411      -0.02934945
Ni      12.91566642       7.37399187       2.19509538        3       1.00000000      -0.01319853      -0.15769528      -0.02066822
Ni       0.01209420       1.50759397       4.33735088        2       1.00000000       0.12646448      -0.01144221      -0.19708430
Pt       2.60296182       1.53061070       4.32243351        2       0.00000000       0.02022331      -0.02422046      -0.09805630
Ni       5.13155969       1.50725585       4.36327353        2       1.00000000       0.03508868       0.10139926      -0.07972499
Pt       7.81246902       1.51441299       4.32394253        2       0.00000000       0.18430307       0.06644026       0.03513793
Pt       1.27927335       3.70793353       4.41563142        2       0.00000000      -0.02592133      -0.07410153      -0.06305802
Ni       3.86194699       3.73917022       4.34771767        2       1.00000000      -0.01226951       0.10141003      -0.23705450
Pt       6.42210002       3.77436796       4.27182843        2       0.00000000      -0.05717779      -0.05340911      -0.00842490
Ni       9.01062006       3.70709796       4.35491963        2       1.00000000       0.00989877       0.01807339      -0.24630969
Ni       2.59132397       5.89892859       4.36254677        2       1.00000000       0.07431936      -0.15299178      -0.17272402
Ni       5.11131131       5.91015393       4.32014507        2       1.00000000      -0.09378319      -0.01897322      -0.18173169
Ni       7.72312713       5.89675682       4.33856017        2       1.00000000      -0.04687686       0.01456059      -0.26679492
Pt      10.25073432       5.86288624       4.43826518        2       0.00000000      -0.04440429      -0.03153196      -0.09695532
Pt       3.85998277       8.13379379       4.27644305        2       0.00000000       0.02990323      -0.06546274      -0.03371950
Pt       6.40671772       8.14436487       4.24285309        2       0.00000000      -0.00613456      -0.03829528      -0.01941715
Pt       8.98181621       8.15279210       4.32764925        2       0.00000000       0.02172374       0.05068297       0.06840477
Pt      11.60632381       8.11057502       4.38961010        2       0.00000000       0.03820045      -0.08894837       0.00718535
Pt      -0.01467014       0.03455399       6.59184348        1       0.00000000      -0.06228657       0.04374803       0.12497922
Pt       2.59724064       0.03943809       6.62852256        1       0.00000000      -0.00299984       0.08280321       0.25554381
Pt       5.18979911      -0.08291730       6.60942394        1       0.00000000       0.04642833      -0.17023397       0.12148959
Ni       7.74048601      -0.03491019       6.48907758        1       1.00000000       0.07636336       0.11927492      -0.27498832
Ni       1.30977500       2.27893222       6.55538151        1       1.00000000       0.09566078       0.09991479      -0.01698242
Ni       3.83446430       2.24413894       6.47257979        1       1.00000000      -0.05343312       0.03569679      -0.26451879
Pt       6.43481807       2.21212450       6.48002894        1       0.00000000       0.04783886       0.03496575      -0.32616963
Pt       9.08597812       2.30554202       6.57254228        1       0.00000000       0.15284872       0.19679497       0.19830904
Ni       2.51902785       4.43520407       6.54159291        1       1.00000000      -0.16598535      -0.04494907      -0.12326845
Pt       5.06902104       4.41841807       6.54636728        1       0.00000000      -0.15824908      -0.01664872       0.09963481
Ni       7.77267726       4.46175391       6.45961503        1       1.00000000       0.05575037       0.08124032      -0.31681758
Ni      10.32384393       4.46401282       6.56221379        1       1.00000000       0.09658678       0.15638988       0.01861654
Pt       3.74125629       6.66331396       6.56144211        1       0.00000000      -0.17202682       0.04030971       0.17627030
Pt       6.48943236       6.62555695       6.47276872        1       0.00000000      -0.01840524      -0.00721901      -0.24930512
Ni       9.03598596       6.62107379       6.55185402        1       1.00000000      -0.01604410      -0.10872305      -0.09833033
Ni      11.56341126       6.61559315       6.55779713        1       1.00000000      -0.10133332      -0.21976774      -0.10865119
