64
Lattice="10.468719358943305 0.023130115611124023 0.00308812449957784 5.254390947183356 9.066936238269333 -0.04860445417336176 0.0 0.0 21.725577287109118" Properties=species:S:1:pos:R:3:tags:I:1:initial_magmoms:R:1:forces:R:3 unique_id=8757b0a2369e4fdda8d138f5bf05aacf energy=-383.1542443761301 stress="0.005982699745130634 1.7398724372860433e-05 0.00021921808290293956 1.7398724372860433e-05 0.005513341838762733 -0.0002867734612589394 0.00021921808290293956 -0.0002867734612589394 -0.0027487723927923056" pbc="T T T"
Ni      -0.06410648      -0.02247241       0.15656859        2       1.00000000      -0.15732769      -0.05635999      -0.12213365
Ni       2.64859676      -0.03371048       0.15136761        2       1.00000000       0.10479640      -0.03223419      -0.19245245
Ni       5.26242798      -0.02867121       0.13625915        1       1.00000000       0.13037729       0.06537614      -0.21963019
Ni       7.87659757      -0.03541206       0.10055187        1       1.00000000      -0.03332218      -0.05468296       0.52984721
Pt       1.28772412       2.28786556       0.09613694        1       0.00000000       0.17659670       0.05202166      -1.00725905
Pt       3.93426880       2.31745226       0.12576473        1       0.00000000       0.02219603       0.14195874      -0.78119822
Pt       6.58113100       2.19434662       0.11199316        1       0.00000000      -0.09868093      -0.13085038      -0.23675545
Ni       9.15672634       2.24176900       0.13401657        1       1.00000000      -0.01815310      -0.14292139      -0.03357638
Ni       2.62872282       4.56961123       0.01104288        0       1.00000000       0.01443627      -0.04156514       0.21995654
Ni       5.25793692       4.54201696       0.11270308        1       1.00000000       0.19779589      -0.03607799      -0.14161050
Pt       7.93104174       4.56008890       0.10965359        1       0.00000000      -0.03447192       0.08590003      -0.14047178
Ni      10.49467619       4.59494718       0.01021789        0       1.00000000      -0.01499679       0.07341746       0.25091894
Ni       3.91070749       6.82944335       0.12791982        1       1.00000000      -0.02795239       0.13286870      -0.08370826
Pt       6.53783145       6.84734042       0.15342591        2       0.00000000      -0.04704132      -0.02007693      -0.36221478
Ni       9.20160954       6.81521075       0.02242241        0       1.00000000      -0.03920955      -0.05438571       0.38580158
Ni      11.81487585       6.82534194       0.00000000        0       1.00000000       0.10027873       0.08458266       0.41003595
Pt       1.27394523       0.66583699       2.16479085        4       0.00000000      -0.05295885      -0.14188610       0.21029946
Pt       3.99339449       0.76533536       2.22449085        4       0.00000000       0.06063469      -0.07533818       0.23012994
Ni       6.58810391       0.73522522       2.24280148        4       1.00000000       0.09175424      -0.04432383       0.15585060
Ni       9.10407134       0.72134894       2.17913172        4       1.00000000      -0.12260689      -0.01011578       0.03946617
Ni       2.62443441       3.03019792       2.21421554        4       1.00000000      -0.02161176       0.01355353       0.26182970
Ni       5.26659844       3.02173480       2.23758930        4       1.00000000       0.07463125       0.02699290       0.25379265
Pt       7.79754939       3.01437676       2.32978207        5       0.00000000      -0.02477631      -0.02529009       0.25356233
Pt      10.40314310       3.06768276       2.19501745        4       0.00000000      -0.23286967       0.11002617       0.12741521
Pt       3.97991139       5.29408560       2.10565074        3       0.00000000       0.03842513      -0.03278432       0.02639462
Ni       6.59318788       5.29299606       2.22155365        4       1.00000000       0.07268892      -0.03680948       0.26749491
Ni       9.14300590       5.32472344       2.25515245        5       1.00000000      -0.05063306       0.03875161       0.18164878
Pt      11.79327082       5.31019270       2.11289096        3       0.00000000       0.07526163      -0.04991129       0.00502772
Ni       5.20853473       7.54878083       2.15984312        4       1.00000000      -0.10783014       0.00961617       0.17624059
Ni       7.88704987       7.48926699       2.19169759        4       1.00000000       0.10200937      -0.10952524       0.20466293
Pt      10.48946354       7.52896144       2.09954323        3       0.00000000      -0.02583533       0.01650572       0.01560381
Ni      13.11893660       7.61173244       2.12975819        3       1.00000000      -0.04768223       0.05890389      -0.02913666
Pt      -0.09795999       1.52393388       4.37617563        7       0.00000000      -0.10746584       0.02840553      -0.20382227
Pt       2.63707427       1.49324463       4.37052565        7       0.00000000      -0.07872310      -0.14211772      -0.25513199
Ni       5.28940681       1.50837456       4.38127350        7       1.00000000       0.05021813       0.04907373      -0.32970289
Ni       7.81921017       1.52907655       4.39416534        7       1.00000000      -0.04108348       0.03292384      -0.19340743
Pt       1.24278540       3.82788414       4.42451778        7       0.00000000      -0.08550170       0.06732352      -0.14840365
Pt       3.99373114       3.73070386       4.32811667        6       0.00000000       0.01420030       0.08019707      -0.18875348
Ni       6.58868609       3.74718243       4.40174726        7       1.00000000       0.00162015      -0.01103965      -0.23502219
Ni       9.13431058       3.82238001       4.39340080        7       1.00000000      -0.03642053       0.02982867      -0.23941685
Pt       2.58245490       6.03466327       4.42137762        7       0.00000000       0.03862046      -0.01255832      -0.08309247
Pt       5.33210017       5.97522485       4.31912745        6       0.00000000       0.01986807      -0.10574704      -0.18172716
Ni       7.92224237       5.97373809       4.34169503        6       1.00000000       0.07288579      -0.08323201      -0.30489181
Ni      10.42591312       6.01438210       4.44464170        7       1.00000000      -0.04219934       0.00628445      -0.08272397
Pt       3.91401967       8.30685461       4.29785536        6       0.00000000       0.01161639       0.01036885      -0.14146415
Pt       6.58054724       8.24685302       4.31488573        6       0.00000000      -0.02221995       0.11269771      -0.21211001
Pt       9.19828381       8.19792071       4.37728329        7       0.00000000      -0.00690411      -0.01043952      -0.08952610
Pt      11.79490592       8.36535791       4.35527466        7       0.00000000      -0.04067000       0.03642785      -0.04913814
Pt      -0.04865563      -0.03419588       6.72218796       10       0.00000000       0.12771717       0.04337416       0.12113191
Pt       2.65081390      -0.05590038       6.72557729       10       0.00000000       0.00943720       0.12008835       0.30393514
Pt       5.29596079      -0.12543022       6.71691978       10       0.00000000      -0.08216908       0.18413958       0.02246131
Ni       7.83998956      -0.02360589       6.64177590        9       1.00000000       0.03314954      -0.00031365      -0.26681783
Pt       1.30307404       2.32798694       6.58988964        9       0.00000000       0.01501351      -0.15931223       0.92485114
Pt       3.93580344       2.25516690       6.57746664        9       0.00000000       0.14267667      -0.18452509       0.73513460
Pt       6.56588175       2.20920080       6.50764620        8       0.00000000      -0.05226890       0.08058462       0.43012865
Pt       9.15401636       2.27400966       6.66699293       10       0.00000000      -0.08352196       0.21269878       0.03379838
Ni       2.58225972       4.53613719       6.62447810        9       1.00000000       0.01820028      -0.00055387      -0.19009626
Pt       5.22262328       4.52294423       6.65508168       10       0.00000000       0.15671275       0.02506203       0.16186013
Pt       7.95471355       4.56277015       6.49733073        8       0.00000000      -0.10995837      -0.05495871       0.28674407
Ni      10.49773219       4.60117178       6.60323926        9       1.00000000      -0.02339191       0.01389074      -0.29785318
Pt       3.81308996       6.77607638       6.70599968       10       0.00000000       0.09816547      -0.02548190      -0.04966189
Pt       6.59691178       6.76700275       6.57651309        9       0.00000000      -0.07241318      -0.09643312       0.44917285
Ni       9.23815745       6.74232129       6.58873759        9       1.00000000       0.02460096       0.01754922      -0.25138686
Ni      11.74727282       6.73352950       6.61464328        9       1.00000000      -0.05371378      -0.07954225      -0.33089988
