64
Lattice="10.256020810253984 -0.016573835462726682 0.0007352270351621853 5.113657042578129 8.885344203218231 -0.029764738198782472 0.0 0.0 21.634463045220823" Properties=species:S:1:pos:R:3:tags:I:1:initial_magmoms:R:1:forces:R:3 unique_id=1629659b22014d3786cd5084926a08fa stress="0.004433590240575011 -0.00017753201091122968 0.00022214063089613211 -0.00017753201091122968 0.0046036563468667205 -0.00041040271691796074 0.00022214063089613211 -0.00041040271691796074 -0.002572206822750292" energy=-373.89374741881943 pbc="T T T"
Ni       0.04766337       0.03818768       0.18426845        2       1.00000000       0.19492651       0.09762419      -0.51634060
Ni       2.58192211       0.02679124       0.23006042        2       1.00000000       0.00891619      -0.00476753      -0.15174801
Ni       5.07588933      -0.02133891       0.10032401        1       1.00000000      -0.03881661       0.06933587       0.24055574
Pt       7.70072017      -0.05653656       0.01363505        0       0.00000000      -0.07024340       0.11897599      -0.49702504
Ni       1.28317723       2.22855636       0.22527344        2       1.00000000       0.02544668       0.07255431      -0.01998272
Ni       3.80000972       2.21835412       0.21517072        2       1.00000000      -0.01560712       0.04881142       0.01738813
Pt       6.37835228       2.29441231       0.18119631        2       0.00000000      -0.03091936       0.08257064      -0.86479937
Ni       9.01535748       2.26198253       0.09528659        1       1.00000000      -0.00397044       0.07711948       0.20724732
Ni       2.56613214       4.41885569       0.08947232        1       1.00000000       0.04237620      -0.16518802       0.27857933
Ni       5.06539250       4.43548642       0.17643792        2       1.00000000      -0.19632038       0.02388689      -0.18802470
Ni       7.75010775       4.42679387       0.08822227        1       1.00000000       0.17989048       0.00992932       0.12804125
Ni      10.23497554       4.40609261       0.07838266        1       1.00000000      -0.04110979      -0.02744507       0.23362376
Ni       3.82061682       6.60420894       0.05563437        1       1.00000000      -0.01624465      -0.14175135       0.07835118
Pt       6.44656056       6.65645506       0.00000000        0       0.00000000       0.16925682       0.05218900      -0.44124184
Ni       8.97795377       6.63477456       0.14244646        1       1.00000000      -0.05692553      -0.13944619      -0.10848478
Ni      11.50612014       6.60666832       0.04350162        0       1.00000000      -0.05723672      -0.06771513       0.11493663
Ni       1.33709994       0.77292588       2.19473246        3       1.00000000       0.07207588       0.05516189       0.11427065
Ni       3.79866536       0.74852295       2.20783443        3       1.00000000      -0.03001058      -0.00562462       0.08877019
Pt       6.31782913       0.76194842       2.29908767        4       0.00000000      -0.07273091       0.04997048       0.15625155
Pt       9.04770833       0.82585687       2.20868831        3       0.00000000      -0.03352874      -0.01801313       0.03654803
Ni       2.58407360       2.93799030       2.19472312        3       1.00000000      -0.00313064       0.05233352       0.10047076
Ni       5.03507801       2.96912641       2.25249936        4       1.00000000      -0.16695609       0.00763768       0.26716896
Ni       7.74555745       2.98990926       2.23074513        3       1.00000000       0.13771083       0.04434410       0.14101971
Ni      10.25377560       2.95603678       2.21148973        3       1.00000000       0.00900178       0.02846022       0.10530262
Ni       3.83767299       5.10555208       2.22614065        3       1.00000000      -0.03018924      -0.09796041       0.13762364
Pt       6.44519924       5.12803922       2.20928084        3       0.00000000       0.06577718      -0.09489755       0.08140180
Ni       8.95951455       5.12357808       2.22220863        3       1.00000000       0.02912801      -0.10412262       0.08691423
Pt      11.50997565       5.07503032       2.15940712        3       0.00000000      -0.04522798      -0.09946408      -0.02962620
Pt       5.14566869       7.38252851       2.18658328        3       0.00000000      -0.01371922      -0.05814992      -0.04260012
Ni       7.69137135       7.41248751       2.21079170        3       1.00000000      -0.03497867      -0.00035003       0.14433271
Pt      10.13884830       7.36794946       2.23435466        3       0.00000000      -0.09427821      -0.07054910       0.09920444
Pt      12.78885340       7.32290344       2.21675654        3       0.00000000      -0.03506503      -0.03983797       0.05855944
Ni       0.00824832       1.49455877       4.40235247        6       1.00000000       0.16273156      -0.01837864      -0.11249679
Pt       2.61049373       1.47829305       4.28681395        5       0.00000000       0.09041447       0.03601455      -0.02390036
Ni       5.11447430       1.43151825       4.40644753        6       1.00000000      -0.04177761      -0.00884756      -0.02875224
Pt       7.74625467       1.47384000       4.40502616        6       0.00000000       0.11014093       0.07910649       0.12442589
Pt       1.24560020       3.74722789       4.40136018        6       0.00000000      -0.00961971      -0.01456117       0.05502212
Ni       3.83743574       3.72935925       4.36088704        6       1.00000000      -0.00408416       0.05865463      -0.16472605
Pt       6.39877191       3.71905943       4.36993695        6       0.00000000      -0.04549794       0.06841222      -0.06692885
Ni       8.97749784       3.72047576       4.40541526        6       1.00000000       0.01274626       0.14200437      -0.06724314
Ni       2.54366800       5.88830461       4.43753081        6       1.00000000      -0.08757387      -0.08925557      -0.06294244
Ni       5.08528690       5.88579018       4.38880010        6       1.00000000      -0.02965119      -0.09444930      -0.22271891
Ni       7.73974503       5.88444068       4.38530817        6       1.00000000       0.18723668      -0.05119063      -0.20543195
Ni      10.23973389       5.91359246       4.39599082        6       1.00000000      -0.02817203       0.00940467      -0.14829118
Pt       3.78732616       8.04393368       4.42229159        6       0.00000000       0.04925440      -0.04805518      -0.01970607
Pt       6.45598050       8.06771066       4.35475064        6       0.00000000       0.13735199      -0.00191454      -0.05631903
Ni       9.01184317       8.10163645       4.38037261        6       1.00000000       0.00912263       0.02294573      -0.05822064
Ni      11.46511383       8.08295852       4.43643912        6       1.00000000      -0.11889108      -0.06150833      -0.03582269
Pt      -0.07381752      -0.03737902       6.63446305        9       0.00000000      -0.08536221       0.09949498       0.29246139
Pt       2.60454161      -0.06353608       6.63354230        9       0.00000000      -0.00385073      -0.04175958       0.17876573
Ni       5.17584234      -0.07276058       6.53481795        8       1.00000000       0.04897431      -0.02348895      -0.19341139
Ni       7.64223320      -0.08090781       6.46783353        8       1.00000000      -0.11721135      -0.03931654       0.49821544
Pt       1.21273705       2.28105439       6.63260245        9       0.00000000      -0.07044497      -0.13013910       0.09780344
Pt       3.85140889       2.23002153       6.58454679        9       0.00000000       0.15054989       0.20914970       0.10915262
Pt       6.45619415       2.16700188       6.54142884        8       0.00000000      -0.18043787       0.03287198       0.93975680
Ni       8.96691461       2.23535178       6.55890293        9       1.00000000       0.05329156       0.10111239      -0.08817045
Ni       2.52980548       4.50050506       6.54457097        8       1.00000000      -0.00579461       0.07770356      -0.20052601
Pt       5.09429916       4.53263947       6.57975712        9       0.00000000      -0.06045296      -0.04818738       0.13710351
Ni       7.72598770       4.41565104       6.54226385        8       1.00000000       0.02868125      -0.03769228      -0.20411413
Ni      10.23761502       4.43299413       6.54766948        8       1.00000000       0.00282820      -0.01035163      -0.19156729
Ni       3.77471036       6.63190324       6.53654935        8       1.00000000      -0.09749155       0.01010201      -0.09900183
Ni       6.40342899       6.62036062       6.43287243        7       1.00000000       0.10738087      -0.04894328       0.32199852
Pt       9.02518379       6.56557505       6.52311978        8       0.00000000      -0.03209987       0.07947524      -0.15307861
Ni      11.55890262       6.62874428       6.51069296        8       1.00000000       0.02041147      -0.01403515      -0.40802412
