64
Lattice="10.403764437994873 -0.028445280644836826 0.004790737106044869 5.177247883341231 8.988241922603583 -0.020213363731869077 0.003911620467209217 -0.021315717216904187 8.928949869367147" Properties=species:S:1:pos:R:3:tags:I:1:initial_magmoms:R:1:forces:R:3 unique_id=e13a05d4977844a6b42a1e7ccd66d288 stress="-0.0008005618143617013 5.741449466303882e-06 -9.993317632499886e-06 5.741449466303882e-06 -0.0007982550151302073 2.660563098054789e-06 -9.993317632499886e-06 2.660563098054789e-06 -0.000637744576318322" energy=-403.9502730538601 pbc="T T T"
Ni       0.01311521       0.01844993       0.16626190        4       1.00000000       0.04130908       0.02340475       0.23280204
Pt       2.52769506       0.01205282       0.21285276        4       0.00000000      -0.07166006       0.03267593       0.25165585
Pt       5.16593296      -0.02319256       0.12617593        4       0.00000000      -0.01350421       0.05109430       0.21340188
Pt       7.88559762      -0.06081897       0.15792844        4       0.00000000       0.05499147      -0.03150161       0.31003558
Ni       1.25040204       2.28066223       0.09919575        4       1.00000000      -0.14302592       0.10744591       0.27181284
Pt       3.82731705       2.33952520       0.11636918        4       0.00000000      -0.04735681       0.06886641      -0.05583775
Pt       6.51186943       2.30192425       0.16129720        4       0.00000000       0.03472548       0.09967609       0.21803983
Ni       9.15176985       2.24367533       0.16436019        4       1.00000000       0.10144478       0.04967342       0.27087379
Ni       2.59071084       4.48290996       0.06992656        4       1.00000000       0.03287136      -0.02361064       0.12666174
Ni       5.15392654       4.51054231       0.16790423        4       1.00000000      -0.07281082       0.06203252       0.33408844
Pt       7.88085886       4.50411433       0.10906006        4       0.00000000       0.15491829       0.01054788      -0.08031621
Ni      10.40485813       4.42527624       0.07091720        4       1.00000000       0.10983866      -0.20019974       0.19220895
Ni       3.89121740       6.69976047       0.16915539        4       1.00000000      -0.01646518      -0.18555971       0.34793240
Pt       6.42358917       6.70715767       0.18454168        4       0.00000000      -0.05917293      -0.04518423       0.03066085
Ni       9.07707655       6.69879274       0.06558680        4       1.00000000      -0.04430993       0.01120353       0.10091597
Pt      11.70750380       6.61654291       0.01735253        4       0.00000000       0.00818588      -0.14897881      -0.20760655
Ni       1.30872520       0.77602434       2.25109928        3       1.00000000       0.09911163       0.20623150       0.07280360
Ni       3.86774742       0.78404133       2.27112112        3       1.00000000       0.00944775       0.12573432      -0.01875262
Pt       6.46037256       0.78876064       2.31665381        3       0.00000000      -0.06055232       0.09818100      -0.10967857
Pt       9.22391807       0.76992253       2.24646469        3       0.00000000       0.00780396       0.05738790      -0.00996265
Ni       2.60110318       2.98139659       2.24131118        3       1.00000000       0.02544318       0.01964388       0.04492231
Ni       5.14956589       3.04057952       2.27029517        3       1.00000000      -0.18804763       0.14396625       0.05738780
Ni       7.83497162       3.03829310       2.25611295        3       1.00000000       0.13786054       0.15568976      -0.00207209
Ni      10.40255654       2.97172697       2.22425743        3       1.00000000       0.07712579       0.10848907       0.06869647
Ni       3.92486099       5.22842021       2.24155782        3       1.00000000       0.08475898      -0.05414992       0.12554497
Ni       6.47307173       5.22715284       2.26045954        3       1.00000000      -0.04934271       0.07537499      -0.02740940
Ni       9.05835802       5.18525644       2.26064301        3       1.00000000      -0.05269115      -0.16559664       0.17759582
Pt      11.74239005       5.12683979       2.22747539        3       0.00000000       0.09820094      -0.04747059      -0.02720711
Ni       5.17294556       7.43705462       2.22188467        3       1.00000000      -0.08130540      -0.18626925      -0.05563338
Ni       7.75473563       7.43820564       2.23897714        3       1.00000000      -0.08111972      -0.22765935      -0.08804775
Pt      10.31362075       7.39122803       2.20829963        3       0.00000000       0.02240251      -0.15709362      -0.25913475
Ni      13.02933606       7.40766804       2.22559257        3       1.00000000       0.02798433      -0.19499168      -0.05953479
Ni       0.01959352       1.51629563       4.42236309        2       1.00000000       0.13340423       0.01598540      -0.00670490
Pt       2.62880777       1.54567995       4.36986646        2       0.00000000       0.03721900      -0.04108830      -0.02115133
Ni       5.17183620       1.52170767       4.42372092        2       1.00000000       0.00761361       0.14651948      -0.03488296
Pt       7.86177047       1.54829582       4.39511189        2       0.00000000       0.10426494       0.05915714       0.15598515
Pt       1.29380957       3.72746816       4.47557968        2       0.00000000      -0.03474623      -0.06132622       0.03433136
Ni       3.89876827       3.75973456       4.40514701        2       1.00000000      -0.00922791       0.11360800      -0.21295336
Pt       6.47220384       3.80794429       4.32143736        2       0.00000000      -0.06467262      -0.05591618       0.02473135
Ni       9.08766521       3.73500906       4.41116437        2       1.00000000      -0.03135737       0.00978826      -0.21310759
Ni       2.61629937       5.93002294       4.41301532        2       1.00000000       0.07836108      -0.20403240      -0.15909037
Ni       5.16237485       5.93984161       4.36958754        2       1.00000000      -0.09176466      -0.06339510      -0.18558636
Ni       7.79200028       5.93313407       4.39161811        2       1.00000000      -0.06824462      -0.01338447      -0.22783117
Pt      10.32819728       5.88736043       4.48959734        2       0.00000000      -0.11010663      -0.03395939      -0.09715273
Pt       3.90291521       8.14932344       4.32819434        2       0.00000000      -0.02765548      -0.12731257       0.03437127
Pt       6.46515908       8.18463040       4.28833352        2       0.00000000      -0.06008286      -0.05692664      -0.00140530
Pt       9.04611896       8.19675112       4.35187238        2       0.00000000       0.01807633       0.04056015       0.01361975
Pt      11.70437289       8.14922023       4.38132436        2       0.00000000       0.02094413      -0.09341628       0.00244107
Pt       0.02530155       0.03281057       6.66064639        1       0.00000000      -0.01750685       0.02254187       0.02755265
Pt       2.60890317       0.03262224       6.62062841        1       0.00000000       0.00128887       0.07856807      -0.10298369
Pt       5.18133563      -0.06598615       6.57053150        1       0.00000000       0.00287115      -0.08749436      -0.33075393
Pt       7.80335681      -0.05069613       6.60585423        1       0.00000000       0.01954296       0.07087201      -0.21028699
Ni       1.32313856       2.29152131       6.62664502        1       1.00000000       0.10980552       0.12785782      -0.03350077
Ni       3.85928063       2.25802995       6.55175325        1       1.00000000      -0.09549568       0.06438656      -0.21887336
Pt       6.47869917       2.25719447       6.56565140        1       0.00000000       0.03303274       0.10238413      -0.18919294
Pt       9.18193406       2.34126587       6.64790607        1       0.00000000       0.14499755       0.20526955       0.17671936
Ni       2.54532355       4.45223214       6.61432085        1       1.00000000      -0.13843970      -0.05586973      -0.10010035
Pt       5.11847799       4.43632155       6.61952728        1       0.00000000      -0.12007349      -0.05789374       0.09598656
Ni       7.83787393       4.49168419       6.54483344        1       1.00000000       0.06841253       0.08823668      -0.26104615
Ni      10.41489458       4.49219426       6.63380925        1       1.00000000       0.10291417       0.18528632       0.03115942
Pt       3.81366831       6.65728929       6.62202679        1       0.00000000      -0.11430672      -0.00195624       0.14179456
Pt       6.54924500       6.66040486       6.54557476        1       0.00000000      -0.00953959      -0.01916852      -0.17107001
Ni       9.11105425       6.66121957       6.61693870        1       1.00000000      -0.00998949      -0.07991803      -0.09029192
Ni      11.66106639       6.64603703       6.53812815        1       1.00000000      -0.02659870      -0.11701686      -0.31757379
