64
Lattice="10.243994739546169 0.0188802541268177 -0.0415469665178984 5.138348149476812 8.872654962489635 -0.017152768059590803 -0.03392295610978282 0.0034136430269486873 8.709997087441277" Properties=species:S:1:pos:R:3:tags:I:1:initial_magmoms:R:1:forces:R:3 unique_id=c9d53cd1481a4f8c98fe7012a1c6029e stress="0.00012603577508744218 -3.792168673496115e-06 9.34887722834554e-06 -3.792168673496115e-06 0.00012133885383192045 -4.823240989554e-06 9.34887722834554e-06 -4.823240989554e-06 0.00012770036680778002" energy=-393.82281096845134 pbc="T T T"
Pt      -0.01312588       0.04370760       0.10028842        4       0.00000000      -0.08527634      -0.02610074       0.03927475
Pt       2.57901675       0.02641269       0.17726810        4       0.00000000       0.01267254       0.05647855       0.35792203
Pt       5.10035422       0.06433758       0.03035915        4       0.00000000      -0.05222800       0.15942538      -0.00538594
Pt       7.68211910       0.10549016       0.00169901        4       0.00000000       0.02401303       0.06873694      -0.09055557
Pt       1.22065912       2.26665549       0.09206738        4       0.00000000      -0.16807091       0.13586832      -0.07357602
Ni       3.84302160       2.21538075       0.06313340        4       1.00000000      -0.12499030       0.02391133       0.18260883
Ni       6.43996081       2.25295507       0.04120924        4       1.00000000       0.11294055       0.05815076       0.14143654
Ni       8.93235971       2.30319546       0.06350126        4       1.00000000      -0.08070983       0.11290555       0.19365895
Pt       2.55375699       4.40155061       0.08310935        4       0.00000000       0.01066705      -0.04081649       0.02285932
Pt       5.18769197       4.35397006      -0.02871584        4       0.00000000       0.10844343      -0.10101780      -0.20140622
Ni       7.74118464       4.39488922       0.03617097        4       1.00000000       0.04909971      -0.09653959       0.06607770
Ni      10.19100262       4.43557822       0.03351838        4       1.00000000      -0.09001198      -0.00412309       0.04337055
Pt       3.85186822       6.64430754       0.08027736        4       0.00000000       0.01642587       0.00176389      -0.01802534
Pt       6.49620740       6.61732452       0.01819723        4       0.00000000       0.10314896      -0.12410582      -0.13911682
Ni       8.97430153       6.63283988       0.13893137        4       1.00000000      -0.04148396       0.07510742       0.36377436
Pt      11.44899599       6.63389628       0.05795010        4       0.00000000      -0.08622113      -0.00761988       0.06627385
Ni       1.26628242       0.75578043       2.28615379        3       1.00000000      -0.05107474       0.03591432       0.19711892
Ni       3.79493352       0.73688665       2.27469011        3       1.00000000      -0.06093390      -0.03790114       0.24962505
Pt       6.43940386       0.75827683       2.24243840        3       0.00000000       0.11586888       0.02497517      -0.04198999
Ni       8.99791686       0.80191295       2.20770206        3       1.00000000       0.11743355       0.16577173       0.10255521
Ni       2.51229194       2.93635186       2.23841945        3       1.00000000      -0.19213665      -0.08790249       0.10188348
Pt       5.07002633       2.93473882       2.21276904        3       0.00000000      -0.04243041       0.04448949      -0.06344656
Ni       7.72676336       2.94954934       2.17621579        3       1.00000000       0.03753973      -0.02830363       0.19574281
Ni      10.24112312       2.94442874       2.20627502        3       1.00000000       0.03238406      -0.09297294       0.25959480
Ni       3.80090058       5.20441252       2.23927806        3       1.00000000      -0.04723740       0.06897035       0.13810058
Pt       6.39288736       5.20853175       2.29300411        3       0.00000000      -0.08749410       0.01388706      -0.01537238
Pt       9.00048711       5.14102967       2.13648117        3       0.00000000      -0.02828881      -0.12601397       0.11220962
Ni      11.55519205       5.16060835       2.19460823        3       1.00000000       0.11077745      -0.14605398       0.12308267
Ni       5.13807463       7.42904778       2.22495328        3       1.00000000       0.11813242       0.04621572      -0.00861304
Ni       7.69941874       7.43754586       2.25244502        3       1.00000000      -0.01814300       0.01676160       0.19425950
Ni      10.21880003       7.41392691       2.18272918        3       1.00000000      -0.08124429       0.06319323       0.11554597
Ni      12.82149585       7.37711267       2.17950579        3       1.00000000      -0.01737978      -0.06479095       0.01976777
Ni      -0.00000939       1.51474284       4.33344143        2       1.00000000       0.01411525       0.05040688      -0.04292538
Ni       2.51892515       1.49234069       4.27454195        2       1.00000000      -0.09037302      -0.02590005      -0.06864225
Ni       5.09323345       1.49993790       4.36575363        2       1.00000000      -0.03452233       0.02794910       0.09274621
Ni       7.69426233       1.55609935       4.34098722        2       1.00000000       0.09502243       0.10603698       0.03767447
Ni       1.25102378       3.65035083       4.33260323        2       1.00000000      -0.08377798      -0.13966494      -0.12270222
Pt       3.79677923       3.70532318       4.35814386        2       0.00000000      -0.11422153       0.01808086      -0.00526052
Ni       6.43461419       3.69245156       4.36740379        2       1.00000000       0.09874869      -0.10819506       0.02769600
Ni       8.94143830       3.65924610       4.33221444        2       1.00000000      -0.00285111      -0.10361187       0.01649253
Ni       2.57450302       5.90328560       4.32837911        2       1.00000000       0.05582253       0.02265856      -0.08789573
Ni       5.12974971       5.92207590       4.34569301        2       1.00000000      -0.05997783       0.00604437      -0.05540381
Ni       7.64525390       5.92385531       4.33711276        2       1.00000000       0.08389950      -0.01539326       0.10834592
Pt      10.26034908       5.85334431       4.28725760        2       0.00000000      -0.01909608      -0.07872900       0.16908024
Pt       3.90221460       8.14160885       4.30314551        2       0.00000000       0.03428448       0.07267000      -0.07610128
Ni       6.41572854       8.13493873       4.26640347        2       1.00000000       0.10795236       0.03500468      -0.10776665
Ni       8.93186753       8.16166912       4.25142734        2       1.00000000      -0.06629645      -0.02655598       0.00494485
Pt      11.50688263       8.15994923       4.33579744        2       0.00000000      -0.01548727      -0.09479623       0.04369377
Ni      -0.03951045       0.02145425       6.37225016        1       1.00000000       0.00944214       0.10531435      -0.18147206
Pt       2.50985632       0.06473186       6.33683864        1       0.00000000      -0.03161568       0.08905891      -0.18692686
Ni       5.11269167       0.05373760       6.34730776        1       1.00000000      -0.05127693       0.07979009      -0.19252922
Ni       7.67813906       0.04659988       6.33976433        1       1.00000000       0.15102308       0.12235863      -0.24014977
Ni       1.23765577       2.25693449       6.34085228        1       1.00000000      -0.02696125       0.07733366      -0.25491542
Ni       3.84498356       2.24320472       6.42525862        1       1.00000000       0.06565176       0.06986655      -0.05651657
Ni       6.39356213       2.24178978       6.39648261        1       1.00000000       0.05764135       0.01818154      -0.13640436
Ni       8.93787696       2.24568941       6.38400508        1       1.00000000       0.02552797      -0.01417424      -0.13015385
Ni       2.52703423       4.44493827       6.36389010        1       1.00000000      -0.10786051       0.03169692      -0.14095511
Ni       5.13228123       4.45044067       6.32226337        1       1.00000000       0.12235292       0.05601186      -0.31830634
Ni       7.65161066       4.40209644       6.39246124        1       1.00000000       0.01062110      -0.13932077      -0.16363550
Ni      10.23921456       4.39620535       6.40243317        1       1.00000000       0.00948411      -0.20503972      -0.12083854
Ni       3.83697195       6.63764375       6.34735139        1       1.00000000       0.04238855      -0.07550357      -0.19460287
Ni       6.35034864       6.63843897       6.30638112        1       1.00000000      -0.09441344       0.03710630      -0.32035639
Pt       8.94310248       6.61941308       6.43909984        1       0.00000000       0.03988111      -0.08578648       0.13545601
Ni      11.55746363       6.65222217       6.34894652        1       1.00000000       0.16068042      -0.10116334      -0.06092467
