64
Lattice="10.22043429501036 -0.019706824139967064 0.038486577755672866 5.093150537172056 8.776783057974718 0.012139856508413925 0.0 0.0 21.49711041476489" Properties=species:S:1:pos:R:3:tags:I:1:initial_magmoms:R:1:forces:R:3 unique_id=ced9409b54f2414f915198c34ab80c5f stress="0.005001938681645692 3.753345811513069e-05 0.00022238431439274876 3.753345811513069e-05 0.004407893780303698 9.320856485514196e-05 0.00022238431439274876 9.320856485514196e-05 -0.001684777853224493" energy=-371.00801026449625 pbc="T T T"
Ni       0.01159118       0.01472547       0.10074984        1       1.00000000       0.10535318      -0.03255555      -0.22907866
Ni       2.52021986       0.00097213       0.14574545        1       1.00000000      -0.04022902       0.04062929      -0.19052708
Pt       5.11846844      -0.03446349       0.08766903        1       0.00000000       0.00389726       0.23022279      -1.10321855
Ni       7.70177336      -0.04873195       0.13978314        1       1.00000000      -0.06664977      -0.04178430      -0.39035164
Ni       1.23289455       2.20477350       0.04111956        0       1.00000000      -0.07851996       0.05935648       0.35636375
Pt       3.76047579       2.25103924       0.12539656        1       0.00000000       0.04872623      -0.00617942      -0.61183870
Pt       6.46152551       2.24879510       0.05817363        1       0.00000000       0.03467748      -0.04660308      -0.04397069
Ni       8.98635523       2.20975616       0.11207192        1       1.00000000       0.05054440       0.16975460      -0.09330228
Ni       2.53679614       4.42257313       0.00000000        0       1.00000000       0.02759651       0.00882656       0.21874191
Ni       5.08584367       4.41580151       0.04603463        0       1.00000000      -0.08798796       0.06355202       0.30645252
Ni       7.70689033       4.39339584       0.06217441        1       1.00000000       0.15172435       0.05498903       0.31255887
Ni      10.20856655       4.35899302       0.04466985        0       1.00000000      -0.04768847      -0.03480053       0.36267512
Ni       3.79491893       6.57313404       0.03794098        0       1.00000000       0.02549666      -0.02295267       0.33830246
Pt       6.36575591       6.56699125       0.04804926        0       0.00000000      -0.02598867       0.07486941       0.04522858
Ni       8.92774388       6.51976790       0.11688466        1       1.00000000      -0.08876753      -0.12484290      -0.28943230
Ni      11.52342298       6.52930317       0.03532387        0       1.00000000       0.02987343       0.02112507       0.14535633
Ni       1.29017084       0.72973694       2.10778290        2       1.00000000      -0.00624068       0.01125370       0.09050152
Ni       3.81523575       0.74489346       2.15774076        3       1.00000000       0.04274330      -0.01510601       0.17310257
Ni       6.39932133       0.76630531       2.18381357        3       1.00000000      -0.06284802       0.18417687       0.26946498
Pt       8.96477097       0.75108506       2.14377481        2       0.00000000      -0.00059974       0.09069396       0.09478029
Ni       2.54231477       2.92987319       2.15972117        3       1.00000000       0.04870017       0.01176280       0.04331153
Ni       5.11014617       2.94822089       2.18358601        3       1.00000000      -0.04901668       0.07063783       0.14556968
Ni       7.68732901       2.95766367       2.17372831        3       1.00000000       0.04037676       0.10527274       0.16276912
Ni      10.21989296       2.90964946       2.16438555        3       1.00000000       0.02600099       0.01086069       0.18456037
Ni       3.86880285       5.11134789       2.13582276        2       1.00000000       0.13937503      -0.04473743       0.04926869
Ni       6.38513080       5.10649808       2.15434743        3       1.00000000      -0.00916786      -0.00029168       0.05715415
Ni       8.89554045       5.05683249       2.15788092        3       1.00000000      -0.10659564      -0.20307484       0.14123058
Pt      11.53467109       5.03192465       2.16938397        3       0.00000000       0.12040651      -0.11078273       0.08901882
Ni       5.12017276       7.27624813       2.13953425        2       1.00000000       0.06379178      -0.14344427       0.08529123
Ni       7.60586378       7.29083766       2.14930943        2       1.00000000      -0.15766304      -0.08326392       0.18988637
Pt      10.19001195       7.22676073       2.15096982        3       0.00000000      -0.05609587      -0.14198612      -0.17541876
Ni      12.81142353       7.26318106       2.11888068        2       1.00000000       0.13743688      -0.12879851      -0.01204974
Ni       0.00314934       1.50972328       4.24958787        4       1.00000000      -0.12156054       0.08570376      -0.14149710
Pt       2.49926690       1.52691952       4.18388597        4       0.00000000      -0.10323833       0.01780210       0.08687765
Ni       5.13888826       1.48615853       4.23271779        4       1.00000000      -0.03231488      -0.01404360      -0.37980035
Ni       7.68714097       1.48104955       4.28115244        5       1.00000000       0.03680968      -0.00873124      -0.20542435
Ni       1.26085348       3.68727711       4.30340225        5       1.00000000      -0.06002073       0.01674273       0.01884628
Ni       3.83147838       3.72590996       4.23714511        4       1.00000000      -0.03588672       0.10824483      -0.27974713
Pt       6.39673143       3.67058345       4.26659239        5       0.00000000      -0.00614830      -0.04169870      -0.03949086
Ni       8.97736257       3.66914061       4.26587764        5       1.00000000       0.02323812       0.04984763      -0.23905054
Ni       2.57604983       5.78099770       4.30339337        5       1.00000000       0.04688692      -0.10999624      -0.09116104
Ni       5.11897606       5.82138443       4.28212209        5       1.00000000       0.04140887      -0.08607428      -0.24265925
Ni       7.64530030       5.81056146       4.26416850        5       1.00000000      -0.01601038      -0.04900828      -0.29336077
Ni      10.23305223       5.75322939       4.31854594        5       1.00000000      -0.01406608      -0.07353529      -0.07656959
Pt       3.90164018       7.97497642       4.22212370        4       0.00000000       0.10999903      -0.09812792       0.05265102
Ni       6.37701247       7.98976012       4.23730127        4       1.00000000      -0.05435428      -0.08108500      -0.30497760
Pt       8.86394919       7.99429871       4.22785771        4       0.00000000      -0.08427953       0.01260036      -0.07636040
Pt      11.53764642       7.99416023       4.23655494        4       0.00000000      -0.00859075      -0.09038956      -0.02761106
Pt       0.03047397      -0.03862008       6.44120999        7       0.00000000       0.02344971       0.03833079       0.29648938
Pt       2.54835818      -0.01594133       6.47234287        8       0.00000000       0.03770138      -0.02136737       0.47079930
Pt       5.13661064       0.00381008       6.36665506        7       0.00000000      -0.06235972       0.16598737       1.16787767
Pt       7.69230521      -0.05726671       6.49711041        8       0.00000000       0.03364507       0.13897107       0.41077103
Ni       1.28576568       2.25937184       6.40192111        7       1.00000000       0.03601038       0.09853879      -0.15545859
Pt       3.85227880       2.32438529       6.34794855        6       0.00000000       0.07659597       0.10606148       0.54957026
Ni       6.41211872       2.22939276       6.34726553        6       1.00000000      -0.01922046      -0.01794343       0.21766128
Pt       8.97128655       2.28166465       6.41996627        7       0.00000000      -0.04798095      -0.06511122       0.01623514
Ni       2.54208083       4.43483215       6.38437780        7       1.00000000       0.01744445      -0.00018730      -0.32823782
Ni       5.13133362       4.43818201       6.40815656        7       1.00000000      -0.02884995       0.06998919      -0.28495801
Ni       7.62830055       4.37120909       6.42279411        7       1.00000000      -0.13968821      -0.01305524      -0.19804917
Ni      10.29765431       4.36706359       6.41784170        7       1.00000000       0.13779558      -0.00894128      -0.26072725
Ni       3.83710343       6.49211817       6.40609945        7       1.00000000       0.01740117      -0.10296108      -0.31368829
Ni       6.36199703       6.50865995       6.32639082        6       1.00000000       0.00061529       0.00827864      -0.03478091
Pt       8.95466794       6.42600510       6.45048454        8       0.00000000      -0.02114504      -0.04055982       0.15986389
Ni      11.53794317       6.48734780       6.43567754        7       1.00000000       0.00405121      -0.02106177      -0.19643389
