64
Lattice="10.460278021162454 0.030175517934682546 -0.044631324681703305 5.256271775685015 9.104607516986606 -0.04908810618328319 0.0 0.0 21.763170711796295" Properties=species:S:1:pos:R:3:tags:I:1:initial_magmoms:R:1:forces:R:3 unique_id=18217c5743b545ebb0963d0c65050432 energy=-384.54905042666553 stress="0.005583035864322919 0.00019869131783537035 -8.644441471778067e-05 0.00019869131783537035 0.005801052614202931 -0.00019950192923660502 -8.644441471778067e-05 -0.00019950192923660502 -0.0028345999899324903" pbc="T T T"
Ni       0.02104143       0.00123848       0.10838239        1       1.00000000      -0.03399783       0.00308384       0.20942672
Ni       2.61082376       0.01193422       0.22171443        2       1.00000000       0.07279279      -0.07105051      -0.20423786
Pt       5.13585224       0.05026140       0.08599197        1       0.00000000       0.00257022      -0.14322212       0.11501890
Pt       7.87456365       0.01124976       0.00000000        0       0.00000000      -0.10352195      -0.02481529       0.05549579
Pt       1.39330606       2.22219100       0.02107851        0       0.00000000      -0.15127921       0.04398321       0.09578769
Ni       3.90438544       2.27618737       0.11671339        1       1.00000000       0.01144463      -0.00928782       0.24426487
Pt       6.53006463       2.27795242       0.14268267        1       0.00000000       0.23098800       0.02446971      -0.76642434
Pt       9.20712608       2.26996518       0.04079178        0       0.00000000       0.11326069       0.07015005       0.10918440
Ni       2.62547745       4.52728933       0.17767756        2       1.00000000      -0.04251048       0.02572829      -0.08160046
Pt       5.17903206       4.53085194       0.12910864        1       0.00000000       0.19054418       0.20282441      -0.62195296
Pt       7.86117965       4.56375711       0.11444215        1       0.00000000      -0.09214761       0.03297737      -0.04461653
Pt      10.52213462       4.54426543       0.09279018        1       0.00000000       0.05858081      -0.13042995       0.11341537
Pt       3.94748711       6.82813507       0.00142480        0       0.00000000       0.06914804      -0.02877169      -0.15681023
Pt       6.56739809       6.90488575       0.16359830        2       0.00000000       0.09545934      -0.18953007      -0.56237703
Pt       9.16237303       6.86028321       0.20513299        2       0.00000000       0.01851494       0.01311052      -0.45622640
Pt      11.78960977       6.82072826       0.02869664        0       0.00000000      -0.09283500       0.05200948       0.01171018
Pt       1.32712132       0.74617741       2.28360058        3       0.00000000      -0.05902773      -0.01572708       0.07835232
Ni       3.90202697       0.73740370       2.28057047        3       1.00000000      -0.01547978      -0.00490917       0.18533247
Pt       6.50523971       0.74391713       2.36272540        4       0.00000000      -0.02076933      -0.02261709       0.16403849
Pt       9.15703966       0.86225577       2.39190603        4       0.00000000      -0.02758087       0.03212479       0.11908187
Pt       2.55087609       3.06320590       2.31433683        3       0.00000000      -0.11362548      -0.01186093       0.08716781
Pt       5.21485203       3.02294250       2.31570031        3       0.00000000      -0.07985463      -0.15944624       0.19244388
Ni       7.89331824       3.09185056       2.31282273        3       1.00000000       0.09465187       0.07156330       0.22747254
Ni      10.43178300       3.10400930       2.32996472        3       1.00000000      -0.09690391       0.06953286       0.21844905
Pt       3.91396666       5.30347217       2.34356472        3       0.00000000      -0.12680637       0.09220532       0.20388244
Ni       6.59188694       5.30801183       2.27837911        3       1.00000000       0.08612202      -0.05197234       0.24967327
Ni       9.17083550       5.28819209       2.28360172        3       1.00000000       0.01321925      -0.11180099       0.19741619
Ni      11.72091696       5.31297924       2.26108719        3       1.00000000      -0.13378967       0.04330640       0.19726927
Pt       5.24835246       7.56188699       2.33920957        3       0.00000000      -0.12899420       0.09701670       0.16188113
Ni       7.89625907       7.58879298       2.27743350        3       1.00000000       0.02802830       0.01212634       0.27657491
Ni      10.44602917       7.57524902       2.27684946        3       1.00000000       0.01761961      -0.05463646       0.22875038
Pt      13.02228043       7.59276255       2.33011545        3       0.00000000       0.00352814      -0.04528701       0.13488926
Ni      -0.06392505       1.55495410       4.55921563        7       1.00000000      -0.01996462       0.07351930      -0.09518541
Pt       2.55222900       1.60723437       4.54799392        6       0.00000000      -0.01688530       0.09311942      -0.06688145
Pt       5.21830557       1.50658874       4.53281765        6       0.00000000      -0.13913813       0.10279696      -0.10112602
Ni       7.89770322       1.50518752       4.50866617        6       1.00000000       0.07019792      -0.03217284      -0.15492771
Ni       1.24471736       3.76291947       4.49690737        6       1.00000000      -0.10023851      -0.01451332      -0.20621477
Ni       3.89673991       3.79560726       4.49948188        6       1.00000000      -0.01290690       0.00331266      -0.21914361
Pt       6.61074732       3.78025786       4.42746558        5       0.00000000       0.18119036      -0.02933686      -0.29743464
Ni       9.19182935       3.73915040       4.45968021        6       1.00000000       0.04336150      -0.06815049      -0.20372687
Pt       2.64753515       6.06667963       4.55356485        7       0.00000000       0.06579268      -0.01191259      -0.12698903
Ni       5.21404947       6.06004477       4.47644499        6       1.00000000      -0.01684658       0.00549133      -0.28394722
Pt       7.85031000       6.03511204       4.37149567        5       0.00000000       0.02635472      -0.02686972      -0.32757829
Pt      10.49786129       5.99526061       4.39306732        5       0.00000000       0.02349161      -0.07391285      -0.22732857
Ni       3.89788799       8.37180792       4.53892340        6       1.00000000      -0.01882854       0.05432266      -0.08713649
Pt       6.45860527       8.39360921       4.49161435        6       0.00000000      -0.07200255       0.20659962      -0.10045956
Pt       9.19336014       8.33890691       4.38033392        5       0.00000000      -0.02030155       0.02211414      -0.26630028
Ni      11.80933783       8.36088506       4.50363378        6       1.00000000       0.02647695       0.03902842      -0.08704274
Ni      -0.09111548       0.02819143       6.68186503       10       1.00000000      -0.07210722       0.10730129      -0.43588685
Pt       2.59095299       0.07576798       6.76317071       11       0.00000000       0.00950850      -0.12722676       0.11404578
Ni       5.24133884      -0.00764155       6.60414523        9       1.00000000       0.15597950      -0.12831017       0.04003148
Ni       7.85693481      -0.01589152       6.53416187        8       1.00000000       0.00992080       0.02293986      -0.05193244
Ni       1.21968050       2.28208734       6.58660659        9       1.00000000      -0.25918223       0.01371638       0.09893079
Ni       3.90332257       2.27799733       6.68616908       10       1.00000000       0.07074640       0.08302807      -0.16237183
Pt       6.61666588       2.21999528       6.61076371        9       0.00000000       0.36781633      -0.12761683       0.84591525
Ni       9.17764252       2.27496810       6.52947356        8       1.00000000       0.00866601       0.04713476      -0.20569162
Pt       2.51809850       4.49419399       6.68997865       10       0.00000000      -0.12383123      -0.08648893      -0.09429865
Pt       5.18766945       4.53183023       6.56080352        9       0.00000000      -0.08417978       0.02010459       0.59034669
Ni       7.87177514       4.52769199       6.58631110        9       1.00000000       0.15584756      -0.05701048      -0.09262410
Ni      10.42947567       4.50966706       6.55452168        9       1.00000000      -0.10907539      -0.16075926      -0.20070328
Ni       3.90116837       6.87152721       6.56141703        9       1.00000000       0.12675526       0.08506815       0.14271000
Pt       6.48187787       6.83292687       6.60115415        9       0.00000000      -0.00101267      -0.01839447       0.75371464
Pt       9.21599035       6.79465840       6.62529774        9       0.00000000      -0.03260691       0.03606511       0.53337983
Ni      11.78427934       6.87097058       6.54591788        8       1.00000000      -0.03034674       0.13616501      -0.00687639
