64
Lattice="10.34356395813926 0.009174824203675202 0.03200753048673365 5.179727609905268 8.891732266939721 0.02185786888852316 0.026134039206357984 0.005519301847012208 8.80120193751573" Properties=species:S:1:pos:R:3:tags:I:1:initial_magmoms:R:1:forces:R:3 unique_id=71a4e5db8d974044a312cff9d359cc45 stress="0.00025778295233899046 4.858417042091365e-06 -1.8958747128398137e-05 4.858417042091365e-06 0.0002578461373229715 7.4728157359363516e-06 -1.8958747128398137e-05 7.4728157359363516e-06 0.0002519315088036836" energy=-398.1528064021477 pbc="T T T"
Ni       0.00456269       0.02440056       0.18142016        4       1.00000000       0.06257755       0.09512229       0.24438027
Ni       2.58826476       0.01156999       0.22083678        4       1.00000000       0.03934470       0.03325746       0.40075759
Ni       5.17165713      -0.00446526       0.17846916        4       1.00000000      -0.02026218       0.14507941       0.23680600
Ni       7.76660942      -0.02922044       0.20429344        4       1.00000000      -0.01484754      -0.11789911       0.33994944
Ni       1.26956184       2.23232098       0.19396936        4       1.00000000      -0.10487325       0.04683893       0.28715584
Pt       3.83002163       2.23560151       0.20508758        4       0.00000000      -0.03779359       0.06945444       0.14326635
Pt       6.49692650       2.18125995       0.13663182        4       0.00000000       0.11470360      -0.05269132      -0.05571630
Ni       9.09727949       2.23547224       0.17454087        4       1.00000000       0.17134681       0.06624923       0.10235421
Ni       2.56977884       4.47108152       0.07646445        4       1.00000000      -0.07893314       0.03780738      -0.03510164
Ni       5.17350405       4.45886317       0.18231128        4       1.00000000       0.20481583      -0.07568062       0.26226252
Pt       7.84277491       4.46356401       0.13308052        4       0.00000000       0.16281548       0.01045141      -0.11398684
Ni      10.37853835       4.45263895       0.11081297        4       1.00000000       0.12441359      -0.03822915       0.04455521
Ni       3.85210224       6.68750756       0.10351587        4       1.00000000      -0.07188283       0.09665189       0.08919464
Pt       6.45263706       6.72390721       0.22234211        4       0.00000000      -0.03599448       0.02782562       0.14532079
Ni       9.08404846       6.69030764       0.11020227        4       1.00000000       0.00952440       0.03010157      -0.02686926
Ni      11.66044330       6.67596791       0.10229576        4       1.00000000       0.11139386      -0.02990865      -0.03671336
Ni       1.30742351       0.76593688       2.16692269        3       1.00000000      -0.03973520       0.10800314      -0.06329779
Ni       3.87946476       0.75061842       2.22700174        3       1.00000000       0.06339198       0.01928807       0.04560135
Ni       6.46313097       0.76853438       2.25134141        3       1.00000000      -0.02166296       0.07346157       0.14101559
Pt       9.06255247       0.79822368       2.20931627        3       0.00000000      -0.04383831       0.13205769       0.13518192
Ni       2.56384256       2.95789506       2.22453272        3       1.00000000      -0.11613357       0.09202676      -0.05704224
Ni       5.19565473       2.94337885       2.26556502        3       1.00000000      -0.01702837      -0.11066056       0.08059715
Ni       7.78437789       2.98422819       2.26391572        3       1.00000000       0.13578612       0.06044041      -0.02322368
Ni      10.34547903       2.97015615       2.25214299        3       1.00000000      -0.05600329       0.04041020       0.11655071
Pt       3.89609005       5.17042689       2.17885928        3       0.00000000      -0.08822888      -0.04814560      -0.04675594
Ni       6.51401807       5.17684429       2.24909640        3       1.00000000       0.13819055      -0.01222780      -0.01993115
Ni       9.04005788       5.17279323       2.28123271        3       1.00000000      -0.03384345      -0.07128766       0.17353103
Pt      11.61037504       5.13791153       2.25356776        3       0.00000000      -0.08999557      -0.01960781       0.04459890
Ni       5.17293304       7.42877098       2.21597338        3       1.00000000      -0.14657668       0.00831188      -0.08199074
Ni       7.77583032       7.40838006       2.23252476        3       1.00000000       0.04863400      -0.11481092      -0.01771023
Pt      10.33337689       7.41769815       2.15929094        3       0.00000000       0.00137965      -0.12288642      -0.05670863
Ni      12.94831743       7.41870893       2.21256945        3       1.00000000      -0.01694562      -0.08776435      -0.06937992
Ni      -0.00904188       1.55457202       4.34309629        2       1.00000000      -0.02880888       0.21408393      -0.08725999
Pt       2.58867558       1.57696430       4.25450637        2       0.00000000      -0.05094086       0.09017146       0.04477139
Ni       5.21172752       1.50298602       4.34759183        2       1.00000000      -0.00635637      -0.06522936      -0.17475263
Ni       7.77913586       1.51213768       4.37397951        2       1.00000000       0.05244600      -0.06646870      -0.12874478
Ni       1.27827430       3.75693649       4.38044950        2       1.00000000      -0.09895806       0.06146626      -0.04723025
Ni       3.86689421       3.72618696       4.35578550        2       1.00000000      -0.05660156      -0.00645465      -0.14960355
Pt       6.54179811       3.65630436       4.33712734        2       0.00000000       0.02155851      -0.02663644      -0.01755897
Ni       9.10589385       3.74253242       4.37202355        2       1.00000000       0.15498681       0.02352618      -0.25184644
Ni       2.56067052       5.87526005       4.42848251        2       1.00000000      -0.09693087      -0.10719923      -0.04487266
Pt       5.16611456       5.88572472       4.33802278        2       0.00000000       0.09767584      -0.03879773       0.02939921
Ni       7.83740473       5.87647708       4.37451692        2       1.00000000       0.11678286      -0.12908873      -0.21842296
Ni      10.35679260       5.86719076       4.44917585        2       1.00000000      -0.02065144      -0.08034713      -0.07747706
Pt       3.87665214       8.15786379       4.34276808        2       0.00000000      -0.03373305      -0.03610182       0.08112638
Pt       6.48633584       8.17242390       4.26891564        2       0.00000000      -0.06168292       0.03619772      -0.01288665
Pt       9.07243579       8.09919191       4.36839922        2       0.00000000      -0.04511068      -0.01964219       0.06831017
Pt      11.66101595       8.12969039       4.35332048        2       0.00000000      -0.01190121      -0.07373182      -0.00333414
Pt       0.00041521      -0.01272269       6.58796123        1       0.00000000      -0.01864529       0.02080835       0.10688293
Pt       2.61784920      -0.01888901       6.61754904        1       0.00000000      -0.05708731       0.05421595       0.22669216
Pt       5.20594251      -0.05340055       6.60024943        1       0.00000000      -0.00239357      -0.23005559       0.08728571
Pt       7.75312926      -0.03071873       6.62271293        1       0.00000000      -0.02473725      -0.11669335       0.18207572
Pt       1.28629745       2.34821069       6.54988088        1       0.00000000      -0.07092828       0.21500041       0.13774339
Pt       3.91705412       2.25973200       6.47244365        1       0.00000000      -0.03207636      -0.00325596      -0.25125256
Ni       6.49436997       2.23576314       6.47384672        1       1.00000000      -0.06123031      -0.06066980      -0.25661502
Pt       9.01373099       2.33033813       6.52941119        1       0.00000000      -0.07138410       0.08108881      -0.02473192
Ni       2.57485166       4.51476061       6.51512410        1       1.00000000      -0.05622322       0.12380401      -0.24877468
Pt       5.17493949       4.44849166       6.59491927        1       0.00000000      -0.02036709       0.01202846       0.08978320
Ni       7.81619099       4.46599410       6.47017920        1       1.00000000       0.08250305       0.08737197      -0.29640549
Ni      10.36149774       4.52621481       6.53216373        1       1.00000000      -0.04740810       0.14906195      -0.22266892
Ni       3.84935373       6.63002867       6.55029962        1       1.00000000      -0.11584404      -0.07806681      -0.17202421
Pt       6.54740473       6.61007808       6.51230132        1       0.00000000       0.12422178       0.01626587      -0.25967326
Ni       9.12119449       6.59492897       6.55021605        1       1.00000000       0.11494175      -0.18284529      -0.21902822
Ni      11.65848847       6.59862660       6.56150022        1       1.00000000      -0.02885496      -0.15484612      -0.21755767
