64
Lattice="10.316233643125813 -0.01742826248552286 0.0006266967744117743 5.143023503506624 8.897155777626605 -0.05682361193579456 0.0005116957735856381 -0.05386924280104085 8.802178766542859" Properties=species:S:1:pos:R:3:tags:I:1:initial_magmoms:R:1:forces:R:3 unique_id=dd204620fd4541c9bab34e004508ddeb stress="0.00022685585107030948 3.662676382021921e-06 -1.016556227189927e-05 3.662676382021921e-06 0.0002379027323791416 2.216757694809594e-05 -1.016556227189927e-05 2.216757694809594e-05 0.00022534947122116594" energy=-398.25185962230455 pbc="T T T"
Ni      -0.01749349       0.01867873       0.20346179        4       1.00000000      -0.06318545       0.03323325       0.32148555
Ni       2.57241722      -0.00757736       0.20892575        4       1.00000000      -0.03032887      -0.03520033       0.39504923
Ni       5.14940188      -0.03425545       0.16082372        4       1.00000000      -0.02169189       0.10769390       0.31419447
Ni       7.76940669      -0.06123792       0.09806659        4       1.00000000       0.09199895      -0.14147048       0.18589733
Ni       1.26517470       2.21199119       0.07285756        4       1.00000000      -0.08671444      -0.09246428       0.12969577
Pt       3.79367179       2.22058181       0.09622539        4       0.00000000      -0.07752566      -0.01104525      -0.12844485
Pt       6.46346172       2.19566698       0.11820826        4       0.00000000       0.00605668      -0.07921324       0.19444375
Ni       9.04365742       2.16654944       0.13034994        4       1.00000000      -0.03533636      -0.20853109       0.14985817
Ni       2.57394142       4.45915465       0.04190158        4       1.00000000       0.10813729       0.01708352       0.04246128
Ni       5.11379224       4.45690048       0.15673062        4       1.00000000      -0.04775781       0.03282705       0.31786214
Pt       7.80430469       4.45398987       0.07492182        4       0.00000000       0.14790450       0.01350931      -0.09634853
Ni      10.34018404       4.43622856       0.03178118        4       1.00000000       0.13964372      -0.02384278       0.10316235
Ni       3.82527152       6.66908997       0.14965498        4       1.00000000      -0.04338813      -0.07342899       0.28598608
Pt       6.40400152       6.70623074       0.15031661        4       0.00000000      -0.10049501       0.00475562       0.08469969
Ni       9.03146780       6.66831292       0.02475342        4       1.00000000      -0.02813391       0.01216343       0.01844006
Ni      11.61716992       6.65638147       0.01709128        4       1.00000000       0.13902446       0.00850948       0.00080396
Ni       1.28853286       0.71213906       2.16622213        3       1.00000000      -0.02022381       0.00801308      -0.03773785
Ni       3.83711237       0.74288925       2.19292180        3       1.00000000       0.03866063       0.05084829       0.01818540
Pt       6.48898931       0.74196021       2.25727769        3       0.00000000       0.02956912       0.18608816      -0.07944352
Ni       9.04101893       0.68832457       2.18424058        3       1.00000000       0.01448051      -0.03632978      -0.00994768
Ni       2.60001029       2.94622232       2.19613883        3       1.00000000       0.03959350       0.04678220       0.01607508
Ni       5.11412790       2.98654522       2.21393187        3       1.00000000      -0.14764114       0.00911911      -0.05453259
Ni       7.74802154       2.96448133       2.22022840        3       1.00000000       0.06298474       0.03063472      -0.08322961
Pt      10.28493042       2.88115844       2.16953526        3       0.00000000       0.03778630       0.00245354       0.02420618
Ni       3.90185425       5.17821701       2.18370776        3       1.00000000       0.10784138       0.00785376       0.10763514
Ni       6.41932171       5.17479345       2.20485738        3       1.00000000      -0.03658835       0.12872630      -0.06272027
Ni       8.98337296       5.16077111       2.20507361        3       1.00000000      -0.05048161      -0.07822633       0.13430149
Pt      11.67879945       5.15536766       2.11608670        3       0.00000000       0.12198682      -0.03424886       0.00212952
Ni       5.10807115       7.39095788       2.15360004        3       1.00000000      -0.11189786      -0.11509879      -0.07973654
Ni       7.71193640       7.39212939       2.15677291        3       1.00000000      -0.01487475      -0.11479532      -0.06947449
Pt      10.25740886       7.36895032       2.06673223        3       0.00000000       0.04916814      -0.11530761      -0.00680983
Ni      12.93087103       7.37863628       2.12009131        3       1.00000000      -0.00395754      -0.03882294      -0.05077102
Ni      -0.02353903       1.47816463       4.34271480        2       1.00000000       0.01501623      -0.01099859      -0.10129602
Pt       2.60894096       1.50634777       4.30728440        2       0.00000000      -0.01879281      -0.00872943      -0.09863851
Ni       5.14557350       1.48557118       4.33963953        2       1.00000000      -0.00698887       0.08733715      -0.13205351
Ni       7.77886182       1.47391689       4.33712969        2       1.00000000       0.19637444       0.09908218      -0.11105572
Pt       1.29629687       3.68538740       4.41709954        2       0.00000000       0.01076221      -0.03454786      -0.03518988
Ni       3.87555862       3.70820752       4.31693558        2       1.00000000       0.02488392       0.10350275      -0.23986179
Pt       6.45377765       3.70266372       4.23963690        2       0.00000000      -0.09213315      -0.03213653       0.02683200
Ni       8.99953569       3.65418936       4.33915735        2       1.00000000      -0.03018894      -0.04825483      -0.22658137
Ni       2.60228390       5.87137653       4.32718999        2       1.00000000       0.10622083      -0.04232904      -0.14917550
Ni       5.11819462       5.86803972       4.27985770        2       1.00000000      -0.09207789      -0.01134389      -0.15523759
Ni       7.72978976       5.85392804       4.29551678        2       1.00000000      -0.05570516      -0.00708927      -0.24284081
Pt      10.26402057       5.84148960       4.39739790        2       0.00000000      -0.05308412      -0.03348628      -0.10459051
Pt       3.85394051       8.13733659       4.23007469        2       0.00000000      -0.01887259      -0.01485820       0.02643701
Pt       6.41002973       8.09738794       4.19418106        2       0.00000000      -0.00489816      -0.05099414       0.02218702
Pt       8.99647628       8.11243633       4.27667555        2       0.00000000      -0.02717566       0.05076522       0.09510361
Pt      11.63039990       8.11865697       4.34251956        2       0.00000000       0.01957412      -0.08458562       0.11450375
Pt      -0.02089606       0.00847411       6.58791132        1       0.00000000      -0.04145583       0.06231451       0.17358518
Pt       2.59359296       0.01671126       6.61834585        1       0.00000000      -0.00599161       0.11907077       0.25655476
Pt       5.18986108      -0.10244504       6.60557922        1       0.00000000       0.02086436      -0.13757297       0.16355487
Ni       7.73703698      -0.05047796       6.54766866        1       1.00000000       0.06755165       0.11062939      -0.08881294
Ni       1.30347561       2.24497742       6.52907721        1       1.00000000       0.05531829       0.12239768      -0.04695409
Ni       3.83862752       2.21323485       6.44445649        1       1.00000000      -0.03073920       0.04039349      -0.27304088
Pt       6.45633606       2.16458987       6.41995831        1       0.00000000       0.01910501       0.02779154      -0.39355268
Pt       9.06440186       2.26341551       6.49694791        1       0.00000000       0.15293148       0.16359093       0.04554604
Ni       2.52528421       4.39409113       6.50821542        1       1.00000000      -0.12480500       0.00111085      -0.08093513
Pt       5.07891022       4.37320282       6.50567317        1       0.00000000      -0.11674036      -0.00318904       0.09080011
Ni       7.77950876       4.42340812       6.41423212        1       1.00000000       0.05335987       0.08866895      -0.31909440
Ni      10.32103254       4.42775595       6.52386556        1       1.00000000       0.04318862       0.15575125       0.00536403
Pt       3.74639292       6.62258817       6.51357871        1       0.00000000      -0.13701860       0.04964078       0.16617223
Pt       6.49377770       6.57831600       6.42174141        1       0.00000000      -0.01763600       0.00712907      -0.26335882
Ni       9.04003781       6.57703179       6.50424811        1       1.00000000      -0.03437996      -0.08376631      -0.10570477
Ni      11.57481421       6.57901785       6.50827051        1       1.00000000      -0.09108129      -0.18756314      -0.10604153
