64
Lattice="10.276229637675323 -0.006272502316110055 0.01861240816740948 5.132682672486611 8.813919141939373 -0.03882957598959244 0.0 0.0 21.536080647829188" Properties=species:S:1:pos:R:3:tags:I:1:initial_magmoms:R:1:forces:R:3 unique_id=0efcf62d9026479a85782f3632c9bcfc energy=-373.4788198996266 stress="0.005556542431789835 0.00010836844379786872 3.40705221489448e-05 0.00010836844379786872 0.0048781640656688115 -9.128248250027973e-05 3.40705221489448e-05 -9.128248250027973e-05 -0.0020652108329519796" pbc="T T T"
Ni       0.01579352      -0.00460975       0.13580919        1       1.00000000       0.12185998       0.05329506      -0.20499937
Ni       2.56448901      -0.00200785       0.16230044        2       1.00000000      -0.01948294       0.03106927      -0.04191875
Ni       5.13753541      -0.02635120       0.12687727        1       1.00000000      -0.04823980       0.12985435      -0.49419829
Ni       7.70140476      -0.06473898       0.16097161        2       1.00000000      -0.08172919      -0.00946906      -0.28501148
Ni       1.28366962       2.20943926       0.05658430        1       1.00000000      -0.00176668       0.01324668       0.36333992
Pt       3.77104417       2.16458722       0.12794838        1       0.00000000       0.04115590       0.01005060      -0.35130296
Pt       6.43498289       2.15640528       0.05940901        1       0.00000000      -0.00594667      -0.08839644      -0.11156170
Pt       9.06406580       2.24475440       0.08071519        1       0.00000000       0.01239327       0.07150100      -0.60205620
Ni       2.53186269       4.43093811       0.00000000        0       1.00000000      -0.00705345      -0.01876142       0.17845552
Pt       5.09126903       4.44683922       0.03806883        0       0.00000000      -0.08215840      -0.02608947      -0.05306651
Ni       7.72199639       4.42427466       0.02139773        0       1.00000000      -0.01921962       0.01714605       0.06860282
Ni      10.30815628       4.42945649       0.01133701        0       1.00000000       0.08508592       0.06888673       0.20832762
Ni       3.80211400       6.63632962       0.03006358        0       1.00000000      -0.00853718       0.02348540       0.29381631
Pt       6.44858880       6.66644223       0.03233680        0       0.00000000       0.00118589       0.05523864      -0.04401977
Ni       9.00128857       6.60454375       0.07558217        1       1.00000000      -0.06898091       0.00499536      -0.38924779
Ni      11.58320836       6.60036834       0.00609942        0       1.00000000       0.06914419      -0.00548519       0.18034216
Ni       1.32070806       0.73570973       2.17123188        4       1.00000000       0.06342822       0.07569064       0.19155997
Ni       3.82460585       0.74807933       2.19400613        4       1.00000000      -0.06644798       0.12120278       0.23216220
Ni       6.41642157       0.75350055       2.18942195        4       1.00000000      -0.05726983       0.16664487       0.26499409
Pt       9.01080396       0.72339184       2.19213999        4       0.00000000       0.04564281       0.14056833       0.00626933
Ni       2.56337250       2.89648117       2.21219203        4       1.00000000       0.02059331      -0.10834923       0.23516367
Ni       5.12030606       2.91938667       2.20704168        4       1.00000000      -0.11811442      -0.03061118       0.19565032
Ni       7.68357859       2.91681465       2.18961222        4       1.00000000      -0.05877957      -0.06234559       0.10879419
Ni      10.32986415       2.90016431       2.21310073        4       1.00000000       0.15088058      -0.11376316       0.26020705
Ni       3.86129060       5.12665714       2.15338465        4       1.00000000       0.02821988      -0.10744097       0.07456287
Ni       6.40975150       5.12723880       2.15276522        4       1.00000000      -0.01476874      -0.05710009       0.05692214
Pt       8.93905757       5.08077764       2.16307743        4       0.00000000      -0.02301456      -0.13489813      -0.00557662
Pt      11.62760804       5.07493993       2.16433609        4       0.00000000       0.05164742      -0.11102658       0.09497254
Ni       5.15267285       7.31655693       2.11880493        3       1.00000000       0.04394084      -0.06955420       0.06977430
Ni       7.65883096       7.36394173       2.14101660        3       1.00000000      -0.18086152       0.03708713       0.21259100
Pt      10.28199135       7.36174760       2.06106909        3       0.00000000       0.04440295      -0.04297708       0.00426655
Ni      12.87796631       7.30260092       2.09844076        3       1.00000000       0.12958575      -0.08440024       0.04894276
Ni       0.06997113       1.49499027       4.27070032        6       1.00000000       0.18516465       0.05963204      -0.17022357
Ni       2.52984107       1.49518860       4.25035424        6       1.00000000      -0.08688489       0.06621301      -0.20385386
Ni       5.13180447       1.46833139       4.25555159        6       1.00000000      -0.11674794      -0.03880637      -0.33623135
Ni       7.71359439       1.46241762       4.29156971        6       1.00000000       0.01904469      -0.08791722      -0.22494632
Ni       1.29489184       3.63672512       4.31613510        6       1.00000000       0.03329850      -0.06097287      -0.05136408
Ni       3.80851818       3.65596106       4.24074659        5       1.00000000      -0.14412691      -0.05447957      -0.32807868
Pt       6.45990760       3.60362169       4.27829456        6       0.00000000       0.04001239      -0.05242262      -0.10742577
Ni       9.03564161       3.66995655       4.27704132        6       1.00000000       0.12769132      -0.00821550      -0.16693173
Ni       2.55904075       5.79008021       4.31582908        6       1.00000000      -0.01982620      -0.13668709      -0.03689946
Pt       5.14267110       5.82526026       4.26780801        6       0.00000000       0.01200081      -0.04704490      -0.13315823
Ni       7.70956972       5.83029327       4.28933822        6       1.00000000      -0.02551518      -0.03060647      -0.18639539
Ni      10.29999468       5.77974829       4.32186769        6       1.00000000       0.06058957      -0.08233328      -0.06158082
Pt       3.88907486       8.05360566       4.22889737        5       0.00000000       0.01294530       0.05147915       0.01323919
Ni       6.42756567       8.07308391       4.22388161        5       1.00000000      -0.05065018       0.10496256      -0.29546788
Pt       8.91888391       8.07013444       4.20468888        5       0.00000000      -0.06139799       0.09311230       0.00745352
Pt      11.56583578       8.03028491       4.23321583        5       0.00000000      -0.04703331      -0.04800885       0.05129386
Pt       0.02333494      -0.06020753       6.48475375        9       0.00000000       0.05162416       0.08259505       0.35195513
Pt       2.55073728      -0.02364067       6.48615462        9       0.00000000       0.00764029       0.05300019       0.25864250
Pt       5.15387716      -0.02478792       6.51098582        9       0.00000000      -0.08497113       0.16757377       0.47280624
Pt       7.71962824      -0.07379749       6.53608065        9       0.00000000       0.01029257       0.16611669       0.46210798
Ni       1.29180852       2.23583582       6.40428029        8       1.00000000       0.01463200       0.09271153      -0.28412599
Pt       3.84450756       2.28594019       6.33689541        7       0.00000000       0.00438674       0.08123653       0.35051818
Ni       6.43346153       2.20528172       6.37039908        8       1.00000000      -0.03009437      -0.06531685       0.22249905
Pt       9.01558320       2.26619488       6.33097076        7       0.00000000       0.00373795      -0.08458511       0.54177284
Ni       2.54316455       4.41359125       6.39626244        8       1.00000000       0.02778924       0.00551973      -0.36575387
Ni       5.15158807       4.40457646       6.36595634        8       1.00000000      -0.04637806      -0.00802998       0.12039527
Ni       7.67731522       4.37116831       6.42352296        8       1.00000000      -0.10484338      -0.01332435      -0.16119162
Ni      10.34599288       4.36866752       6.41174187        8       1.00000000       0.13479443      -0.02821619      -0.30030153
Ni       3.84214906       6.50662890       6.42645923        8       1.00000000      -0.04428788      -0.11432676      -0.21397457
Ni       6.41892360       6.52543571       6.34773214        7       1.00000000       0.05898175       0.03382037       0.13489815
Pt       9.00681488       6.44756490       6.43899931        8       0.00000000       0.00471291      -0.04595732       0.08605091
Ni      11.59336073       6.49721252       6.42931703        8       1.00000000       0.00662271      -0.00001653      -0.21248599
