64
Lattice="10.174951934950201 0.019517983716404518 0.03045498738941127 5.104379037204157 8.780848103232914 -0.008508387197595968 0.024866393075651208 -0.022378403115176925 8.707611128496808" Properties=species:S:1:pos:R:3:tags:I:1:initial_magmoms:R:1:forces:R:3 unique_id=463e289390ca4fa29e359ca017ea1a3a stress="-0.006954666461393436 7.33297214187483e-06 -7.616320585261223e-06 7.33297214187483e-06 -0.006934655346255973 -2.970053606930058e-05 -7.616320585261223e-06 -2.970053606930058e-05 -0.005990946703220736" energy=-391.71007313482824 pbc="T T T"
Ni       0.04177428      -0.04447126       0.20439829        4       1.00000000       0.08822072      -0.04012631       0.17765718
Ni       2.50583136       0.01707863       0.17792047        4       1.00000000       0.02442922       0.11573041       0.01327829
Pt       5.12476206      -0.04484575       0.23185929        4       0.00000000      -0.00124292      -0.01111718      -0.03992506
Ni       7.64637341      -0.03555115       0.21122875        4       1.00000000       0.00671358      -0.07242625       0.09890647
Ni       1.27634821       2.21866835       0.12617533        4       1.00000000       0.00027037       0.09955232       0.10618046
Pt       3.79575051       2.27081014       0.19246107        4       0.00000000      -0.00050900       0.06701255      -0.12454783
Ni       6.37077554       2.24972310       0.14643995        4       1.00000000       0.00189057       0.06480525       0.15745076
Pt       8.91432918       2.27987918       0.16510533        4       0.00000000       0.01141875       0.10755989      -0.21103750
Ni       2.53293067       4.43642613       0.11311061        4       1.00000000       0.01623140       0.04686018       0.08294210
Ni       5.11938803       4.44158961       0.11915701        4       1.00000000      -0.00408004       0.03770670       0.03536609
Ni       7.61136010       4.44060367       0.13232436        4       1.00000000      -0.01709235       0.08042151       0.09793998
Ni      10.22416109       4.44383136       0.13831431        4       1.00000000       0.08882275       0.04123695       0.02027582
Ni       3.83143451       6.56072684       0.11157290        4       1.00000000       0.00448683      -0.03544377       0.04231977
Ni       6.33768250       6.56009692       0.08116408        4       1.00000000      -0.06840867      -0.03988866      -0.08652587
Ni       8.94000243       6.52619493       0.20076266        4       1.00000000       0.13568921      -0.10509540       0.12044204
Ni      11.49472179       6.54851791       0.14336723        4       1.00000000       0.06486252      -0.03822869       0.03928964
Ni       1.31288815       0.77574891       2.16863196        3       1.00000000       0.04577812       0.10236603       0.04496376
Ni       3.81816283       0.79461260       2.23244563        3       1.00000000      -0.03520757       0.08862087       0.02036855
Ni       6.34679453       0.76262462       2.26559682        3       1.00000000      -0.03654351       0.04166202       0.08060371
Pt       8.88180721       0.72907836       2.20355643        3       0.00000000       0.00022893       0.00723904       0.14173527
Ni       2.52591689       2.96174337       2.24608870        3       1.00000000      -0.03465370       0.10305289       0.02108624
Ni       5.10170447       2.94606261       2.21179812        3       1.00000000      -0.02710323       0.03788870      -0.01385976
Ni       7.61236548       2.97397306       2.22072688        3       1.00000000      -0.00712041       0.04415516       0.03903837
Ni      10.23188084       3.00869046       2.21675829        3       1.00000000       0.04598710       0.05071620       0.00912311
Ni       3.83440210       5.09934173       2.15240176        3       1.00000000      -0.01784677      -0.07207905      -0.04203349
Ni       6.33552701       5.09183649       2.14645183        3       1.00000000      -0.06298944      -0.03677361       0.01372271
Ni       8.95514160       5.08274188       2.18342711        3       1.00000000       0.00085577      -0.05672106       0.02892856
Ni      11.45507335       5.11822707       2.18304075        3       1.00000000       0.00453648      -0.05632644       0.01098104
Ni       5.08859760       7.24282943       2.14936135        3       1.00000000      -0.09391804      -0.13616767       0.03228947
Pt       7.60562992       7.30566113       2.11777492        3       0.00000000      -0.04494580      -0.00371460       0.00690190
Ni      10.25674137       7.25260793       2.22135224        3       1.00000000       0.04293584      -0.16022615       0.06225911
Ni      12.70670501       7.26880037       2.16504226        3       1.00000000       0.02747097      -0.08278358       0.00917844
Pt       0.10030203       1.51100471       4.26821175        2       0.00000000       0.06703898      -0.07763571      -0.00653688
Ni       2.58685251       1.51454772       4.26254147        2       1.00000000       0.07128775       0.04219799      -0.10742192
Ni       5.10968680       1.47040768       4.26183074        2       1.00000000      -0.03079438      -0.00446377      -0.10254555
Ni       7.60136760       1.45515932       4.32193991        2       1.00000000      -0.01868614      -0.07373650      -0.02113325
Ni       1.29648533       3.65435417       4.31434111        2       1.00000000       0.00423689      -0.01060512      -0.07245306
Ni       3.81326987       3.65098235       4.24747752        2       1.00000000      -0.01243259       0.00636164      -0.22398215
Pt       6.33147256       3.60332235       4.32268731        2       0.00000000      -0.00622145      -0.03873167      -0.01069448
Ni       8.96002860       3.69929999       4.27689564        2       1.00000000       0.03717552      -0.00273640      -0.20093509
Pt       2.53012754       5.76899265       4.29299016        2       0.00000000      -0.01562201      -0.00721751      -0.07943684
Ni       5.09753106       5.81187802       4.32005605        2       1.00000000      -0.02706472      -0.09410072      -0.14156593
Pt       7.63686712       5.81636274       4.30945669        2       0.00000000       0.00705988      -0.00653383      -0.01291950
Ni      10.21395486       5.81057677       4.30394585        2       1.00000000      -0.02931863      -0.03574504      -0.10270049
Pt       3.85744116       7.97677545       4.27237440        2       0.00000000       0.05514296      -0.00425355       0.05201513
Ni       6.38749610       8.02999140       4.28885714        2       1.00000000       0.02472826       0.00468837      -0.07483236
Pt       8.96971317       8.08235500       4.23169022        2       0.00000000      -0.02374258      -0.05659774      -0.05616777
Ni      11.48141205       8.04476190       4.25912492        2       1.00000000       0.04808986      -0.03837891      -0.11247190
Pt       0.02441449      -0.07541554       6.53447935        1       0.00000000      -0.07186793      -0.01201554       0.20766787
Pt       2.53697845      -0.00152892       6.48271495        1       0.00000000       0.06556765       0.03483229       0.01468683
Pt       5.13492400       0.01319559       6.40403438        1       0.00000000      -0.03609446       0.04835583       0.06532177
Pt       7.63914065      -0.04633679       6.52019255        1       0.00000000       0.04660123      -0.03075308       0.13145052
Ni       1.29742390       2.25266309       6.44313568        1       1.00000000       0.01967809       0.05092937      -0.00806003
Pt       3.83055520       2.31966729       6.34905888        1       0.00000000      -0.00465139       0.06860798      -0.04488917
Ni       6.37181226       2.24256556       6.46383316        1       1.00000000      -0.03790579       0.02020721       0.04386717
Pt       8.90063434       2.31099425       6.37718636        1       0.00000000      -0.06530283       0.06796551       0.00420718
Ni       2.53847508       4.41300951       6.45214587        1       1.00000000      -0.03108335       0.05302766       0.00934909
Ni       5.11640881       4.43914478       6.45956358        1       1.00000000      -0.06008051       0.07927994      -0.01950526
Ni       7.58433137       4.38962629       6.48123283        1       1.00000000      -0.16418781       0.00905520       0.03581445
Ni      10.27618990       4.38533881       6.44601560        1       1.00000000       0.11377495      -0.00819015      -0.11634477
Ni       3.84682211       6.47902344       6.46416489        1       1.00000000      -0.03568400      -0.08836981      -0.00796410
Ni       6.34849869       6.50959190       6.45317715        1       1.00000000      -0.03908019      -0.00584187      -0.13432153
Pt       8.95956174       6.45829652       6.53594822        1       0.00000000       0.00454568      -0.06984346       0.14403904
Ni      11.50110954       6.52063020       6.47423091        1       1.00000000      -0.01427460      -0.00922685      -0.04683636
