64
Lattice="10.263000208833647 -0.012911808904243021 0.02464137400546555 5.12031814989694 8.826698307049503 -0.01870655408164019 0.0 0.0 21.514906392736805" Properties=species:S:1:pos:R:3:tags:I:1:initial_magmoms:R:1:forces:R:3 unique_id=8937172e4309446da2123e48b2c865c9 energy=-373.57073981428584 stress="0.005767257490743156 -3.985822072609374e-06 0.00012207610044652942 -3.985822072609374e-06 0.005623987734059004 -0.00012061293064024169 0.00012207610044652942 -0.00012061293064024169 -0.0011372197296216427" pbc="T T T"
Ni       0.01367051      -0.01030046       0.12220901        1       1.00000000       0.08377767       0.02014714      -0.11102607
Ni       2.53265194       0.00703339       0.15078524        2       1.00000000      -0.08361442       0.06943830      -0.02943358
Pt       5.12398219      -0.04999050       0.09972176        1       0.00000000      -0.05966312       0.19833444      -0.95546921
Ni       7.72268260      -0.07116401       0.14825441        1       1.00000000      -0.04949904      -0.08329653      -0.23212371
Ni       1.28705580       2.21260883       0.04899308        0       1.00000000       0.00514908       0.04229890       0.39618100
Pt       3.76217568       2.25839500       0.12460438        1       0.00000000       0.02670047      -0.01844732      -0.32327621
Pt       6.41157469       2.21057981       0.06071666        1       0.00000000       0.04392341      -0.03209943      -0.08824414
Pt       9.07037127       2.19319983       0.07791110        1       0.00000000       0.00528772       0.12542231      -0.51030842
Ni       2.55409495       4.44899686       0.00000000        0       1.00000000       0.06106754       0.02595621       0.30673921
Ni       5.08271524       4.44513955       0.04726478        0       1.00000000      -0.11094464       0.11405857       0.32013653
Pt       7.73094056       4.45960061       0.05097871        1       0.00000000       0.06281285       0.04933655      -0.04794655
Ni      10.31367179       4.42551739       0.02991477        0       1.00000000       0.08728105       0.00988415       0.26549945
Ni       3.80224787       6.60538740       0.03606359        0       1.00000000      -0.00931920      -0.03846392       0.39894887
Pt       6.35578053       6.66363868       0.11471523        1       0.00000000      -0.05214484       0.05760617      -0.37867531
Ni       8.98490033       6.59877614       0.09792826        1       1.00000000      -0.10504264      -0.01743104      -0.26921012
Ni      11.57690181       6.57174246       0.02232526        0       1.00000000       0.05702695       0.04026276       0.23922508
Ni       1.31763373       0.73828110       2.16616106        4       1.00000000       0.04786294       0.05348401       0.21163295
Ni       3.81177075       0.76282287       2.19270417        4       1.00000000      -0.05388802       0.09970997       0.27175061
Ni       6.41820994       0.76139469       2.20148500        4       1.00000000      -0.05928240       0.17357700       0.26870762
Pt       9.00489410       0.71173300       2.21107928        4       0.00000000       0.05449470       0.10776947       0.02787730
Ni       2.55561428       2.91323745       2.21583143        4       1.00000000       0.02208232      -0.11749354       0.26492640
Ni       5.11268105       2.95471149       2.19391842        4       1.00000000      -0.08079808       0.04072666       0.11867279
Ni       7.70189430       2.95175448       2.20786221        4       1.00000000       0.06373352       0.01589169       0.19231060
Ni      10.29192612       2.92374168       2.21435398        4       1.00000000       0.05258231      -0.08548436       0.24011569
Ni       3.88068550       5.13215143       2.14191573        3       1.00000000       0.09728879      -0.09035887       0.07124749
Ni       6.39252400       5.13911048       2.18552246        4       1.00000000      -0.04672689      -0.00140391       0.11011556
Ni       8.95485911       5.10098997       2.19749602        4       1.00000000      -0.09338776      -0.24044887       0.25772425
Pt      11.59323362       5.06023490       2.16971086        4       0.00000000       0.17544341      -0.18270098       0.08330687
Ni       5.13171557       7.31721948       2.16306054        4       1.00000000       0.03596756      -0.12317813       0.15105876
Ni       7.64862832       7.34556511       2.15654537        4       1.00000000      -0.14144854      -0.03459668       0.18076238
Pt      10.23431219       7.27316714       2.14947588        3       0.00000000      -0.03803602      -0.15898459      -0.15661167
Ni      12.85881022       7.29870927       2.10575587        3       1.00000000       0.10420239      -0.14992377       0.03618277
Ni       0.06603142       1.50501375       4.25779840        6       1.00000000       0.16994582       0.04340026      -0.16230588
Ni       2.53145832       1.50938976       4.23689532        5       1.00000000      -0.07433996       0.08534496      -0.23154716
Ni       5.12782623       1.49012759       4.24427166        5       1.00000000      -0.09846994       0.00867001      -0.41041165
Ni       7.70077132       1.47906439       4.28315875        6       1.00000000      -0.03038742      -0.00312023      -0.26871670
Ni       1.29240875       3.65285014       4.30951709        6       1.00000000       0.04406447      -0.07729278      -0.04404695
Ni       3.82105633       3.70007303       4.23982774        5       1.00000000      -0.08714596       0.04710837      -0.30572204
Pt       6.40905919       3.67190158       4.26585751        6       0.00000000      -0.05129141       0.01828701      -0.02715145
Ni       9.01866777       3.69061486       4.24985814        5       1.00000000       0.08483414       0.04584228      -0.31326687
Ni       2.58141714       5.79929308       4.31161977        6       1.00000000       0.01623810      -0.17047225      -0.06965630
Ni       5.10816406       5.82480367       4.23681439        5       1.00000000      -0.00510076      -0.17761192      -0.30532711
Ni       7.70313644       5.83442892       4.23489052        5       1.00000000       0.00549575      -0.00506805      -0.38823991
Ni      10.27865019       5.78062463       4.30724229        6       1.00000000       0.04408904      -0.11520249      -0.09455783
Pt       3.91381364       8.00398924       4.24231325        5       0.00000000       0.09519826      -0.12115714       0.15857775
Ni       6.40868301       8.07727480       4.21414671        5       1.00000000      -0.05564381       0.02118555      -0.33669011
Pt       8.88584293       8.08607448       4.21457561        5       0.00000000      -0.11179843       0.11169878       0.01645351
Pt      11.57558741       8.03525577       4.22809735        5       0.00000000      -0.02099876      -0.09647948       0.04298011
Pt       0.01635463       0.00364784       6.46814471        9       0.00000000       0.02033151       0.12540636       0.30755693
Pt       2.55659926       0.02029020       6.47198549        9       0.00000000       0.00964367       0.01027801       0.30854338
Pt       5.15450342       0.00464409       6.39382140        8       0.00000000      -0.03566596       0.20220992       1.02178001
Pt       7.71271920      -0.06616452       6.51490639        9       0.00000000      -0.00145194       0.20370584       0.38271423
Ni       1.29287721       2.26335656       6.39674361        8       1.00000000       0.01551415       0.15227548      -0.30092908
Pt       3.83983351       2.31277550       6.33171343        7       0.00000000      -0.05958558       0.00567522       0.29385144
Ni       6.42747290       2.22781921       6.35766055        8       1.00000000      -0.01778103      -0.01429057       0.12506437
Pt       9.00365040       2.28332050       6.32438465        7       0.00000000      -0.00132445      -0.05777609       0.47164399
Ni       2.54511611       4.43937153       6.39575462        8       1.00000000      -0.02339359      -0.01474497      -0.42857695
Ni       5.11381183       4.39747791       6.41893202        8       1.00000000      -0.08461989       0.05255958      -0.30849135
Ni       7.68841249       4.36513848       6.35358572        8       1.00000000      -0.02590463       0.01439197       0.03764558
Ni      10.34189223       4.37905585       6.41166819        8       1.00000000       0.14592307      -0.01063154      -0.35200715
Ni       3.81544671       6.51882759       6.41765173        8       1.00000000      -0.02515761      -0.14097846      -0.28759972
Pt       6.37020845       6.50524206       6.32660942        7       0.00000000       0.08488761       0.07406781       0.31776925
Pt       9.03931605       6.47050952       6.43700605        8       0.00000000      -0.03012238      -0.08337236       0.08389793
Ni      11.58818440       6.51552533       6.43694660        8       1.00000000       0.00112885      -0.00350144      -0.24403146
