64
Lattice="10.323230731248918 -0.009064309125804016 0.02945490630782483 5.153765443653757 8.851162401920437 0.01887322340574071 0.02404983029188557 0.003908669677745554 8.780549112774688" Properties=species:S:1:pos:R:3:tags:I:1:initial_magmoms:R:1:forces:R:3 unique_id=7b62ec6843514e6fa17cac7b703040d5 stress="-0.00038277305360137626 2.9474731024773134e-06 -1.0063554805134626e-05 2.9474731024773134e-06 -0.0003803490844948229 1.2179674158092686e-05 -1.0063554805134626e-05 1.2179674158092686e-05 -0.0003139339944830885" energy=-397.4655659851455 pbc="T T T"
Ni       0.00389990       0.02575185       0.18731890        4       1.00000000       0.04619920       0.08884164       0.24089190
Ni       2.58233079       0.00833178       0.22834482        4       1.00000000       0.02720230       0.02786252       0.35443996
Ni       5.15839828      -0.01242022       0.17768622        4       1.00000000      -0.02802771       0.11519131       0.20922932
Ni       7.74971696      -0.04672593       0.20976267        4       1.00000000      -0.01647421      -0.08410733       0.33217959
Ni       1.25859661       2.22161772       0.19988755        4       1.00000000      -0.10634660       0.03459200       0.26090882
Pt       3.81187104       2.22024371       0.11763224        4       0.00000000      -0.03319158       0.06673100      -0.15674458
Pt       6.47738407       2.16012719       0.12713111        4       0.00000000       0.10499514      -0.05223629      -0.07366297
Ni       9.07664381       2.21250223       0.17377615        4       1.00000000       0.14195246       0.04749093       0.10008032
Ni       2.55514550       4.44873442       0.06957126        4       1.00000000      -0.06675281       0.03079640      -0.07345126
Ni       5.15670892       4.43341217       0.17896898        4       1.00000000       0.19214469      -0.05460533       0.22941494
Pt       7.82084603       4.43523123       0.12644606        4       0.00000000       0.15069282       0.01433503      -0.11491977
Ni      10.35182560       4.41746282       0.10771234        4       1.00000000       0.11102019      -0.03061785       0.01767560
Ni       3.82968207       6.66062421       0.10346089        4       1.00000000      -0.05668609       0.09354862       0.06007429
Pt       6.42469519       6.68834962       0.21642601        4       0.00000000      -0.04823926       0.04316926       0.22470888
Ni       9.05400441       6.65086043       0.10503933        4       1.00000000       0.01151691       0.03261730      -0.04888000
Ni      11.62668885       6.63171074       0.09695246        4       1.00000000       0.09404890      -0.02524969      -0.06402247
Ni       1.30649278       0.76498280       2.16559397        3       1.00000000      -0.02001588       0.10664234       0.01558651
Ni       3.86837754       0.75597186       2.21280875        3       1.00000000       0.05829523       0.04427878       0.03628197
Ni       6.44897595       0.75613102       2.24794795        3       1.00000000      -0.02845021       0.08144661       0.11881217
Pt       9.04274749       0.78195352       2.20910855        3       0.00000000      -0.03534394       0.10571019       0.09782878
Ni       2.56258341       2.93248425       2.20811942        3       1.00000000      -0.06505671       0.03732495      -0.04910708
Ni       5.17004267       2.91647791       2.25122964        3       1.00000000      -0.04632713      -0.10878517       0.02798701
Ni       7.76471158       2.96020974       2.25851804        3       1.00000000       0.10267306       0.05663471      -0.06199830
Ni      10.31991218       2.94097899       2.24715867        3       1.00000000      -0.03460104       0.04394610       0.10974409
Pt       3.87650419       5.14117436       2.17057687        3       0.00000000      -0.02942255      -0.05437887      -0.02341492
Ni       6.49397017       5.14388481       2.24505151        3       1.00000000       0.10221355       0.00120687      -0.05347085
Ni       9.01230139       5.13646467       2.27949111        3       1.00000000      -0.03357777      -0.06949926       0.12118295
Pt      11.57808526       5.09735728       2.24625051        3       0.00000000      -0.06295578      -0.03222581       0.01279235
Ni       5.14609819       7.39453852       2.21204527        3       1.00000000      -0.10060289      -0.01418646      -0.08261601
Ni       7.74921487       7.36792260       2.22680473        3       1.00000000       0.00965357      -0.11054089      -0.02914489
Pt      10.29870403       7.37114141       2.15113690        3       0.00000000      -0.00967050      -0.07187505      -0.05585270
Ni      12.90743111       7.36675238       2.20220040        3       1.00000000      -0.01987314      -0.08389599      -0.02533170
Ni      -0.00398671       1.55504746       4.33384806        2       1.00000000       0.03358763       0.19287422      -0.03089044
Pt       2.60962307       1.57839160       4.28159921        2       0.00000000      -0.08583808       0.05774186       0.03125822
Ni       5.18250614       1.49722143       4.35539404        2       1.00000000       0.00214362      -0.05768645      -0.14171267
Ni       7.76123022       1.49172999       4.36009113        2       1.00000000       0.04958056      -0.05183386      -0.06328757
Ni       1.26874532       3.74162837       4.36658359        2       1.00000000      -0.05961216       0.00074893      -0.02912530
Ni       3.85354234       3.69131010       4.36825137        2       1.00000000      -0.04085113       0.02289070      -0.15378660
Pt       6.51871538       3.62863289       4.32383570        2       0.00000000       0.01649859      -0.04967175       0.00078590
Ni       9.08336659       3.71358943       4.35215512        2       1.00000000       0.12122022      -0.01969700      -0.20022431
Ni       2.54190258       5.84430745       4.41765928        2       1.00000000      -0.07306525      -0.07745503      -0.04845731
Pt       5.14225146       5.84729157       4.33405617        2       0.00000000       0.08368762      -0.02612743       0.05596453
Ni       7.81401736       5.83740013       4.35640083        2       1.00000000       0.07863205      -0.08502472      -0.17393476
Ni      10.32382025       5.82412149       4.43536775        2       1.00000000      -0.02193164      -0.03673816      -0.07168080
Pt       3.85373067       8.11953418       4.33156423        2       0.00000000      -0.04318392      -0.04889443       0.15353483
Pt       6.46039902       8.14050836       4.25968657        2       0.00000000      -0.06186920       0.01517506       0.04371393
Pt       9.03879395       8.05634231       4.35405924        2       0.00000000      -0.03395259      -0.00516166       0.10170144
Pt      11.61861091       8.08247247       4.34368907        2       0.00000000       0.01285562      -0.04377208       0.06135258
Pt       0.00747534      -0.00996473       6.57634513        1       0.00000000      -0.02862994       0.00875697       0.09908349
Pt       2.62354915       0.00960754       6.60660005        1       0.00000000      -0.01651539       0.04625663       0.23793423
Pt       5.18225865      -0.00207580       6.58059928        1       0.00000000      -0.03371640      -0.08279429       0.05234654
Pt       7.73369657      -0.04599885       6.61300590        1       0.00000000      -0.00307734      -0.11778102       0.17137594
Pt       1.32667515       2.34778388       6.54267606        1       0.00000000       0.00047827       0.20985791       0.17547834
Ni       3.89109416       2.22877332       6.43880911        1       1.00000000      -0.04886786      -0.06086537      -0.29454419
Ni       6.45780165       2.21336397       6.44882365        1       1.00000000      -0.01640114      -0.06383497      -0.24431562
Pt       9.00315984       2.30831758       6.51193537        1       0.00000000      -0.04160369       0.07606971      -0.02914065
Ni       2.57196222       4.48330057       6.49413111        1       1.00000000      -0.08088810       0.14902294      -0.22502020
Pt       5.10679169       4.34710623       6.57277907        1       0.00000000      -0.06674290      -0.07078340       0.08594365
Ni       7.78887467       4.43494488       6.44661196        1       1.00000000       0.06012195       0.03000494      -0.27698924
Ni      10.33550954       4.49248003       6.50933000        1       1.00000000      -0.03742772       0.11007501      -0.18105374
Ni       3.82995325       6.59074147       6.53017964        1       1.00000000      -0.07285734      -0.08718788      -0.13011993
Pt       6.51718047       6.55978764       6.49549203        1       0.00000000       0.04870755      -0.05270729      -0.25998668
Ni       9.09415198       6.56222219       6.52824142        1       1.00000000       0.09379193      -0.08354232      -0.18975967
Ni      11.61817220       6.55465266       6.53858630        1       1.00000000      -0.04526606      -0.07807834      -0.18364589
