64
Lattice="10.467457004129201 0.0062000160575599785 0.0401056998256393 5.239097873474319 9.084807440245571 -0.013163081922624833 0.03274616678334843 -0.03131628085903061 9.003292802292695" Properties=species:S:1:pos:R:3:tags:I:1:initial_magmoms:R:1:forces:R:3 unique_id=13770ab489ba47c9ab5d723253732266 stress="-0.00019616035957988748 -8.109754732765188e-07 -6.5721652394940414e-06 -8.109754732765188e-07 -0.00019688235278692012 8.63977135135818e-06 -6.5721652394940414e-06 8.63977135135818e-06 -0.00016153712002002496" energy=-407.31443262802804 pbc="T T T"
Ni      -0.05603973      -0.02628376       0.17183253        4       1.00000000      -0.21651550      -0.07665946       0.13501044
Ni       2.64417886      -0.03367184       0.08278027        4       1.00000000       0.12578073      -0.07179482       0.04908617
Ni       5.26354536      -0.04248501       0.16991119        4       1.00000000       0.13221984      -0.02597788       0.14677989
Ni       7.87656859      -0.04354011       0.14848485        4       1.00000000       0.03871802      -0.12835881       0.12874347
Pt       1.26367704       2.26408616       0.10378355        4       0.00000000      -0.02474490      -0.01973378      -0.16319990
Pt       3.95644958       2.27405945       0.12637774        4       0.00000000       0.07259540       0.02530570      -0.11801288
Pt       6.58856986       2.19228541       0.16490069        4       0.00000000       0.08248409      -0.13358011      -0.06258934
Ni       9.15051008       2.23859113       0.18730487        4       1.00000000      -0.06261864      -0.12753570       0.16950869
Ni       2.62784448       4.58215164       0.13886887        4       1.00000000       0.08714371       0.03562017       0.09151583
Ni       5.24995423       4.54677356       0.16082708        4       1.00000000       0.19866733      -0.06385300       0.14194309
Pt       7.92069992       4.56787287       0.17025739        4       0.00000000       0.08928533      -0.01986585      -0.00370116
Ni      10.48295432       4.58852911       0.08312956        4       1.00000000       0.04138164       0.11247914      -0.01336976
Ni       3.90387357       6.85164869       0.16658456        4       1.00000000      -0.03280763       0.12882162       0.14324140
Pt       6.53551284       6.86176845       0.21088163        4       0.00000000       0.00409511      -0.00525544       0.04939393
Ni       9.19219883       6.82727858       0.09043053        4       1.00000000       0.02648679       0.00007992       0.04178791
Ni      11.79700246       6.83557331       0.08230826        4       1.00000000       0.10546704       0.06447409      -0.04283218
Pt       1.27681467       0.64197237       2.19836833        3       0.00000000       0.01408876      -0.03972310      -0.02541471
Pt       4.00120542       0.73146917       2.27078854        3       0.00000000       0.03891757       0.00502604       0.03251063
Ni       6.59453683       0.73120961       2.29873376        3       1.00000000       0.06735993      -0.05813321       0.02183027
Ni       9.10812436       0.71458507       2.24464035        3       1.00000000      -0.12230276      -0.00772858      -0.05101225
Pt       2.63854309       3.04895900       2.25940681        3       0.00000000      -0.05860679       0.01672617       0.03310049
Ni       5.28008168       3.02705189       2.29346953        3       1.00000000       0.01297014       0.00282041       0.01176837
Pt       7.79430929       3.01280469       2.39453682        3       0.00000000      -0.06314062       0.00467903       0.00636462
Pt      10.37964905       3.06176582       2.26387375        3       0.00000000      -0.07920815       0.07911224      -0.03677625
Pt       4.00958036       5.36053508       2.16762612        3       0.00000000       0.03468379       0.00251928       0.07097566
Ni       6.59424144       5.30284800       2.28555892        3       1.00000000       0.11629037       0.00593288       0.04381188
Ni       9.13546301       5.33042096       2.32297973        3       1.00000000      -0.05134899       0.05558028       0.10809188
Pt      11.75837293       5.35061516       2.20323683        3       0.00000000       0.00651118       0.01133244      -0.00579118
Ni       5.21280468       7.57179211       2.22434053        3       1.00000000      -0.09270057       0.04801625       0.02534527
Ni       7.87708497       7.50633638       2.26903742        3       1.00000000       0.06600867      -0.10291864       0.06166854
Pt      10.47578030       7.54708925       2.18768350        3       0.00000000      -0.00564255      -0.01355546       0.01797148
Ni      13.11248864       7.62602811       2.22669185        3       1.00000000      -0.04655163       0.06865991      -0.06740856
Pt      -0.08882245       1.53195403       4.40801730        2       0.00000000      -0.12390343       0.03486258      -0.08607132
Pt       2.65846511       1.46421742       4.46043015        2       0.00000000      -0.04929901      -0.03983547      -0.11876102
Ni       5.30656275       1.50585388       4.43997419        2       1.00000000       0.06161168       0.01976100      -0.19221426
Ni       7.83044316       1.52831556       4.46428550        2       1.00000000      -0.04403563      -0.00037006      -0.09018372
Pt       1.22524510       3.84074881       4.48163265        2       0.00000000      -0.04735993       0.05109074      -0.05419846
Pt       4.03038739       3.74395890       4.42540260        2       0.00000000       0.00181398       0.02737512      -0.00979346
Ni       6.60597526       3.75720464       4.46945016        2       1.00000000       0.02486811       0.02258136       0.03752187
Ni       9.13199988       3.82355133       4.47364242        2       1.00000000      -0.06830306       0.06083133      -0.11252945
Pt       2.58724788       6.07031548       4.44638301        2       0.00000000       0.01532117       0.01849981      -0.02468665
Pt       5.34612065       6.00396381       4.40015333        2       0.00000000       0.05140316      -0.04070589       0.03924612
Ni       7.92498149       5.98907222       4.42473878        2       1.00000000       0.04318562      -0.10403016      -0.19182367
Ni      10.42805958       6.02878069       4.53276343        2       1.00000000      -0.04927683      -0.02115107      -0.04767183
Pt       3.91697068       8.33924127       4.36810117        2       0.00000000       0.00709325      -0.02960602      -0.06416852
Pt       6.58342143       8.27316540       4.41394852        2       0.00000000      -0.02836011       0.02479884      -0.04375776
Pt       9.19024170       8.21203516       4.49773304        2       0.00000000      -0.02454456      -0.04124650      -0.01830684
Pt      11.78732306       8.38085984       4.45987928        2       0.00000000      -0.02305519       0.02157688      -0.03715084
Pt       0.01331796      -0.02102658       6.76439144        1       0.00000000      -0.02229016       0.02587696       0.10285808
Ni       2.65959092      -0.04272984       6.70736904        1       1.00000000       0.02880035       0.00457960      -0.08893753
Pt       5.25404694      -0.12706390       6.77836690        1       0.00000000      -0.01910036      -0.07494589       0.13966880
Ni       7.85252181      -0.02490660       6.71701455        1       1.00000000      -0.03945597       0.02202961      -0.09604319
Pt       1.31576475       2.25330259       6.63187462        1       0.00000000      -0.01892335       0.01781935      -0.04952635
Pt       3.95598578       2.19901999       6.63150320        1       0.00000000       0.03272163      -0.03299837      -0.00749198
Pt       6.58047813       2.20188285       6.58218511        1       0.00000000      -0.03514169      -0.02251293      -0.05596282
Pt       9.16955737       2.26751574       6.74494407        1       0.00000000      -0.01411909       0.03839953       0.13130784
Pt       2.55806554       4.57232973       6.75793989        1       0.00000000      -0.05627115       0.04105875       0.09699697
Pt       5.27493337       4.53800571       6.72442393        1       0.00000000      -0.01903504       0.06776990       0.10320520
Pt       7.96341917       4.57522218       6.58091104        1       0.00000000      -0.00752867       0.02694627      -0.01570480
Ni      10.47551350       4.59380036       6.69569519        1       1.00000000      -0.03642202       0.13265428      -0.10589991
Pt       3.86967400       6.84665932       6.75988367        1       0.00000000      -0.09213781       0.06772803       0.11904481
Pt       6.66422241       6.83306460       6.66155516        1       0.00000000       0.06988371       0.05438414       0.04151077
Ni       9.23157998       6.77608759       6.68478138        1       1.00000000       0.08375742      -0.08687992      -0.08954770
Ni      11.74974127       6.78729547       6.71398667        1       1.00000000      -0.10686372      -0.05885354      -0.15127012
