64
Lattice="10.299086606566746 -0.03242168908511054 0.06240986335659975 5.121465296902065 8.878827169788657 0.04414929300330073 0.0509574400468303 0.01220406089471604 8.832490431378535" Properties=species:S:1:pos:R:3:tags:I:1:initial_magmoms:R:1:forces:R:3 unique_id=82acfd284e124f459a905f7ae100de74 stress="0.00027846321696232273 7.64485550429935e-06 -3.713412114568328e-05 7.64485550429935e-06 0.00026708167765669005 -2.4033088891229953e-05 -3.713412114568328e-05 -2.4033088891229953e-05 0.00026556599702894784" energy=-398.00311241972565 pbc="T T T"
Ni       0.04924933       0.00379397       0.17014458        4       1.00000000       0.12377370       0.08238695       0.28592872
Ni       2.54052238       0.00537563       0.21811478        4       1.00000000      -0.07466552       0.08436288       0.41461449
Pt       5.09114826      -0.04438727       0.17484009        4       0.00000000      -0.08807124      -0.01677997       0.25938677
Pt       7.76139309      -0.13126653       0.22120012        4       0.00000000       0.06718145      -0.07983536       0.35233868
Ni       1.29639369       2.23062692       0.11801631        4       1.00000000       0.03163545       0.09114203       0.26529476
Pt       3.77315492       2.27698836       0.21808507        4       0.00000000      -0.00862686       0.14853993       0.16141172
Pt       6.41703630       2.24371291       0.16016144        4       0.00000000       0.05125919       0.11415635       0.04907002
Pt       9.11672737       2.23230391       0.19937653        4       0.00000000       0.11503866       0.02999074       0.19099049
Ni       2.55694722       4.47150164       0.09340144        4       1.00000000       0.04434721       0.09993853       0.05757609
Ni       5.09984888       4.46707079       0.14120650        4       1.00000000      -0.03901182       0.09811072       0.25749863
Pt       7.75383167       4.49036216       0.16251429        4       0.00000000       0.07142614       0.08631387      -0.06108675
Ni      10.34554510       4.44322732       0.14899031        4       1.00000000       0.17099271       0.07471835       0.11679009
Ni       3.83130695       6.60527554       0.13754853        4       1.00000000      -0.03686205      -0.19307202       0.25299957
Pt       6.37877989       6.69950858       0.23455010        4       0.00000000      -0.03338635       0.05184441       0.01460663
Ni       9.00822324       6.62938720       0.22312472        4       1.00000000      -0.02303414       0.01848241       0.21522132
Ni      11.58196436       6.57158212       0.15268068        4       1.00000000       0.05508342      -0.12466372       0.08101208
Ni       1.32691917       0.73907453       2.21703471        3       1.00000000       0.11017447       0.00027365       0.03346243
Ni       3.84301102       0.75541643       2.26746027        3       1.00000000       0.02000082       0.03031902       0.03343328
Ni       6.42134619       0.76402708       2.29363794        3       1.00000000      -0.10008565       0.04057640       0.02646077
Pt       9.11018369       0.70925948       2.31928971        3       0.00000000       0.10657949       0.04726912      -0.13058302
Ni       2.56585109       2.96942888       2.26997954        3       1.00000000       0.01811968       0.09863060       0.03393752
Ni       5.13149238       2.98410816       2.30190067        3       1.00000000      -0.13577193       0.09160553       0.08928247
Ni       7.72613666       2.98917337       2.29789652        3       1.00000000       0.06834946       0.13932378      -0.01202909
Ni      10.33258137       2.94681996       2.33835279        3       1.00000000       0.06390515      -0.01493222       0.21351844
Ni       3.89175521       5.17084982       2.25720267        3       1.00000000       0.11927154      -0.07174647       0.06222844
Ni       6.41495076       5.17854209       2.30499399        3       1.00000000      -0.05187628       0.10198369      -0.01953480
Ni       8.98290879       5.13277026       2.32571916        3       1.00000000      -0.06079153      -0.16742270       0.19768945
Pt      11.62414971       5.08850155       2.30969265        3       0.00000000       0.11810519      -0.09720045       0.09197989
Ni       5.15389338       7.36321755       2.28690047        3       1.00000000       0.08491362      -0.18695214       0.05328177
Ni       7.67233538       7.38755859       2.29451283        3       1.00000000      -0.15355249      -0.08877685       0.06228559
Pt      10.26141372       7.31255780       2.28779453        3       0.00000000      -0.04609463      -0.09294683      -0.15849217
Ni      12.90381111       7.30736181       2.31470761        3       1.00000000       0.18117780      -0.28882777       0.02440485
Ni       0.04659094       1.53237390       4.36827939        2       1.00000000      -0.03988015       0.12096909      -0.03154500
Pt       2.53734424       1.55597309       4.31016936        2       0.00000000      -0.00008127       0.06665659       0.12176654
Ni       5.15622971       1.50633799       4.37518674        2       1.00000000      -0.14411624       0.06415224      -0.20989006
Pt       7.73115601       1.52581353       4.38405758        2       0.00000000      -0.00979922       0.02275469       0.07895984
Ni       1.28326358       3.73813564       4.43005927        2       1.00000000      -0.03534845       0.03484227       0.02965218
Ni       3.85535723       3.76767460       4.38177392        2       1.00000000      -0.13961907       0.13157774      -0.23378448
Pt       6.40436657       3.76865098       4.40550005        2       0.00000000      -0.05705637      -0.03230661      -0.06680941
Ni       9.06813899       3.74874351       4.40862524        2       1.00000000       0.02970544       0.08253179      -0.23377076
Ni       2.59307484       5.85198787       4.44195805        2       1.00000000       0.00579854      -0.20013949      -0.04979886
Ni       5.13283882       5.88691499       4.38851871        2       1.00000000      -0.05261297      -0.09820186      -0.24581013
Ni       7.73477209       5.88321837       4.39423215        2       1.00000000       0.00692885      -0.02305102      -0.24009888
Ni      10.31399013       5.82071804       4.46847845        2       1.00000000       0.02603662      -0.13617815      -0.06110331
Pt       3.94181709       8.03760091       4.37999763        2       0.00000000      -0.00724657      -0.11524004       0.20115828
Ni       6.43324046       8.11363939       4.37917677        2       1.00000000      -0.06231653      -0.06386942      -0.18763850
Pt       8.92957128       8.09829598       4.38943813        2       0.00000000      -0.01503251      -0.00289522       0.09039280
Pt      11.59883016       8.03336327       4.40098085        2       0.00000000      -0.01878902      -0.09326122       0.05356163
Pt       0.03350634       0.02569403       6.56902414        1       0.00000000       0.02782326       0.03146619       0.07435245
Pt       2.58909615       0.02616086       6.61564493        1       0.00000000      -0.04363829       0.02022782       0.20646493
Pt       5.19161428       0.01820428       6.52134403        1       0.00000000       0.04210748       0.04086491      -0.39213172
Pt       7.75859777      -0.07263601       6.57492010        1       0.00000000      -0.07888867      -0.06377020      -0.19729172
Ni       1.31290441       2.30004586       6.55071956        1       1.00000000       0.04364983       0.18760489      -0.16773624
Pt       3.88411009       2.35324946       6.50670689        1       0.00000000      -0.10315131       0.14129054      -0.18432362
Ni       6.46340025       2.26525235       6.52716479        1       1.00000000      -0.01600522       0.10670649      -0.19584740
Pt       9.07518923       2.32394162       6.52778682        1       0.00000000      -0.00846066       0.12897522      -0.30109490
Ni       2.56737611       4.49444064       6.54769958        1       1.00000000      -0.09760470       0.07387539      -0.22701247
Ni       5.14374943       4.45054714       6.57634149        1       1.00000000      -0.14248478       0.08749999      -0.14148784
Ni       7.72480319       4.40935273       6.52029942        1       1.00000000      -0.10622554      -0.05128846      -0.27212614
Ni      10.38664908       4.42671673       6.58778924        1       1.00000000       0.28445260       0.00362265      -0.24310170
Ni       3.83977698       6.58473913       6.57521872        1       1.00000000      -0.09274899      -0.25297701      -0.12969923
Pt       6.39776775       6.56540679       6.49731369        1       0.00000000      -0.04667365      -0.01883237      -0.23116492
Pt       9.07803273       6.52214687       6.62200238        1       0.00000000       0.03568738      -0.14602497       0.06101812
Ni      11.63011724       6.56550252       6.62634766        1       1.00000000       0.04608551      -0.15439491      -0.18903860
