64
Lattice="10.156383527217397 0.0054453207089848275 0.04314528813328182 5.082907549674496 8.75172584557903 0.001658323770851929 0.03522798024396653 -0.01877540123183136 8.690711345589888" Properties=species:S:1:pos:R:3:tags:I:1:initial_magmoms:R:1:forces:R:3 unique_id=0df782d4d0394dc5a7e63967f57595de stress="-0.007120871818421581 2.3563604324957787e-05 -1.272385997322515e-05 2.3563604324957787e-05 -0.007108671474293969 -2.2058407809310624e-05 -1.272385997322515e-05 -2.2058407809310624e-05 -0.006131835102391597" energy=-390.57332019776646 pbc="T T T"
Ni       0.04197576      -0.04462602       0.20223715        4       1.00000000       0.08623550      -0.03286263       0.16095966
Ni       2.50133152       0.01365640       0.18030308        4       1.00000000       0.02887916       0.11809724       0.00567409
Pt       5.11662174      -0.05136489       0.23833864        4       0.00000000       0.00603172      -0.00633702      -0.04393913
Ni       7.63495189      -0.04560401       0.22157574        4       1.00000000       0.01427057      -0.07561035       0.11476966
Ni       1.27093377       2.21234943       0.12901543        4       1.00000000       0.00404142       0.10360971       0.09811535
Pt       3.78625119       2.26077639       0.19581176        4       0.00000000       0.00625887       0.06767300      -0.13876735
Ni       6.35739592       2.23666850       0.15598255        4       1.00000000       0.00547979       0.06827170       0.16408386
Pt       8.89638449       2.25911713       0.18067764        4       0.00000000       0.02072953       0.09744501      -0.19196959
Ni       2.52347089       4.42296812       0.11430685        4       1.00000000       0.02521838       0.05505984       0.06066418
Ni       5.10499077       4.42514905       0.12722484        4       1.00000000      -0.01534735       0.04743489       0.05184125
Ni       7.59286833       4.41960813       0.14383484        4       1.00000000      -0.00404571       0.07444530       0.10100364
Ni      10.20126064       4.41965205       0.15265199        4       1.00000000       0.10554093       0.04329354       0.03831207
Ni       3.81598942       6.53950471       0.11655828        4       1.00000000       0.00756809      -0.03283851       0.03590543
Ni       6.31802162       6.53518119       0.09098117        4       1.00000000      -0.05412880      -0.03145860      -0.09104166
Ni       8.91545036       6.49567974       0.21397561        4       1.00000000       0.13873522      -0.10058835       0.11029844
Ni      11.46609048       6.51526189       0.15477285        4       1.00000000       0.07282387      -0.03739203       0.01152471
Ni       1.31140398       0.77348906       2.16711180        3       1.00000000       0.04148561       0.09992134       0.05019573
Ni       3.81191403       0.79012304       2.23445796        3       1.00000000      -0.04207105       0.08676585       0.01990328
Ni       6.33677791       0.74967539       2.27306340        3       1.00000000      -0.03919773       0.02223591       0.09742282
Pt       8.86636516       0.70630857       2.22178362        3       0.00000000       0.00904207      -0.01375922       0.16552271
Ni       2.52112642       2.96043994       2.25082307        3       1.00000000      -0.02187553       0.10570123       0.00909690
Ni       5.08600731       2.93577589       2.21796379        3       1.00000000      -0.06231984       0.05479417       0.00464284
Ni       7.59679224       2.95624642       2.22939734        3       1.00000000      -0.00672051       0.03435692       0.05837084
Ni      10.21505853       2.99077189       2.22904292        3       1.00000000       0.06166116       0.06046525       0.01687866
Ni       3.80463037       5.09082337       2.18638827        3       1.00000000      -0.04489774      -0.04108321      -0.01503386
Ni       6.31578797       5.07072926       2.15368402        3       1.00000000      -0.07031805      -0.03465398       0.02416028
Ni       8.93913365       5.05891539       2.19551691        3       1.00000000       0.02603141      -0.04568908       0.04361001
Ni      11.45019843       5.09856957       2.23092630        3       1.00000000       0.04624209      -0.04500241       0.04864441
Ni       5.06846691       7.21430344       2.15650399        3       1.00000000      -0.09248915      -0.14136832       0.02948245
Pt       7.58417266       7.27794879       2.12762942        3       0.00000000      -0.04277007      -0.00514506       0.01239490
Ni      10.23695632       7.21587263       2.23538996        3       1.00000000       0.04372888      -0.16826345       0.04777380
Ni      12.67259961       7.21605916       2.19477531        3       1.00000000       0.02892680      -0.10952295       0.02613362
Pt       0.10477822       1.51135333       4.26214743        2       0.00000000       0.07238025      -0.06070612      -0.00499833
Ni       2.58632596       1.51529865       4.25759000        2       1.00000000       0.08052022       0.06687555      -0.10988418
Ni       5.10166785       1.46220417       4.25846885        2       1.00000000      -0.04690027      -0.00332567      -0.10326540
Ni       7.59068120       1.43459718       4.32596849        2       1.00000000      -0.02877859      -0.09932160      -0.00113276
Ni       1.32380503       3.69414453       4.30741916        2       1.00000000       0.01810460       0.00862016      -0.07520386
Ni       3.77381217       3.69420612       4.25119888        2       1.00000000      -0.03917971       0.06524663      -0.17893915
Pt       6.31215311       3.58703190       4.32468046        2       0.00000000      -0.01753336      -0.04853981      -0.00422506
Ni       8.95014974       3.68394484       4.28083489        2       1.00000000       0.06384420       0.01991547      -0.18506671
Ni       2.53106447       5.76428893       4.30205092        2       1.00000000      -0.02440229      -0.02418092      -0.15203430
Ni       5.05559722       5.77816119       4.31794159        2       1.00000000      -0.02761363      -0.10581767      -0.14314805
Pt       7.62127198       5.79233161       4.31459315        2       0.00000000       0.01642729      -0.01961892      -0.01172521
Ni      10.24949189       5.78700767       4.31383617        2       1.00000000       0.00818170      -0.01403346      -0.08608248
Pt       3.80987743       7.89410511       4.27176470        2       0.00000000       0.02846328      -0.02871350       0.04731633
Ni       6.35970197       7.99975734       4.29053461        2       1.00000000      -0.00965595      -0.00739146      -0.07879950
Pt       8.95130674       8.04780639       4.23855786        2       0.00000000      -0.03255534      -0.05982141      -0.06394330
Ni      11.46108595       7.96982472       4.27157183        2       1.00000000       0.04084334      -0.09732605      -0.10143305
Pt       0.02617865      -0.07851319       6.51157425        1       0.00000000      -0.09463924      -0.02452568       0.17776036
Pt       2.53742896      -0.00359630       6.47202644        1       0.00000000       0.05514832       0.03295458       0.00792664
Pt       5.13311466       0.00971273       6.39552145        1       0.00000000      -0.05217022       0.05734909       0.06852162
Pt       7.63085930      -0.06039195       6.51488195        1       0.00000000       0.03852538      -0.03216939       0.14784518
Ni       1.29958735       2.25181352       6.43117919        1       1.00000000       0.01942003       0.05993488      -0.00978921
Pt       3.82498911       2.31854407       6.33552410        1       0.00000000      -0.01181571       0.06656307      -0.05309491
Ni       6.36410437       2.23066992       6.46197496        1       1.00000000      -0.04604295       0.01240544       0.05626472
Pt       8.88815397       2.29643542       6.37727819        1       0.00000000      -0.07353029       0.06413867       0.02617972
Ni       2.53713433       4.42067119       6.40360461        1       1.00000000      -0.01809386       0.05106544      -0.07840595
Ni       5.10240560       4.42801879       6.45286477        1       1.00000000      -0.06498804       0.07819195      -0.00026376
Ni       7.56870169       4.36962966       6.48050535        1       1.00000000      -0.17046342       0.00616873       0.04197770
Ni      10.26617712       4.36485656       6.44296824        1       1.00000000       0.11681676      -0.01209975      -0.11065167
Ni       3.82383112       6.44775763       6.44083334        1       1.00000000      -0.05324006      -0.09150703      -0.02090676
Ni       6.33229986       6.48571371       6.44984835        1       1.00000000      -0.04549985      -0.00827035      -0.13979804
Pt       8.94759399       6.43013057       6.53381683        1       0.00000000       0.01892105      -0.07009163       0.13849907
Ni      11.49337629       6.48085611       6.44272475        1       1.00000000      -0.00324320       0.00003504      -0.12613370
