64
Lattice="10.285380075306007 -0.00019765288624868133 0.031007670301655563 5.142518865232384 8.882687616437291 0.012080228572305026 0.025317656783836087 -0.003227807237051157 8.80134137379342" Properties=species:S:1:pos:R:3:tags:I:1:initial_magmoms:R:1:forces:R:3 unique_id=331bc748f2a24c74930f447e4f85bc3e stress="0.0002563077738233985 5.0196341984021365e-06 -2.9982791141349195e-05 5.0196341984021365e-06 0.00026184689789530285 1.4668237436460002e-06 -2.9982791141349195e-05 1.4668237436460002e-06 0.0002492548230760422" energy=-397.3057172297032 pbc="T T T"
Ni       0.01462714      -0.00400447       0.17628816        4       1.00000000       0.04977985       0.04696304       0.33143104
Ni       2.57208409       0.00885238       0.20966064        4       1.00000000       0.01109650       0.04069124       0.43448422
Ni       5.14058777      -0.01094520       0.17050080        4       1.00000000      -0.05678347       0.11868519       0.23397550
Ni       7.71257954      -0.05931770       0.21043687        4       1.00000000      -0.00533412      -0.11867745       0.39135640
Ni       1.29918231       2.22821934       0.11056256        4       1.00000000       0.04529647       0.02322866       0.25462872
Pt       3.78938359       2.23376523       0.19442023        4       0.00000000      -0.03553004       0.07296502       0.08999086
Pt       6.41085901       2.17264260       0.13137366        4       0.00000000       0.02069948      -0.04897126      -0.05008634
Pt       9.09110765       2.22457009       0.14562461        4       0.00000000       0.13934030       0.01053022       0.12197340
Ni       2.57505595       4.47177792       0.07386052        4       1.00000000       0.09154232       0.08240527      -0.00331159
Ni       5.10139913       4.46683683       0.20972692        4       1.00000000      -0.07111623       0.01146380       0.33865480
Pt       7.72048747       4.47930679       0.05828970        4       0.00000000       0.03155728       0.08528177      -0.18898257
Ni      10.34588115       4.46878103       0.09281944        4       1.00000000       0.16631020       0.09080947       0.12078856
Ni       3.81921857       6.65926547       0.12063979        4       1.00000000      -0.07859065      -0.01933419       0.20844506
Pt       6.39590785       6.72463081       0.20798807        4       0.00000000      -0.04661559       0.05164993       0.13517651
Ni       9.03157495       6.69201545       0.09229602        4       1.00000000      -0.00129997       0.05725598       0.05540743
Ni      11.59951824       6.66221938       0.09640813        4       1.00000000       0.14059334      -0.01193496       0.03036691
Ni       1.32555079       0.75162307       2.22998858        3       1.00000000       0.05516993       0.06494116       0.12580614
Ni       3.83232850       0.77374914       2.24607934        3       1.00000000      -0.04961983       0.16528484       0.09326738
Ni       6.42386670       0.77530207       2.25020294        3       1.00000000      -0.05869868       0.13508091       0.13127667
Pt       9.02191770       0.73706064       2.26549773        3       0.00000000       0.04868880       0.21931235      -0.05101612
Ni       2.57459920       2.93112804       2.28259663        3       1.00000000       0.01377125      -0.10559958       0.18256014
Ni       5.12529651       2.96690238       2.26748986        3       1.00000000      -0.16550868      -0.04049131       0.04272655
Ni       7.69745429       2.94027284       2.26850381        3       1.00000000       0.04643210      -0.06141866      -0.11167228
Ni      10.34326540       2.93542968       2.28603377        3       1.00000000       0.16586283      -0.06278037       0.13114448
Ni       3.88537569       5.16765271       2.19943980        3       1.00000000      -0.02403140      -0.08516564      -0.05920814
Ni       6.39788357       5.16776998       2.23112438        3       1.00000000       0.05749167      -0.05289226      -0.15302863
Pt       8.96700372       5.14996969       2.27669027        3       0.00000000      -0.09931807      -0.11974084      -0.17426053
Pt      11.66507864       5.12899947       2.21959454        3       0.00000000       0.09544832      -0.07822437       0.06542741
Ni       5.14565694       7.39862573       2.23312125        3       1.00000000       0.00495078       0.02202610       0.01633716
Ni       7.68113631       7.44220683       2.25132590        3       1.00000000      -0.14926049       0.02102501       0.05848556
Pt      10.29356701       7.44644941       2.15302524        3       0.00000000       0.02309898      -0.05203482      -0.07981912
Ni      12.89775208       7.37608155       2.20869658        3       1.00000000       0.10894407      -0.13683248       0.02582938
Ni       0.07223406       1.52670739       4.33981684        2       1.00000000       0.15814688       0.07058277      -0.11422271
Ni       2.53871116       1.52437313       4.32251285        2       1.00000000      -0.07507335       0.04283267      -0.17481953
Ni       5.13823961       1.50522772       4.34196023        2       1.00000000      -0.15428104       0.01669256      -0.18223906
Ni       7.73305820       1.49983122       4.37298781        2       1.00000000       0.05559079      -0.05559844      -0.09320337
Ni       1.32389858       3.64910662       4.39585350        2       1.00000000       0.05866643      -0.08188987      -0.07835924
Ni       3.81515920       3.69025873       4.32327152        2       1.00000000      -0.11331296      -0.06363368      -0.23112679
Pt       6.47410201       3.64408764       4.33515881        2       0.00000000      -0.04292552      -0.05896129      -0.01931823
Ni       9.03036541       3.67655420       4.36464745        2       1.00000000       0.08898800      -0.17804888      -0.27109987
Ni       2.58677105       5.86571802       4.40907628        2       1.00000000       0.01780580      -0.10994616      -0.03816555
Pt       5.13455006       5.88650155       4.27945988        2       0.00000000       0.02659499      -0.09176491       0.05147894
Ni       7.73067842       5.90425556       4.38249128        2       1.00000000      -0.05510090       0.00248790      -0.15055865
Pt      10.31164517       5.83244937       4.49492920        2       0.00000000       0.07258091      -0.03781331       0.00984296
Pt       3.90575689       8.14458569       4.35167508        2       0.00000000      -0.01397871      -0.04627007       0.21022581
Ni       6.44214881       8.17834994       4.32775728        2       1.00000000      -0.06380165       0.08302979      -0.14384202
Pt       8.93175863       8.17324878       4.33154851        2       0.00000000      -0.10217336       0.08330701       0.11120890
Pt      11.59538120       8.16293807       4.33891873        2       0.00000000       0.04854543       0.05310517       0.04968682
Pt       0.02197921       0.01924477       6.55475881        1       0.00000000       0.00144294       0.05286944       0.14214596
Pt       2.57295787       0.01514335       6.57714637        1       0.00000000      -0.03145376       0.03258723       0.17729907
Pt       5.15893036      -0.04783714       6.59443563        1       0.00000000      -0.00182000      -0.10437087       0.02021026
Pt       7.72140931      -0.03694160       6.62179983        1       0.00000000      -0.09838453      -0.05333412       0.20932836
Ni       1.29093758       2.28525730       6.49591396        1       1.00000000      -0.06182127       0.18496629      -0.21620266
Pt       3.81861941       2.26288141       6.42830616        1       0.00000000      -0.09573378       0.08999312      -0.25783042
Ni       6.45451505       2.22358290       6.46671338        1       1.00000000      -0.05115682      -0.03689892      -0.25932076
Pt       9.02740950       2.31370174       6.43215806        1       0.00000000      -0.03963271       0.08077669      -0.35020451
Ni       2.52862770       4.46604236       6.50746579        1       1.00000000      -0.14385729       0.04705955      -0.25620333
Pt       5.12934389       4.43942898       6.58613735        1       0.00000000      -0.05884268       0.02959817       0.17529862
Ni       7.76718193       4.44793523       6.44220602        1       1.00000000       0.08658732       0.06328875      -0.47666243
Ni      10.33339469       4.44551439       6.56417987        1       1.00000000       0.10155184      -0.02727288      -0.03839093
Ni       3.82294889       6.61962889       6.54443190        1       1.00000000      -0.10269860      -0.09291571      -0.11498657
Pt       6.49415547       6.61953940       6.47765079        1       0.00000000       0.00793266       0.00913796      -0.25757783
Ni       9.04451670       6.59750041       6.56197488        1       1.00000000       0.04957399      -0.13538812      -0.10437377
Ni      11.59870033       6.59038702       6.57697265        1       1.00000000       0.05767374      -0.09370960      -0.07617244
