64
Lattice="10.320750366943658 -0.02959374668525648 -0.011110992653450774 5.134746247049234 8.883561502471949 -0.057432360766532554 0.0 0.0 21.601730829165945" Properties=species:S:1:pos:R:3:tags:I:1:initial_magmoms:R:1:forces:R:3 unique_id=752a3111868246e2b23059285b20d423 energy=-376.0297707350858 stress="0.005245720760758343 -4.204554159669195e-05 -1.7415608151787594e-05 -4.204554159669195e-05 0.005383219348846118 -0.00043815270490497925 -1.7415608151787594e-05 -0.00043815270490497925 -0.0021534907809823527" pbc="T T T"
Ni      -0.00098700       0.01706152       0.17033287        2       1.00000000       0.10607528      -0.02529592      -0.21497291
Ni       2.57408445      -0.00814160       0.19776089        2       1.00000000      -0.04502481       0.01506746      -0.11738875
Ni       5.15536475      -0.03257938       0.15131338        2       1.00000000       0.00034930       0.18740610      -0.39252341
Ni       7.74683628      -0.07158482       0.07308596        1       1.00000000      -0.05923466      -0.10006077       0.26297376
Ni       1.25034630       2.22076570       0.08324109        1       1.00000000      -0.09749555      -0.01222831       0.43628457
Pt       3.79178455       2.21063911       0.08502567        1       0.00000000       0.03860440      -0.02660876      -0.00679420
Pt       6.46667969       2.14426199       0.16251044        2       0.00000000       0.02566021      -0.05693028      -0.49033916
Ni       9.06339068       2.19063003       0.11866341        1       1.00000000       0.05351744       0.10530682      -0.07613949
Ni       2.54884669       4.44518883       0.02344397        0       1.00000000       0.00133720      -0.01419477       0.17072704
Ni       5.13358852       4.43343214       0.11541331        1       1.00000000       0.09457610      -0.05417486      -0.14798390
Pt       7.80079167       4.43068246       0.06282961        1       0.00000000       0.00912727      -0.03265912      -0.01914290
Ni      10.32995536       4.40310080       0.01960250        0       1.00000000      -0.00238681      -0.10653444       0.16635068
Ni       3.81497701       6.67518220       0.12198565        1       1.00000000      -0.03459775       0.09084894      -0.06823128
Pt       6.40766562       6.69479890       0.13259944        1       0.00000000      -0.04444690       0.01267131      -0.55306550
Ni       9.02996216       6.65420535       0.01583216        0       1.00000000      -0.09684607      -0.02202183       0.11648365
Ni      11.60537785       6.64043882       0.00000000        0       1.00000000       0.11007257       0.00346706       0.16780316
Ni       1.29797663       0.74461200       2.15362373        5       1.00000000      -0.00171387       0.10844126      -0.00624262
Ni       3.85729872       0.74247288       2.18195810        5       1.00000000       0.03699196       0.06718694       0.16216186
Ni       6.44367943       0.72402566       2.22286668        5       1.00000000       0.00151621       0.10575429       0.23337030
Pt       9.02508737       0.73791823       2.15578974        5       0.00000000      -0.06005678       0.04109872       0.08632249
Ni       2.55651349       2.91781812       2.17586670        5       1.00000000      -0.05667910      -0.04685395       0.08329647
Ni       5.14160541       2.91730394       2.20846349        5       1.00000000      -0.10626186      -0.11156930       0.18390754
Ni       7.75651599       2.94890813       2.20920663        5       1.00000000       0.11612558       0.07332320       0.16635721
Ni      10.30283616       2.91360245       2.15545832        5       1.00000000       0.03721299      -0.01951841       0.04120803
Pt       3.90164148       5.16079963       2.18217067        5       0.00000000       0.02302347      -0.11865204       0.05925037
Ni       6.45850736       5.15924152       2.19139318        5       1.00000000       0.07578367       0.02486646       0.17527371
Ni       8.98693826       5.13113675       2.18828882        5       1.00000000      -0.08478863      -0.09675726       0.18782937
Pt      11.58191846       5.10498975       2.08947656        4       0.00000000       0.01132200      -0.09289659      -0.02242379
Ni       5.12979856       7.39474730       2.14408976        4       1.00000000      -0.05873750       0.00356716       0.06503072
Ni       7.71499843       7.38108720       2.14267732        4       1.00000000       0.03651533      -0.05736090       0.03825394
Pt      10.27400122       7.39451763       2.04934647        3       0.00000000      -0.02687282      -0.09143033      -0.07888403
Ni      12.88226326       7.37416975       2.10012752        4       1.00000000      -0.01380192       0.04083566      -0.00431169
Ni      -0.02615226       1.49096989       4.33120909        7       1.00000000      -0.01367364      -0.01900845      -0.24602078
Pt       2.60320164       1.50390026       4.29277276        7       0.00000000      -0.01735026      -0.01038393      -0.11400646
Ni       5.15279994       1.47613531       4.30403603        7       1.00000000       0.04123108       0.10302842      -0.33000473
Ni       7.75472562       1.46530489       4.30941041        7       1.00000000       0.07496984       0.06159537      -0.28237600
Pt       1.26645599       3.66969258       4.37866412        8       0.00000000      -0.04950431      -0.04222978      -0.05894681
Ni       3.86523903       3.69078375       4.32370012        7       1.00000000       0.07914691       0.03878638      -0.18290144
Pt       6.45718443       3.68269251       4.22617837        6       0.00000000      -0.04319910       0.01395183      -0.03862490
Ni       8.99988004       3.63834944       4.30281834        7       1.00000000      -0.03227548      -0.11415749      -0.33741472
Ni       2.56875172       5.86707000       4.33123531        7       1.00000000       0.02377668      -0.07474346      -0.11624726
Ni       5.12615937       5.86233042       4.29508650        7       1.00000000       0.00797183      -0.01376693      -0.21362547
Ni       7.72514797       5.84131949       4.28014697        7       1.00000000      -0.04360420      -0.02839641      -0.31829893
Pt      10.25704120       5.83046627       4.37797463        8       0.00000000       0.00529219       0.03626450      -0.06811838
Pt       3.83506745       8.11295113       4.26212611        7       0.00000000       0.01001765       0.00353635       0.01775856
Pt       6.40216107       8.08905804       4.18323685        6       0.00000000      -0.02993645       0.03545647      -0.15711873
Pt       8.98875678       8.10023734       4.25820909        7       0.00000000      -0.07652052       0.01678045      -0.04204825
Pt      11.61517013       8.13453392       4.28009847        7       0.00000000       0.02998644       0.07986171      -0.04449896
Pt      -0.02071432       0.01304947       6.57717482       11       0.00000000       0.12019302       0.05471786       0.25413002
Pt       2.59310918       0.01517626       6.60173083       11       0.00000000       0.04027756       0.02036074       0.36987977
Pt       5.19163589      -0.10935192       6.58304727       11       0.00000000      -0.06459936       0.07414973       0.45520310
Ni       7.73303240      -0.05899796       6.52293670       10       1.00000000       0.02298384       0.12359044      -0.03200764
Ni       1.29474562       2.24424794       6.51489373       10       1.00000000      -0.00234838      -0.00011346      -0.13018680
Ni       3.83162391       2.21194527       6.42919877        9       1.00000000       0.03652194      -0.08325189       0.11375595
Pt       6.45324012       2.15616627       6.42299876        9       0.00000000      -0.01576388      -0.03885136       0.50146059
Pt       9.06101505       2.25328943       6.47723926       10       0.00000000       0.04950780       0.13811571      -0.00242995
Ni       2.51427177       4.38689926       6.49287076       10       1.00000000      -0.04892114       0.02295164      -0.14301800
Pt       5.07196212       4.36284646       6.48661516       10       0.00000000      -0.06438296       0.07306396       0.15674280
Ni       7.77182693       4.41377414       6.40012408        9       1.00000000       0.07319137       0.04287820      -0.01390717
Ni      10.31773296       4.41370950       6.50272710       10       1.00000000       0.01500959       0.05134634      -0.09873948
Pt       3.73337353       6.61001833       6.50604249       10       0.00000000       0.14246991      -0.15953822       0.08392465
Pt       6.48505310       6.56637943       6.40607050        9       0.00000000      -0.13754655      -0.03900403       0.51488553
Ni       9.02977561       6.56147310       6.48413064       10       1.00000000      -0.06767606      -0.01297980      -0.01111821
Ni      11.56965481       6.56377951       6.48403910       10       1.00000000      -0.05411129      -0.14810444      -0.09052316
