64
Lattice="10.69958976411966 -0.00024501613960843194 0.003594253959143325 5.349582691858587 9.275789271973784 0.014581284053391956 0.0029346960686264753 0.012053018878203068 9.307682034951824" Properties=species:S:1:pos:R:3:tags:I:1:initial_magmoms:R:1:forces:R:3 unique_id=95ee1a30a1ef4e849b5418a04779eb67 stress="-0.004177706037344853 -1.155254157507279e-05 -4.095121659063859e-06 -1.155254157507279e-05 -0.00420418970733441 7.862462976996134e-06 -4.095121659063859e-06 7.862462976996134e-06 -0.0031845326462423967" energy=-425.71832437723026 pbc="T T T"
Ni       0.00365125       0.01923277       0.10598897        4       1.00000000      -0.00955711       0.03618958       0.19682392
Pt       2.61454780       0.04163139       0.01483039        4       0.00000000      -0.07453949       0.03050988      -0.16014671
Pt       5.35607308       0.03222883       0.09857288        4       0.00000000      -0.01652266       0.02953085       0.02843038
Pt       8.05155292       0.03515267       0.09227580        4       0.00000000       0.02934214       0.04831153       0.00848591
Ni       1.32392882       2.32023938       0.12196441        4       1.00000000      -0.00406165       0.01809606       0.19241733
Pt       3.98639716       2.32527890       0.11978649        4       0.00000000      -0.05678378      -0.00795758       0.01636800
Ni       6.69503309       2.32331921       0.11548801        4       1.00000000       0.04250956       0.00295666       0.23566464
Pt       9.43080084       2.32214614       0.02418764        4       0.00000000       0.15948052      -0.00235774      -0.15178372
Pt       2.62087291       4.58350855       0.12133945        4       0.00000000      -0.06976783      -0.05542460      -0.00350764
Pt       5.35840711       4.61007068       0.01923576        4       0.00000000      -0.00394252      -0.02195166      -0.13316608
Pt       8.04888983       4.59381432       0.09750610        4       0.00000000       0.03571094      -0.06487250      -0.00655870
Ni      10.70425082       4.61692683       0.11894203        4       1.00000000       0.00036872      -0.02045941       0.15819713
Pt       4.02075552       6.97286725       0.01807920        4       0.00000000      -0.01977101      -0.02799262      -0.12183249
Pt       6.67656974       6.98250266       0.09829200        4       0.00000000       0.00304866      -0.00454767       0.01858231
Pt       9.37029766       6.93920487       0.10901306        4       0.00000000       0.00063926       0.01934312       0.03990017
Pt      12.03370668       6.93246118       0.10924895        4       0.00000000       0.00201207       0.02005009       0.01987518
Pt       1.34429263       0.82342898       2.29173824        3       0.00000000       0.01797594       0.00299902       0.00971956
Pt       3.98275640       0.80951150       2.36368017        3       0.00000000      -0.01580200       0.01777597       0.03272885
Pt       6.69315968       0.78455793       2.35787397        3       0.00000000       0.02835317       0.00291057       0.05159932
Pt       9.38720899       0.78759538       2.32932481        3       0.00000000       0.02897257       0.01963469       0.02053350
Ni       2.66798645       3.08935225       2.32608864        3       1.00000000       0.00493412      -0.00776490       0.03638844
Pt       5.33317765       3.09369011       2.33642987        3       0.00000000       0.01874763       0.01691736      -0.01452247
Pt       8.03953853       3.08199970       2.35980784        3       0.00000000       0.04615252      -0.01173970       0.04422589
Pt      10.73724868       3.09830917       2.31250933        3       0.00000000       0.01560564       0.00598355      -0.00526574
Pt       3.99664910       5.38689892       2.36403876        3       0.00000000       0.00408851       0.01338451      -0.02055369
Pt       6.67890384       5.40994621       2.36146042        3       0.00000000      -0.02112635       0.00581755      -0.01320003
Pt       9.38096816       5.38193343       2.36540140        3       0.00000000       0.00188737      -0.01491581       0.04735622
Pt      12.04221707       5.37105880       2.34237326        3       0.00000000       0.01939840       0.01339172       0.02877577
Pt       5.34170965       7.75092103       2.34005707        3       0.00000000      -0.02205008      -0.00726556       0.02807412
Pt       8.02707770       7.74629702       2.37672874        3       0.00000000       0.00767624       0.03049859       0.02952265
Pt      10.71547047       7.73935768       2.40459467        3       0.00000000       0.00762328       0.01459598       0.08697304
Pt      13.36761066       7.73327496       2.39957430        3       0.00000000       0.01597371       0.01328916       0.03527541
Pt      -0.03293086       1.58861295       4.66514911        2       0.00000000       0.00042227       0.03808140       0.02562388
Pt       2.66225053       1.56058459       4.63884573        2       0.00000000      -0.04487487       0.02686775      -0.02045805
Pt       5.38539239       1.52767380       4.62379320        2       0.00000000       0.03741734      -0.01384427      -0.01082153
Pt       8.04131944       1.57301378       4.66396008        2       0.00000000       0.00916524       0.04392574       0.01032960
Pt       1.31167677       3.86469812       4.60864236        2       0.00000000      -0.01633291      -0.00901422      -0.01749719
Pt       4.00941674       3.86562478       4.63752818        2       0.00000000      -0.03413771      -0.04226347      -0.07879909
Pt       6.70618699       3.86329065       4.64880226        2       0.00000000      -0.02697944      -0.02207795      -0.04502988
Ni       9.36702715       3.86398711       4.66389852        2       1.00000000       0.02784746      -0.00435945      -0.02107469
Pt       2.66621322       6.22057018       4.66040999        2       0.00000000      -0.02393583       0.00656076      -0.03033269
Pt       5.33395835       6.18050259       4.69763226        2       0.00000000      -0.02320187      -0.01338305      -0.05182885
Pt       8.04359396       6.15738027       4.63571596        2       0.00000000      -0.00986543      -0.01651037      -0.04346115
Pt      10.70274862       6.17512697       4.63887186        2       0.00000000      -0.01779239      -0.05146967       0.01726358
Pt       3.99421687       8.51014746       4.66784857        2       0.00000000       0.02152751       0.04258698      -0.01662673
Pt       6.68912063       8.52747712       4.66903320        2       0.00000000      -0.03018154       0.03942244      -0.02716138
Pt       9.38173750       8.51334947       4.66183717        2       0.00000000      -0.01777725       0.00937100      -0.00748338
Ni      12.03934376       8.51032670       4.66869494        2       1.00000000       0.00998433       0.01783920      -0.00175619
Pt       0.00093058       0.00898400       6.96524844        1       0.00000000       0.00152043      -0.02162705       0.12694442
Ni       2.66791190       0.00945519       6.87239977        1       1.00000000      -0.02411299      -0.00907965      -0.23612392
Pt       5.34151218       0.01114934       6.86764680        1       0.00000000       0.00736922      -0.00294980       0.00916140
Pt       8.04944973       0.01280259       6.86649289        1       0.00000000      -0.00094695       0.01573505      -0.00629582
Pt       1.32391565       2.30228702       6.97634324        1       0.00000000       0.03065165      -0.02346109       0.13274070
Pt       4.01456475       2.32881744       6.89332321        1       0.00000000       0.00803821      -0.00020529      -0.00559426
Pt       6.70143171       2.35038377       6.96960625        1       0.00000000      -0.01707629       0.01351278       0.15025993
Ni       9.36641351       2.32971698       6.87711790        1       1.00000000      -0.00548237       0.00047921      -0.21432098
Pt       2.72079605       4.66903196       6.89290160        1       0.00000000       0.03861055       0.01277486      -0.01313853
Ni       5.34995426       4.65318735       6.87527134        1       1.00000000       0.00159441      -0.01364151      -0.22066871
Pt       8.02542108       4.61222065       6.87172727        1       0.00000000       0.01276204      -0.02463869      -0.03656260
Pt      10.68010870       4.60306357       6.95236261        1       0.00000000       0.01753636      -0.04777563       0.08005094
Ni       4.02226562       6.96112424       6.87398178        1       1.00000000       0.00134923      -0.00084094      -0.20920333
Pt       6.64541035       6.95842778       6.89093902        1       0.00000000      -0.04503060      -0.04961429       0.00322230
Pt       9.34037082       6.98059181       6.89226719        1       0.00000000      -0.04645029      -0.01475056       0.01741990
Pt      12.06546259       6.97316277       6.87418154        1       0.00000000      -0.01819407      -0.00058691       0.00584182
