64
Lattice="10.293811757341228 -0.022789052074801655 0.05456731575095513 5.127169980645669 8.859483817929638 0.027306392429694393 0.0 0.0 21.577509111672303" Properties=species:S:1:pos:R:3:tags:I:1:initial_magmoms:R:1:forces:R:3 unique_id=68d8527036aa470aba75e3f72b6adc3e energy=-375.2555940466939 stress="0.005720135431855362 9.708236431466077e-05 0.0004226842539082071 9.708236431466077e-05 0.005688659728370457 0.00014032096233184484 0.0004226842539082071 0.00014032096233184484 -0.0012997996758596572" pbc="T T T"
Ni       0.01488748       0.00216084       0.11771094        1       1.00000000       0.10956492       0.05656391      -0.08769223
Ni       2.54873370       0.01100682       0.15074867        2       1.00000000      -0.06075111       0.08517326       0.03659978
Pt       5.14201734      -0.06415044       0.10874066        1       0.00000000      -0.00266582       0.16525737      -0.85020510
Ni       7.74809111      -0.06914348       0.16502419        2       1.00000000      -0.05032283      -0.04848685      -0.19970303
Ni       1.28529056       2.22261442       0.05441459        1       1.00000000      -0.02078954       0.01997110       0.41242440
Pt       3.75089928       2.21139557       0.14127566        1       0.00000000       0.08440860       0.03502769      -0.31323884
Pt       6.45819359       2.18035051       0.08276763        1       0.00000000       0.06525440      -0.04317219      -0.10999119
Pt       9.10869127       2.19997977       0.10633513        1       0.00000000       0.06505973       0.08526061      -0.49001149
Ni       2.51409161       4.45733742       0.01163380        0       1.00000000      -0.01984101      -0.02938002       0.22782521
Pt       5.09346008       4.47050557       0.00000000        0       0.00000000       0.11319207       0.06269492      -0.29927346
Pt       7.79602667       4.47888654       0.07691803        1       0.00000000      -0.02358469       0.04328652      -0.05458484
Ni      10.34059155       4.44191148       0.06307607        1       1.00000000       0.08432445      -0.00454121       0.25046081
Ni       3.79565802       6.68598629       0.04791148        0       1.00000000       0.01270472       0.09817156       0.27390733
Pt       6.42442624       6.73946873       0.16929348        2       0.00000000      -0.04664060       0.00079234      -0.49889226
Ni       9.02485655       6.62860878       0.06786995        1       1.00000000       0.03121439       0.03308296       0.13808456
Ni      11.59546337       6.59730411       0.07008107        1       1.00000000       0.04662900       0.04979154       0.31324131
Ni       1.32804245       0.74830604       2.18118476        3       1.00000000       0.06034963       0.07175149       0.23801847
Ni       3.82811903       0.75601800       2.22431300        3       1.00000000      -0.08310322       0.09996183       0.31731911
Ni       6.44131749       0.75672111       2.23298017        3       1.00000000      -0.04835062       0.15230647       0.28909222
Pt       9.03416651       0.72676401       2.23815920        3       0.00000000       0.02266096       0.19462347      -0.00120654
Ni       2.54171776       2.90553747       2.23677069        3       1.00000000      -0.08532484      -0.16953581       0.31398845
Ni       5.15348276       2.91353458       2.23541907        3       1.00000000      -0.02475655      -0.08871538       0.18439047
Ni       7.73581486       2.95863186       2.24418137        3       1.00000000       0.08717589       0.00959714       0.13512815
Ni      10.31710460       2.92621281       2.26256127        4       1.00000000       0.00526592      -0.12849897       0.26096867
Pt       3.84820239       5.16082109       2.19927254        3       0.00000000       0.03264963      -0.11712285      -0.13228150
Ni       6.47618997       5.15911211       2.21982792        3       1.00000000       0.07549539      -0.06926708       0.12057978
Ni       8.97681572       5.12726515       2.25318249        4       1.00000000      -0.13801192      -0.22106056       0.26148891
Pt      11.54501942       5.07421523       2.23032033        3       0.00000000      -0.07224252      -0.21504439       0.13871897
Ni       5.16476870       7.40500102       2.19991611        3       1.00000000       0.06590333       0.03261961       0.19688748
Ni       7.68843452       7.38800381       2.22627480        3       1.00000000      -0.11607849       0.02100067       0.22142183
Pt      10.24624835       7.31058811       2.21722096        3       0.00000000      -0.10962021      -0.14580950      -0.19927491
Ni      12.86906282       7.36036668       2.18580646        3       1.00000000      -0.03325178      -0.02537551       0.02038648
Ni       0.07739797       1.53412733       4.28835475        5       1.00000000       0.18790501       0.09293922      -0.19143995
Ni       2.55275079       1.51497835       4.28115015        5       1.00000000      -0.08807020       0.04550165      -0.23118671
Ni       5.15175073       1.49111783       4.29565130        5       1.00000000      -0.10905346      -0.04440845      -0.39626089
Ni       7.74054649       1.48477721       4.33597866        5       1.00000000       0.01994712      -0.08646420      -0.27451576
Ni       1.29426957       3.68045677       4.35413826        6       1.00000000      -0.02950626      -0.07510277      -0.00744430
Ni       3.82340628       3.67829871       4.30628367        5       1.00000000      -0.16586692      -0.10549617      -0.26470821
Pt       6.48817540       3.63561689       4.32367987        5       0.00000000       0.03951892      -0.02917293      -0.16251671
Ni       9.06216610       3.71345687       4.31975711        5       1.00000000       0.17025573       0.01466689      -0.32382407
Ni       2.54692282       5.84869797       4.38414483        6       1.00000000      -0.09110654      -0.18603827       0.02240110
Pt       5.15791002       5.87240556       4.32116385        5       0.00000000       0.12233366      -0.06070586      -0.00623975
Ni       7.77503923       5.85913411       4.32938802        5       1.00000000       0.06394003      -0.11472723      -0.29080470
Ni      10.29164108       5.82455091       4.42186123        6       1.00000000      -0.01593429      -0.07842852       0.01881205
Pt       3.90126391       8.12499667       4.31106626        5       0.00000000       0.03863234       0.03696066       0.05824433
Ni       6.44165903       8.14952847       4.29528509        5       1.00000000      -0.08078285       0.12318072      -0.30102574
Pt       8.92290937       8.09979153       4.31369701        5       0.00000000      -0.12406853       0.05403440       0.09768893
Pt      11.59985776       8.07401044       4.31398432        5       0.00000000      -0.03057077      -0.09097281      -0.01349414
Pt       0.03883635       0.01346411       6.50410300        8       0.00000000       0.08499228       0.04999458       0.29201501
Pt       2.59204742       0.01762936       6.51632366        8       0.00000000      -0.04861912       0.09158788       0.27205398
Pt       5.17348712      -0.03877590       6.44813644        7       0.00000000      -0.00224867       0.19270141       0.95206066
Pt       7.73976580      -0.05579466       6.57750911        9       0.00000000      -0.08377471       0.16833014       0.35841258
Ni       1.31030171       2.28560420       6.44617142        7       1.00000000      -0.02517955       0.21622848      -0.36482364
Pt       3.86668810       2.31401126       6.38859796        7       0.00000000      -0.00696240       0.00788358       0.28315278
Ni       6.46139856       2.23560660       6.42829317        7       1.00000000      -0.01508305      -0.04898759       0.12618784
Pt       9.04599114       2.30134704       6.39481120        7       0.00000000       0.00663988       0.01107325       0.40204415
Ni       2.55364453       4.46420144       6.45574105        8       1.00000000      -0.06207713      -0.01271092      -0.43446834
Ni       5.15380052       4.41734715       6.41235067        7       1.00000000      -0.02867551      -0.01482218       0.20336729
Ni       7.76437477       4.42450179       6.42443902        7       1.00000000       0.11753140       0.04364344      -0.06647526
Ni      10.34591358       4.45147306       6.49337136        8       1.00000000       0.03586871       0.00835838      -0.48136808
Ni       3.83521065       6.57665923       6.49847551        8       1.00000000      -0.05388355      -0.14032254      -0.22807186
Pt       6.48272524       6.55403428       6.46193772        8       0.00000000       0.11588378       0.07575317       0.50531783
Ni       9.05744869       6.55422001       6.50342800        8       1.00000000       0.06147845      -0.14880162      -0.31876915
Ni      11.59635174       6.54632747       6.52864458        8       1.00000000      -0.02998106      -0.00659994      -0.34889826
