64
Lattice="10.454024373884613 0.03746647494294005 -0.09883949696930569 5.259459106033142 9.081109617421196 -0.010207927582840223 -0.08070211133605469 0.03696925928312559 8.98931275570033" Properties=species:S:1:pos:R:3:tags:I:1:initial_magmoms:R:1:forces:R:3 unique_id=01c19359ae5743e1bcb90b6b7fb6ada1 stress="-0.004469015556936545 -5.1361937991863155e-05 7.346983513579548e-05 -5.1361937991863155e-05 -0.004498081193951606 -1.214844122113504e-05 7.346983513579548e-05 -1.214844122113504e-05 -0.0038031564096114023" energy=-409.7791922412754 pbc="T T T"
Pt       0.02895861      -0.01877696       0.02562622        4       0.00000000      -0.02593645       0.04651217      -0.12801820
Ni       2.60715607       0.01316454       0.02464503        4       1.00000000      -0.08808685      -0.04555525       0.07665235
Pt       5.15827737       0.02882021      -0.05136333        4       0.00000000      -0.11056342       0.03311158      -0.15771215
Pt       7.81593528      -0.05932319       0.05337283        4       0.00000000      -0.06830625      -0.02646383       0.02108243
Pt       1.38902430       2.23633505       0.14085371        4       0.00000000       0.04368122       0.01461833       0.10211890
Ni       3.91862047       2.29204980       0.04123040        4       1.00000000      -0.02718911       0.11050301       0.12224176
Pt       6.48664528       2.31216406      -0.03006763        4       0.00000000      -0.08796890      -0.03936186      -0.10093241
Pt       9.12453829       2.33084176      -0.06451042        4       0.00000000      -0.04532643       0.01868291      -0.24059200
Pt       2.63802867       4.62114727       0.15397146        4       0.00000000      -0.07601911       0.12307860       0.01143109
Pt       5.22196568       4.55875827       0.07610801        4       0.00000000      -0.06439790       0.00280954       0.00149125
Ni       7.84090799       4.58094099       0.09155462        4       1.00000000      -0.04058709       0.07864112       0.21743876
Pt      10.45654249       4.62339450       0.07205207        4       0.00000000      -0.07698542       0.04003081       0.03489520
Ni       3.91812092       6.80362709       0.15582287        4       1.00000000      -0.07058478      -0.00618303       0.21903950
Pt       6.55331621       6.79458516      -0.00864774        4       0.00000000      -0.06640623      -0.00615658      -0.12293028
Pt       9.15037965       6.84095800      -0.02860424        4       0.00000000      -0.05454835       0.03089363      -0.15067590
Ni      11.79085914       6.84273025       0.07399598        4       1.00000000      -0.09946309       0.04776790       0.17440725
Ni       1.29423265       0.75129501       2.27751861        3       1.00000000       0.00718340      -0.07547062       0.13520986
Pt       3.87526443       0.78135450       2.21057567        3       0.00000000      -0.01796411      -0.04288628      -0.00936846
Pt       6.52192206       0.78135318       2.29270654        3       0.00000000       0.02777011      -0.01356205       0.03628921
Pt       9.16032793       0.81076769       2.23899244        3       0.00000000       0.05350635       0.04594523      -0.02939338
Pt       2.67954562       3.10812214       2.30877883        3       0.00000000       0.08575030       0.07757138       0.12856823
Ni       5.21156920       3.08916924       2.24449145        3       1.00000000       0.03946500       0.03397281       0.10012228
Pt       7.79963195       3.15085056       2.23507969        3       0.00000000      -0.01439478      -0.00163109      -0.08410636
Pt      10.44305525       3.10072559       2.24449480        3       0.00000000       0.03707467       0.02413972       0.02524830
Ni       3.93099943       5.31171461       2.27019772        3       1.00000000       0.08472844      -0.01110757       0.14687007
Ni       6.52454124       5.30808256       2.23172997        3       1.00000000      -0.03753864       0.02374487       0.07342602
Ni       9.13363003       5.33683915       2.25775852        3       1.00000000       0.00121026       0.00248665       0.19818647
Ni      11.77259816       5.36624315       2.17952161        3       1.00000000      -0.02035332      -0.01253697       0.05514784
Pt       5.19411896       7.51174926       2.24210697        3       0.00000000       0.02383776       0.03601388       0.01420576
Pt       7.84934493       7.53408007       2.29462828        3       0.00000000       0.01138901      -0.09633222       0.05068376
Pt      10.50828529       7.51476067       2.28823212        3       0.00000000      -0.01397546       0.00069447       0.04412592
Ni      13.06697099       7.54803233       2.15659728        3       1.00000000       0.00265932      -0.05911413       0.00804199
Ni      -0.07083471       1.54193357       4.50643413        2       1.00000000      -0.02242081       0.03533985      -0.02739743
Pt       2.60333610       1.51335470       4.47387861        2       0.00000000       0.01145201      -0.01077952      -0.00883603
Pt       5.21953194       1.51544186       4.50711353        2       0.00000000       0.02527004      -0.02391398      -0.07191882
Ni       7.83507726       1.59396271       4.42599858        2       1.00000000       0.09804876       0.10607735      -0.07711605
Pt       1.23466297       3.82797071       4.45966149        2       0.00000000      -0.00586890       0.01993051       0.05021415
Ni       3.92241193       3.80010024       4.45770799        2       1.00000000       0.07859184      -0.02659485       0.01351231
Pt       6.52923442       3.80213110       4.42441126        2       0.00000000       0.03578682      -0.00223190      -0.03298468
Ni       9.09998623       3.83505641       4.39882415        2       1.00000000      -0.04009400       0.06501669      -0.05762067
Pt       2.54871571       6.09599929       4.36897186        2       0.00000000      -0.05085438       0.04329970       0.01787211
Pt       5.23728663       6.02811018       4.45162607        2       0.00000000      -0.01276353       0.00530073       0.03586052
Ni       7.88103151       6.07794895       4.43219554        2       1.00000000       0.09049156      -0.11119364      -0.02720647
Ni      10.37134356       6.12238205       4.39199620        2       1.00000000      -0.13055575      -0.02595205       0.01859165
Pt       3.88626066       8.38679759       4.47807442        2       0.00000000      -0.03202570      -0.02651988      -0.00675519
Pt       6.57636052       8.33936287       4.52008238        2       0.00000000       0.02908766      -0.03763122      -0.03376410
Ni       9.16659270       8.31178798       4.47134817        2       1.00000000       0.06566425      -0.06783545      -0.01593264
Ni      11.71250083       8.36031287       4.40404518        2       1.00000000      -0.04224874      -0.03383671       0.02208176
Ni      -0.03335164       0.02495484       6.58822845        1       1.00000000       0.02622753      -0.03092909      -0.17424424
Ni       2.59865549       0.00129896       6.64051029        1       1.00000000       0.19361198      -0.10742307      -0.05959103
Ni       5.12036249       0.04634956       6.52957342        1       1.00000000      -0.11925112      -0.08471814      -0.18572252
Pt       7.75445699       0.14914625       6.51204015        1       0.00000000      -0.06396838       0.08289795       0.01469316
Pt       1.24381683       2.18689870       6.61693589        1       0.00000000       0.02709005      -0.10632789       0.12840916
Ni       3.91427397       2.26677212       6.64418240        1       1.00000000       0.12433175      -0.13220113      -0.03679886
Ni       6.47805540       2.32775196       6.53960817        1       1.00000000       0.05560452       0.09694790      -0.12602870
Ni       9.08565886       2.31640208       6.47314729        1       1.00000000      -0.01567600       0.06287809      -0.33011120
Pt       2.65452207       4.51176178       6.61024720        1       0.00000000       0.11740169      -0.06269115       0.04245595
Ni       5.20723565       4.53600073       6.58092006        1       1.00000000       0.03868684      -0.13161754      -0.08859251
Pt       7.75563088       4.60908129       6.61824425        1       0.00000000      -0.00712734       0.04324616       0.15302157
Pt      10.36244893       4.60477636       6.50511396        1       0.00000000      -0.00728865       0.02876701       0.05510441
Pt       3.96943690       6.84464590       6.71515632        1       0.00000000       0.08607138       0.00839360       0.17655179
Ni       6.54550497       6.85674023       6.56664241        1       1.00000000       0.16442093      -0.00460718      -0.15446219
Ni       9.08574381       6.89672559       6.49993500        1       1.00000000      -0.05888746       0.06283386      -0.25635558
Pt      11.66332487       6.91901097       6.57323105        1       0.00000000       0.02953101       0.01121778       0.06987532
