64
Lattice="10.31085005862741 0.005017046688568363 0.020313169120946772 5.159769919197975 8.923028106945429 0.013156826528894584 0.016585633135059747 0.002828655254761518 8.798324447434599" Properties=species:S:1:pos:R:3:tags:I:1:initial_magmoms:R:1:forces:R:3 unique_id=b97e8ccedc4345d9878569b907fe1553 stress="0.00023101754586911383 5.245855102557254e-06 -2.2155655580941303e-05 5.245855102557254e-06 0.0002321975764196238 -3.985344464118142e-08 -2.2155655580941303e-05 -3.985344464118142e-08 0.00022899654821868093" energy=-398.03817940154147 pbc="T T T"
Ni      -0.01615862       0.02570436       0.20439588        4       1.00000000      -0.08185318       0.08302365       0.30437074
Ni       2.57931981       0.00577301       0.21529154        4       1.00000000       0.03705288       0.00597854       0.38419971
Ni       5.16059866      -0.00856297       0.17724746        4       1.00000000       0.00356302       0.15785294       0.28317857
Ni       7.75827320      -0.03257390       0.13196640        4       1.00000000       0.08239706      -0.12423255       0.21626182
Ni       1.27295548       2.22566094       0.09420209        4       1.00000000      -0.05569870      -0.03501997       0.13309136
Pt       3.81196093       2.24057442       0.20355444        4       0.00000000      -0.04791800       0.05187861       0.19383811
Pt       6.47750072       2.17525353       0.21187042        4       0.00000000       0.04785430      -0.05612827       0.21945187
Ni       9.04841432       2.19693129       0.16685606        4       1.00000000      -0.00853245      -0.18054009       0.12236256
Ni       2.58153648       4.48169416       0.08641831        4       1.00000000       0.09153669       0.05948122       0.06847356
Ni       5.13090083       4.47781079       0.20901343        4       1.00000000       0.01733821      -0.00696365       0.33793846
Pt       7.80945324       4.47389353       0.12440285        4       0.00000000       0.15327669      -0.01932940      -0.09431281
Ni      10.34984988       4.47484868       0.08094165        4       1.00000000       0.15063027       0.02977680       0.04734823
Ni       3.84091851       6.69839231       0.20997676        4       1.00000000      -0.04510554      -0.00939466       0.28387611
Pt       6.42616772       6.74289904       0.21691823        4       0.00000000      -0.04991984       0.05360369       0.09023496
Ni       9.05276746       6.70882902       0.09714751        4       1.00000000       0.00918099       0.03621721       0.00788323
Ni      11.62597357       6.70433943       0.08678870        4       1.00000000       0.14878268       0.07088000      -0.05560344
Ni       1.28967006       0.73381916       2.15956231        3       1.00000000      -0.05760587       0.03182341      -0.12466256
Ni       3.86955204       0.75139954       2.21865652        3       1.00000000       0.10316389       0.01194560       0.03212925
Ni       6.47420714       0.75109884       2.26026972        3       1.00000000       0.07697092       0.03641172       0.15785058
Ni       9.00275048       0.73333037       2.19703059        3       1.00000000      -0.12478257       0.03515440      -0.06193126
Ni       2.59468891       2.98944308       2.22834620        3       1.00000000      -0.00690867       0.14741695      -0.03852014
Ni       5.14458682       2.98678104       2.25855772        3       1.00000000      -0.10936825      -0.06162967       0.03235101
Ni       7.74565717       2.96074371       2.25305048        3       1.00000000       0.10526202      -0.09367945      -0.06497698
Pt      10.28174210       2.92817685       2.21056266        3       0.00000000       0.01268163       0.03981075       0.01411372
Ni       3.88837257       5.19621791       2.18735730        3       1.00000000      -0.02200589      -0.07272011      -0.07914090
Ni       6.45572698       5.19444115       2.22507405        3       1.00000000       0.11027204       0.00565360      -0.11780809
Ni       9.00266917       5.21437009       2.26891235        3       1.00000000       0.00887319      -0.01716128       0.15648210
Pt      11.66438719       5.22097265       2.19194117        3       0.00000000       0.02918921       0.02323425      -0.01296879
Ni       5.12243477       7.45630256       2.19518789        3       1.00000000      -0.14508028       0.04406944      -0.12785801
Ni       7.74248814       7.43592988       2.22295842        3       1.00000000       0.03518380      -0.11072575      -0.02373476
Pt      10.30094841       7.44979718       2.14827781        3       0.00000000       0.02959343      -0.10566477      -0.00870735
Ni      12.93008948       7.45939255       2.19356961        3       1.00000000      -0.02057158       0.02172657      -0.05620655
Ni      -0.01779746       1.52527896       4.35273117        2       1.00000000      -0.03797270       0.07130235      -0.09170025
Pt       2.58781824       1.53480429       4.25859951        2       0.00000000       0.02219760       0.02408456      -0.02726320
Ni       5.17728731       1.50260964       4.32753093        2       1.00000000       0.00431565      -0.00515525      -0.16389896
Ni       7.76914889       1.50675711       4.33229449        2       1.00000000       0.08648614       0.07487815      -0.20955769
Pt       1.26717255       3.77467708       4.44538386        2       0.00000000      -0.01232850      -0.01150585      -0.02455096
Ni       3.87098074       3.73315498       4.32950184        2       1.00000000      -0.02695914      -0.01815748      -0.19162504
Pt       6.50885362       3.69199800       4.27389101        2       0.00000000      -0.03551124      -0.06274938       0.09371365
Ni       9.03338885       3.74907030       4.38163888        2       1.00000000       0.02472609       0.07098706      -0.21428582
Ni       2.56456212       5.92946570       4.38030966        2       1.00000000      -0.03043414       0.02870239      -0.11518943
Pt       5.12023246       5.90670814       4.25772446        2       0.00000000      -0.04597571      -0.00825233       0.00157548
Ni       7.80542580       5.89937482       4.35784076        2       1.00000000       0.04624172      -0.09085355      -0.21263070
Ni      10.29900980       5.92536740       4.43248247        2       1.00000000      -0.04899157       0.00369252      -0.11622261
Pt       3.85537292       8.23784679       4.29174424        2       0.00000000      -0.01701102       0.04956451      -0.00451675
Pt       6.44617763       8.18577169       4.25901623        2       0.00000000      -0.01284365      -0.03337107      -0.01872882
Pt       9.03839615       8.12294135       4.35956477        2       0.00000000      -0.05160147      -0.00176341       0.10137036
Pt      11.63293517       8.17218374       4.36804498        2       0.00000000      -0.01943584      -0.01459546       0.00605146
Pt      -0.01956348       0.03985308       6.58476971        1       0.00000000      -0.05883443       0.01972374       0.18977221
Pt       2.59148758       0.00521708       6.61499904        1       0.00000000      -0.03125260      -0.01107939       0.21543415
Pt       5.21195076      -0.09019626       6.60564465        1       0.00000000       0.03807954      -0.22354041       0.13416864
Ni       7.73860423      -0.00009138       6.55364466        1       1.00000000       0.03661103       0.05643544      -0.12333113
Ni       1.28684695       2.28357467       6.53992465        1       1.00000000      -0.00124063       0.06606476      -0.09972915
Pt       3.82084255       2.27955074       6.48028180        1       0.00000000      -0.08442147      -0.00286297      -0.28606507
Pt       6.50015914       2.20326646       6.47589278        1       0.00000000       0.03501091      -0.01772282      -0.23722555
Pt       9.08307843       2.32826808       6.52718244        1       0.00000000       0.11063623       0.15749535       0.01361159
Ni       2.52021222       4.47577851       6.53539731        1       1.00000000      -0.15152300       0.04244431      -0.07312273
Pt       5.14915884       4.46606159       6.57951276        1       0.00000000      -0.02895035       0.02043928       0.10895667
Ni       7.80590583       4.48456733       6.45544803        1       1.00000000       0.09167939       0.04950074      -0.29718509
Ni      10.32796595       4.51712265       6.54510102        1       1.00000000      -0.03249070       0.19347336      -0.07966731
Pt       3.75019707       6.68891903       6.58875330        1       0.00000000      -0.16053290       0.00660593       0.18435767
Pt       6.52878357       6.64461042       6.49495745        1       0.00000000       0.03054620      -0.01128114      -0.27371295
Ni       9.08121275       6.61832962       6.53816429        1       1.00000000       0.06051655      -0.21949599      -0.18921251
Ni      11.57580353       6.63655801       6.55141426        1       1.00000000      -0.17618812      -0.25575767      -0.21859444
