64
Lattice="10.291899638562919 0.022920888314170086 -0.032360384527844004 5.165799890838833 8.869612911238121 -0.09340057022857498 -0.026422143324491096 -0.0728040705394589 8.782625817825362" Properties=species:S:1:pos:R:3:tags:I:1:initial_magmoms:R:1:forces:R:3 unique_id=3eb1a35ff7174ddd9b5cb92b81192c3b stress="0.00016025192724486437 -1.3863540323131867e-06 1.2777991798631242e-05 -1.3863540323131867e-06 0.00017317323114545563 2.6385636662690143e-05 1.2777991798631242e-05 2.6385636662690143e-05 0.0001672075271731896" energy=-395.9581287964677 pbc="T T T"
Ni       0.00251772       0.00914238       0.18636991        4       1.00000000       0.01957208       0.04716049       0.31177836
Ni       2.57118628      -0.00386688       0.20432235        4       1.00000000       0.03837040      -0.01123663       0.36142524
Ni       5.14901117      -0.02096240       0.06412694        4       1.00000000       0.00035864      -0.01085598       0.05331815
Ni       7.72183971      -0.01574839       0.03683778        4       1.00000000       0.01429506      -0.06952810       0.02880810
Ni       1.25742862       2.21667640       0.17167699        4       1.00000000      -0.13553216       0.02018096       0.26947094
Pt       3.81488351       2.21710492       0.16707062        4       0.00000000      -0.06262599      -0.03840547       0.24050650
Pt       6.48617405       2.21917405       0.15061303        4       0.00000000       0.06529879      -0.01240444       0.33551327
Ni       9.04305945       2.25504605       0.10449442        4       1.00000000       0.10724853       0.09583130       0.13821497
Ni       2.57516526       4.44975376       0.02933507        4       1.00000000      -0.06901398      -0.01374193       0.05436630
Ni       5.12562541       4.44912664       0.02214152        4       1.00000000      -0.08680680      -0.04177293       0.09446643
Ni       7.77792399       4.43463597       0.01790443        4       1.00000000       0.17419311      -0.05046445       0.09032002
Ni      10.28798866       4.43197576       0.00699335        4       1.00000000      -0.06125570      -0.10381004       0.03788117
Ni       3.86064058       6.62796268      -0.00476366        4       1.00000000       0.00389112      -0.13040402       0.02336180
Pt       6.44222387       6.67577727      -0.02537861        4       0.00000000      -0.04279543      -0.03067666      -0.21102004
Ni       9.02127058       6.63603385       0.06207042        4       1.00000000      -0.11690199      -0.17932938       0.16372966
Ni      11.59330809       6.65141952      -0.05734117        4       1.00000000      -0.05452232      -0.15729499      -0.14777931
Ni       1.29014660       0.73933291       2.14274423        3       1.00000000      -0.04051003       0.04338392      -0.04061563
Ni       3.85360558       0.73385409       2.19175333        3       1.00000000       0.08977520      -0.00406273       0.06776790
Ni       6.40641282       0.75894418       2.22256093        3       1.00000000      -0.01037003       0.04055625       0.16379003
Pt       9.02328162       0.81461159       2.15509560        3       0.00000000      -0.08484622      -0.00788459       0.06419578
Ni       2.54244849       2.93059234       2.16750467        3       1.00000000      -0.10780874      -0.01686940      -0.08558538
Ni       5.13543728       2.92901615       2.19906870        3       1.00000000      -0.00940483      -0.09440313       0.03086404
Ni       7.77185127       2.97071027       2.17347746        3       1.00000000       0.20305141       0.08410681       0.04126214
Ni      10.28601811       2.96175158       2.15428279        3       1.00000000      -0.00869908       0.02195687       0.13182167
Ni       3.86991593       5.12877480       2.10030163        3       1.00000000       0.01562746      -0.06876612      -0.16541435
Pt       6.46800334       5.14487917       2.11601415        3       0.00000000       0.03527541       0.08715509      -0.14645490
Ni       9.00915598       5.12992372       2.13549536        3       1.00000000       0.04933124      -0.07015335       0.07465421
Pt      11.56682983       5.08854670       2.12921295        3       0.00000000       0.01195708      -0.00508779      -0.01354543
Ni       5.16296052       7.38377565       2.09406085        3       1.00000000      -0.03584161      -0.04141856      -0.08330033
Ni       7.72519359       7.40051528       2.09549151        3       1.00000000       0.01880322      -0.03730824       0.00485748
Pt      10.27133589       7.40313454       2.04660579        3       0.00000000      -0.00337470      -0.03683453       0.02001216
Pt      12.89365168       7.37512168       2.04157760        3       0.00000000       0.04266249      -0.04969374      -0.07462964
Ni      -0.03861036       1.50189774       4.32704116        2       1.00000000      -0.05698473       0.15103447      -0.00485083
Pt       2.52089770       1.47937250       4.22010353        2       0.00000000      -0.05583816       0.07398899       0.10404123
Ni       5.17824842       1.41738260       4.28272676        2       1.00000000       0.03770976       0.01300756      -0.12264512
Ni       7.70429316       1.45086577       4.29305912        2       1.00000000      -0.04758081       0.06737724      -0.08227404
Ni       1.22235086       3.70338236       4.33094796        2       1.00000000      -0.09603729       0.01215698      -0.01935078
Pt       3.80263844       3.70730160       4.25885345        2       0.00000000      -0.11105083      -0.03504509      -0.04106793
Pt       6.51176667       3.63726647       4.27756872        2       0.00000000       0.01968844      -0.10794325       0.11859676
Ni       9.04788368       3.69952789       4.28109736        2       1.00000000       0.13070500       0.08222471      -0.16839163
Ni       2.49956865       5.87989586       4.35590693        2       1.00000000      -0.18937449       0.06875870      -0.04832105
Pt       5.11733716       5.88501834       4.33565079        2       0.00000000      -0.07429084       0.04253103      -0.15330722
Ni       7.77563438       5.84904867       4.28824725        2       1.00000000       0.19457824      -0.04118258      -0.14330167
Ni      10.32241852       5.84037882       4.29632318        2       1.00000000       0.01835520      -0.01950621      -0.10203423
Pt       3.76379488       8.12092642       4.30836930        2       0.00000000       0.02153718       0.03776430       0.09678431
Pt       6.43729736       8.08754719       4.18708747        2       0.00000000      -0.06177394       0.05965158      -0.00408642
Pt       9.08838041       8.07608377       4.24859287        2       0.00000000      -0.03942103      -0.06287047       0.05734300
Ni      11.57953464       8.10937963       4.30039951        2       1.00000000      -0.05867447      -0.03400381      -0.07326793
Pt      -0.07460980      -0.11469883       6.59614990        1       0.00000000      -0.05198851      -0.05405357       0.19996559
Pt       2.58066342      -0.07928848       6.59299625        1       0.00000000       0.04819392      -0.02321437       0.23571194
Ni       5.18675849      -0.07849766       6.49431039        1       1.00000000       0.09686179      -0.12306302      -0.12313202
Ni       7.64484999      -0.08616062       6.49516098        1       1.00000000      -0.09884085      -0.11844099      -0.09121215
Pt       1.26454133       2.27284694       6.51707267        1       0.00000000       0.07403419       0.08460196       0.17702526
Pt       3.87475874       2.22417267       6.45388723        1       0.00000000       0.00882098       0.18895880      -0.27830829
Pt       6.42662322       2.13891396       6.42558604        1       0.00000000       0.01552465      -0.01489848      -0.21266205
Pt       8.97303594       2.25435255       6.44931402        1       0.00000000       0.04044204       0.14651999      -0.00635791
Ni       2.54921547       4.47523754       6.46048970        1       1.00000000      -0.02980379       0.23456853      -0.15084223
Ni       5.13768106       4.44702808       6.47862105        1       1.00000000       0.02057575       0.10626417      -0.08770628
Ni       7.69847297       4.42725520       6.44753516        1       1.00000000      -0.08591214       0.04550913      -0.13406668
Ni      10.31237931       4.44204957       6.41603301        1       1.00000000       0.21045994       0.07702739      -0.20528468
Ni       3.80263988       6.56209044       6.45698108        1       1.00000000      -0.15004446      -0.03514859      -0.09647987
Ni       6.42677288       6.55469616       6.36712703        1       1.00000000       0.12619020      -0.04362581      -0.34955783
Pt       9.05960003       6.52085724       6.45079996        1       0.00000000       0.11507134       0.01097238       0.11357289
Ni      11.61054386       6.61909850       6.39539366        1       1.00000000       0.06946608       0.05215382      -0.23857348
