64
Lattice="10.509174365114108 -0.004349224530722391 0.04280847939088964 5.250820643626685 9.125204171564524 0.0025502039743647356 0.0 0.0 21.745790222340148" Properties=species:S:1:pos:R:3:tags:I:1:initial_magmoms:R:1:forces:R:3 unique_id=2afd8569bd4f4c7eac00254365ec6c3d stress="0.005625015095098907 -0.00011774931898122475 0.0002200860761781451 -0.00011774931898122475 0.005599283812249939 -0.00016577332687207994 0.0002200860761781451 -0.00016577332687207994 -0.0011673260330302814" energy=-387.99436381457883 pbc="T T T"
Pt      -0.10084611      -0.02434540       0.07680572        1       0.00000000      -0.29096991      -0.06452742      -0.41631534
Ni       2.65658315      -0.02956591       0.00000000        0       1.00000000       0.07000611      -0.05849034       0.42667579
Ni       5.26970089      -0.04766953       0.07533290        1       1.00000000       0.15667102      -0.02691703       0.06936396
Ni       7.87330500      -0.03972396       0.05531933        1       1.00000000      -0.14513293      -0.16995064       0.65097718
Pt       1.27031446       2.27654516       0.03202382        0       0.00000000      -0.01284496      -0.03640737      -0.85563667
Pt       3.96200644       2.21031868       0.04425308        0       0.00000000       0.14878763       0.09703166      -0.77619864
Pt       6.62305983       2.17448077       0.09010981        1       0.00000000      -0.02595760      -0.17644078      -0.02159598
Ni       9.18667033       2.27015456       0.08964071        1       1.00000000      -0.00717505      -0.12431687       0.13061042
Pt       2.58381042       4.64490552       0.02605571        0       0.00000000       0.04596920       0.03848290      -0.87928231
Pt       5.28622879       4.56781142       0.08305303        1       0.00000000       0.28165821      -0.14506572      -0.42860921
Pt       7.98333253       4.57847141       0.09579699        1       0.00000000       0.04259010       0.03261323       0.08544006
Ni      10.50011088       4.59176453       0.01561928        0       1.00000000       0.05443985       0.15026912       0.34670902
Ni       3.91365395       6.87653014       0.08089289        1       1.00000000      -0.11264357       0.09917410       0.14803736
Pt       6.61949552       6.88808489       0.13353709        1       0.00000000       0.00441682      -0.01599696      -0.14158102
Ni       9.22428026       6.85512434       0.02148193        0       1.00000000       0.08440798       0.00090216       0.53213217
Ni      11.81080234       6.87527716       0.09145877        1       1.00000000       0.12015758       0.13329375       0.12850082
Pt       1.30996132       0.66598655       2.20050012        3       0.00000000       0.05684677      -0.12970121       0.03893957
Pt       4.02028084       0.72224628       2.22716229        3       0.00000000       0.07356772      -0.01225764       0.19058327
Ni       6.61115119       0.73789903       2.24348920        3       1.00000000       0.14872086      -0.08119162       0.21706278
Ni       9.14496190       0.72869647       2.22627171        3       1.00000000      -0.27076561       0.01837092       0.11823785
Pt       2.65849944       3.05047856       2.22955701        3       0.00000000      -0.02091005       0.09422577       0.27986375
Ni       5.29893948       3.02641086       2.24999351        3       1.00000000       0.07642606      -0.01474401       0.35962618
Pt       7.82926731       3.02429132       2.34155987        4       0.00000000      -0.14440202      -0.01108451       0.23720525
Pt      10.42298283       3.06096181       2.21810281        3       0.00000000      -0.25334420       0.10297014       0.03353383
Pt       3.99816818       5.41210479       2.20808739        3       0.00000000       0.00561262       0.17969193       0.02334592
Ni       6.61997683       5.32846214       2.24679555        3       1.00000000       0.21489836      -0.00559727       0.36167274
Ni       9.17006404       5.34487869       2.26682229        4       1.00000000      -0.19573524       0.12303424       0.32786944
Pt      11.76032269       5.37106896       2.22616223        3       0.00000000      -0.16693663       0.00071623       0.16207695
Ni       5.24683855       7.59616023       2.19518921        3       1.00000000      -0.02130828       0.02272440       0.25844994
Ni       7.89995868       7.55220325       2.22404655        3       1.00000000       0.13419011      -0.19895838       0.22746271
Pt      10.50029514       7.59000704       2.14691638        2       0.00000000      -0.06933232       0.02344618       0.04970741
Ni      13.15462345       7.65236562       2.19326661        3       1.00000000      -0.00078097       0.22748716      -0.06008207
Pt      -0.08575089       1.55192468       4.37629460        6       0.00000000      -0.22784190       0.07172363      -0.31332790
Pt       2.67147661       1.47391422       4.43147098        6       0.00000000      -0.01087245      -0.08902892      -0.13278831
Ni       5.32051805       1.51863525       4.41974031        6       1.00000000       0.12124463       0.01861048      -0.44603973
Ni       7.86745794       1.53723021       4.43572138        6       1.00000000      -0.10022203       0.05810829      -0.27388806
Pt       1.22174488       3.85180153       4.43869471        6       0.00000000      -0.18666573       0.09605592      -0.09085431
Pt       4.04778975       3.74978448       4.38327548        6       0.00000000       0.14051388      -0.01633989      -0.24773333
Ni       6.63101827       3.77022007       4.43183331        6       1.00000000       0.12049394       0.00114559      -0.29788322
Ni       9.16970677       3.83176509       4.44978654        6       1.00000000      -0.16317672       0.13089503      -0.33579701
Pt       2.60503326       6.10976042       4.39532957        6       0.00000000      -0.04258458       0.08524826      -0.16868846
Pt       5.36808552       6.04599878       4.36683788        6       0.00000000       0.17794828      -0.08651243      -0.21774391
Ni       7.94449430       6.02803601       4.41567663        6       1.00000000       0.17823657      -0.20025578      -0.44139534
Ni      10.46331453       6.05487847       4.48993676        7       1.00000000      -0.16332025      -0.03843499      -0.09313651
Pt       3.92251312       8.39001198       4.33883169        5       0.00000000       0.01699452       0.01162799      -0.30139024
Pt       6.61263731       8.31411425       4.39078662        6       0.00000000      -0.01671097      -0.02015263      -0.20045545
Pt       9.22298751       8.26097041       4.47259873        7       0.00000000       0.03711775      -0.20339931      -0.08981267
Pt      11.82682506       8.43194367       4.41623470        6       0.00000000      -0.07593773       0.13528393      -0.20447709
Pt       0.01992601      -0.00906947       6.64204449        8       0.00000000       0.07619780       0.00964788       0.39343774
Ni       2.66889884      -0.03441184       6.69347503        9       1.00000000      -0.04523160       0.03086271      -0.24133718
Pt       5.24414316      -0.05531558       6.73776329        9       0.00000000      -0.02997935       0.08122438      -0.06156186
Ni       7.89365749      -0.01696839       6.70447165        9       1.00000000      -0.02963693      -0.05470990      -0.39115235
Pt       1.32087574       2.26386848       6.62784228        8       0.00000000      -0.02204829      -0.05017688       0.71486031
Pt       3.96857092       2.21849427       6.62688501        8       0.00000000       0.11827864       0.01362300       0.73578661
Pt       6.61333391       2.22132697       6.57209990        8       0.00000000      -0.06393464       0.04163910       0.19236012
Pt       9.20687259       2.28025662       6.71567457        9       0.00000000      -0.04261302       0.08726712      -0.05811046
Pt       2.60838016       4.55776114       6.62320034        8       0.00000000       0.12826624      -0.05491078       0.73801344
Pt       5.31337686       4.55023626       6.62533543        8       0.00000000       0.17941033       0.03929457       0.52653652
Pt       7.99318064       4.59503072       6.57190325        8       0.00000000      -0.09167006       0.00519887       0.05492745
Ni      10.50806743       4.57214402       6.69546955        9       1.00000000       0.00995786       0.02305763      -0.29330617
Pt       3.93120212       6.87096831       6.71723158        9       0.00000000       0.10183271      -0.04061926       0.02493892
Pt       6.68684303       6.86506269       6.64900190        8       0.00000000      -0.00110041      -0.06878313       0.24908220
Ni       9.22475486       6.82427791       6.68574059        9       1.00000000       0.07859619      -0.00603666      -0.34168319
Pt      11.76129791       6.81768031       6.74579022        9       0.00000000      -0.15267034      -0.08393994      -0.21216367
