64
Lattice="10.374222550754187 -0.004755646072981517 0.007911646570660983 5.182992765066484 8.946547850328226 -0.026206863541187647 0.006459832374453243 -0.02843765385844941 8.915721211164668" Properties=species:S:1:pos:R:3:tags:I:1:initial_magmoms:R:1:forces:R:3 unique_id=22fb1d39dce74d3cad2f0d5ba4eb963c stress="0.0004125707694360159 1.0960720905897346e-06 -1.0408770018367397e-05 1.0960720905897346e-06 0.0004105214021771428 -6.879150385519162e-06 -1.0408770018367397e-05 -6.879150385519162e-06 0.0003811961669585931" energy=-401.8226437950425 pbc="T T T"
Ni       0.01171261      -0.00621222       0.15536634        4       1.00000000       0.02211643      -0.02461480       0.26636043
Pt       2.52684561       0.01610229       0.21162062        4       0.00000000      -0.08232030       0.03479342       0.25563134
Pt       5.16163638      -0.04965605       0.11931756        4       0.00000000      -0.02004889       0.01749409       0.17750446
Pt       7.83174364      -0.11902849       0.16285419        4       0.00000000       0.03261576      -0.11690607       0.28519518
Ni       1.29588918       2.27549318       0.08847405        4       1.00000000       0.02254859       0.20487773       0.26542054
Pt       3.82228073       2.33720418       0.10530698        4       0.00000000      -0.02159548       0.12778475      -0.05554291
Pt       6.46855902       2.29732861       0.15625240        4       0.00000000       0.03040110       0.09550272       0.23267932
Pt       9.18098554       2.26199869       0.14965631        4       0.00000000       0.10082989       0.00268261       0.18523025
Ni       2.58036643       4.50026883       0.05397847        4       1.00000000       0.02202553       0.12823073       0.00268341
Ni       5.14200445       4.50018015       0.08939226        4       1.00000000      -0.12891214       0.09125087       0.27064470
Pt       7.82796309       4.52705693       0.10735876        4       0.00000000       0.09558099       0.08408684      -0.03966347
Ni      10.42032621       4.48796720       0.06752996        4       1.00000000       0.15250559       0.05529120       0.13730751
Ni       3.86928106       6.65088529       0.15616139        4       1.00000000      -0.10086382      -0.27164677       0.38571569
Pt       6.40239295       6.69560968       0.17497285        4       0.00000000      -0.13369964      -0.01973928      -0.00430100
Ni       9.09081384       6.66969301       0.13852725        4       1.00000000      -0.05170227      -0.03864056       0.27905015
Ni      11.67961420       6.64146670       0.06242021        4       1.00000000       0.04209144      -0.16957255       0.11841952
Ni       1.31067060       0.75157590       2.27360698        3       1.00000000       0.10767196       0.05682957       0.19550487
Ni       3.85663603       0.78163493       2.27159700        3       1.00000000      -0.03121325       0.15002049       0.02826385
Pt       6.44202103       0.79472751       2.31167387        3       0.00000000      -0.10630269       0.07376408      -0.10167120
Pt       9.19874353       0.72968392       2.28168553        3       0.00000000       0.05714849       0.05721066      -0.05744506
Ni       2.59545475       2.97071561       2.24623905        3       1.00000000       0.03518237       0.04079435       0.02933010
Ni       5.13795886       3.03665882       2.27217230        3       1.00000000      -0.23406562       0.19036670       0.08867510
Ni       7.80490397       3.04115506       2.26389076        3       1.00000000       0.12854621       0.15633589       0.02251131
Ni      10.40681080       2.98322626       2.28389182        3       1.00000000       0.12471778       0.01205687       0.24361851
Ni       3.92023473       5.20357264       2.23064995        3       1.00000000       0.13201967      -0.07258868       0.11809846
Ni       6.46500654       5.21658178       2.26627090        3       1.00000000      -0.08357005       0.10485561      -0.01689895
Ni       9.04707601       5.17222575       2.25287839        3       1.00000000      -0.05620108      -0.18507744       0.18730092
Pt      11.73161103       5.12854629       2.19536424        3       0.00000000       0.17093251      -0.14171307       0.03365304
Ni       5.20355020       7.40731027       2.24102874        3       1.00000000       0.08207878      -0.19117402       0.10744638
Ni       7.72647522       7.42201262       2.25570761        3       1.00000000      -0.24755542      -0.16343768       0.06519261
Pt      10.32469422       7.36334958       2.19681803        3       0.00000000       0.03072224      -0.10320153      -0.16405347
Ni      13.00449398       7.37861723       2.22514161        3       1.00000000       0.10217334      -0.25589957       0.07968654
Ni       0.04748491       1.52011404       4.40615908        2       1.00000000       0.09650889       0.12559280      -0.04794539
Pt       2.56052123       1.58176090       4.36038862        2       0.00000000       0.05504184      -0.00528811       0.00725583
Ni       5.14538770       1.52312272       4.41554501        2       1.00000000      -0.13393390       0.17255430      -0.08708662
Pt       7.82579676       1.54852596       4.39191140        2       0.00000000       0.06713539       0.07171467       0.17014939
Ni       1.30609895       3.70437485       4.44518696        2       1.00000000       0.03429004      -0.00313033      -0.03879268
Ni       3.87638312       3.74989005       4.42757266        2       1.00000000      -0.06797521       0.18872827      -0.13464988
Pt       6.43859719       3.81298711       4.34325768        2       0.00000000      -0.04909775      -0.07227127      -0.06022233
Ni       9.09374958       3.72673611       4.38916491        2       1.00000000      -0.02834679      -0.01356402      -0.30001314
Ni       2.62039193       5.87430859       4.41108465        2       1.00000000       0.07668931      -0.29035873      -0.15813702
Ni       5.17516175       5.92351313       4.36377467        2       1.00000000      -0.08719050      -0.06105679      -0.27370794
Ni       7.76340860       5.93368319       4.36851037        2       1.00000000      -0.01369384       0.01721333      -0.27457587
Pt      10.38216620       5.81730192       4.42728308        2       0.00000000      -0.02824230      -0.07260036      -0.00692239
Pt       3.98090670       8.09945960       4.33341322        2       0.00000000      -0.00344542      -0.14381685       0.15525449
Ni       6.47960019       8.16610459       4.35448923        2       1.00000000      -0.00703153      -0.02964428      -0.18897609
Pt       8.99042147       8.17223994       4.31846215        2       0.00000000      -0.07539537       0.02191018       0.05546861
Pt      11.69229881       8.11510032       4.37113837        2       0.00000000       0.10075998      -0.15502250       0.05791430
Pt       0.02251367       0.01631293       6.62180318        1       0.00000000      -0.01204799       0.00765954       0.02477543
Pt       2.58662364       0.05369826       6.58421984        1       0.00000000      -0.02832090       0.10773259      -0.10120471
Pt       5.17169999      -0.00615972       6.54964766        1       0.00000000       0.00506481       0.03369840      -0.41223503
Pt       7.78577284      -0.04692106       6.59342631        1       0.00000000      -0.03983040       0.04433981      -0.17746619
Ni       1.32705233       2.29008750       6.59187341        1       1.00000000       0.11914721       0.20677443      -0.19378324
Ni       3.86065259       2.28921232       6.53202988        1       1.00000000      -0.12999825       0.24538816      -0.28038269
Pt       6.42439433       2.31336342       6.55843479        1       0.00000000      -0.03942393       0.14345066      -0.18931189
Pt       9.16159751       2.34012989       6.54268017        1       0.00000000       0.10250324       0.19679050      -0.14439909
Ni       2.57023792       4.41586096       6.58386354        1       1.00000000      -0.11916125      -0.20469704      -0.28184134
Ni       5.14829723       4.43095633       6.59095852        1       1.00000000      -0.21669959      -0.05276520      -0.20020588
Ni       7.78685825       4.45334182       6.53185923        1       1.00000000       0.00496131       0.02823191      -0.31955668
Ni      10.44326470       4.44673282       6.60544426        1       1.00000000       0.34787591       0.02951329      -0.12468362
Pt       3.83501083       6.55722978       6.60582914        1       0.00000000      -0.11079584      -0.15258261       0.14803466
Pt       6.47656846       6.60453825       6.49238230        1       0.00000000      -0.05533823      -0.05838009      -0.18059930
Pt       9.11679544       6.59180490       6.64002383        1       0.00000000       0.03352561      -0.07366100       0.08666563
Ni      11.67570333       6.61933708       6.61377190        1       1.00000000       0.00860741      -0.18247080      -0.15036746
