64
Lattice="10.304047574004821 -0.02214441493004326 0.03145539292469929 5.132846161121049 8.870985296695045 -0.0018222860285724708 0.0 0.0 21.552691668577374" Properties=species:S:1:pos:R:3:tags:I:1:initial_magmoms:R:1:forces:R:3 unique_id=21ab8fa1111946d0a034a24bd5d9a6c4 energy=-374.6488785927902 stress="0.005314197699279536 -1.0923523467767332e-05 0.00039620323333556455 -1.0923523467767332e-05 0.0054022679722744125 5.7024995235125494e-05 0.00039620323333556455 5.7024995235125494e-05 -0.001997172676375428" pbc="T T T"
Ni      -0.01690325       0.03325666       0.15146250        2       1.00000000      -0.03208007       0.05052317      -0.02964734
Ni       2.57319029       0.00027407       0.16300283        2       1.00000000      -0.04081828       0.03261033      -0.11157786
Ni       5.15374416      -0.02539046       0.12522889        1       1.00000000       0.01722587       0.20874493      -0.40639006
Ni       7.75549627      -0.05191107       0.08286437        1       1.00000000       0.04393893      -0.00939542       0.39473146
Ni       1.24854086       2.21775621       0.05428615        1       1.00000000      -0.09212265      -0.01145054       0.43303265
Pt       3.79332242       2.21282713       0.05834909        1       0.00000000       0.04695210      -0.03306752      -0.02186838
Pt       6.47041433       2.14396307       0.15483582        2       0.00000000       0.06906851      -0.06138925      -0.49715986
Ni       9.05807719       2.17322998       0.14746042        1       1.00000000       0.04270196      -0.02742192       0.14030295
Ni       2.54516830       4.44111315       0.00000000        0       1.00000000      -0.04812828      -0.01715013       0.10035981
Ni       5.13945224       4.42856235       0.10949978        1       1.00000000       0.19084088      -0.09475807      -0.36210514
Pt       7.80021622       4.42921234       0.06620533        1       0.00000000       0.03243122      -0.06012640      -0.00621086
Ni      10.32384084       4.40471820       0.03349714        0       1.00000000       0.00545911      -0.10578358       0.19664668
Ni       3.81824077       6.68244444       0.11788503        1       1.00000000      -0.02993304       0.17572731      -0.22542649
Pt       6.40705046       6.69793271       0.14912103        1       0.00000000      -0.06232225       0.04188985      -0.63979150
Ni       9.02871057       6.65489974       0.03171806        0       1.00000000      -0.06744469      -0.01095888       0.13604667
Ni      11.59486633       6.64201766       0.02483095        0       1.00000000       0.12235893       0.02470435       0.19180222
Ni       1.27027232       0.76077629       2.10514759        3       1.00000000      -0.08931499       0.15680116       0.00733332
Ni       3.86115609       0.74694224       2.15221206        4       1.00000000       0.03737053       0.05275251       0.18537815
Ni       6.47545703       0.72736695       2.20445384        4       1.00000000       0.12893809       0.07360917       0.23292247
Ni       9.02087603       0.74430287       2.14839062        3       1.00000000      -0.03996323       0.12191287       0.06070789
Ni       2.55281510       2.92183611       2.14385371        3       1.00000000      -0.13197037      -0.06808079       0.07681816
Ni       5.14561295       2.91709484       2.19028569        4       1.00000000      -0.09656112      -0.15328504       0.21443830
Ni       7.78210345       2.91900113       2.19396728        4       1.00000000       0.25387531      -0.08993356       0.11710970
Ni      10.27650164       2.89086261       2.16222592        4       1.00000000      -0.01700380      -0.08921049       0.07228469
Pt       3.86524172       5.14631437       2.10308873        3       0.00000000      -0.03067015      -0.10740190       0.04877868
Ni       6.47527906       5.14951159       2.16818826        4       1.00000000       0.12078305      -0.05491542       0.14445189
Ni       8.98853009       5.13572050       2.20955649        4       1.00000000      -0.07746333      -0.12100574       0.23589549
Pt      11.54866829       5.11578003       2.12759965        3       0.00000000      -0.08920877      -0.11088438      -0.01401939
Ni       5.11952889       7.43858779       2.12741192        3       1.00000000      -0.09697761       0.11480160       0.03248172
Ni       7.72205777       7.38208562       2.15389758        4       1.00000000       0.04987911      -0.05470685       0.08029731
Pt      10.27233238       7.38731711       2.08125851        3       0.00000000      -0.02125454      -0.03403744      -0.04196830
Ni      12.88601052       7.40731941       2.12866109        3       1.00000000      -0.03286527       0.09167685      -0.02196280
Ni      -0.01498369       1.52104909       4.25637718        6       1.00000000      -0.04757108       0.09611341      -0.34356701
Pt       2.61525588       1.53367687       4.25335001        6       0.00000000      -0.03113588      -0.00671691      -0.11456394
Ni       5.16378181       1.47709075       4.27678286        6       1.00000000       0.04257417       0.01251734      -0.33444109
Ni       7.76730949       1.47542003       4.27214575        6       1.00000000       0.10954660       0.06013755      -0.35682091
Pt       1.24356453       3.72881442       4.35113319        7       0.00000000      -0.08682522      -0.02646569      -0.02313368
Ni       3.86349156       3.67806691       4.30389768        6       1.00000000       0.06663872       0.04507972      -0.20766992
Pt       6.50580580       3.64443124       4.20779456        5       0.00000000       0.02931968      -0.05075078      -0.07873851
Ni       9.02902626       3.69159630       4.29725001        6       1.00000000       0.02887419      -0.01234654      -0.31342753
Ni       2.54156148       5.88507497       4.31749522        6       1.00000000      -0.00552575      -0.02050840      -0.12769176
Pt       5.13356773       5.86749361       4.24614445        5       0.00000000      -0.01777164       0.01923066      -0.10515211
Ni       7.79525429       5.84217037       4.28702293        6       1.00000000       0.08661766      -0.09544155      -0.27335737
Ni      10.27715811       5.85831919       4.36613328        7       1.00000000      -0.06126478       0.00672056      -0.10354956
Pt       3.83686071       8.18934552       4.21298367        5       0.00000000       0.00744584       0.13859219      -0.07050363
Pt       6.43216396       8.14685576       4.18750065        5       0.00000000      -0.04045394       0.12407492      -0.17478399
Pt       9.01429523       8.05897536       4.28525478        6       0.00000000      -0.06808992      -0.02427868      -0.01383316
Pt      11.60650453       8.10254274       4.30489656        6       0.00000000       0.01546021       0.03011148      -0.01328180
Pt      -0.00289645       0.02982670       6.52184911        9       0.00000000       0.08086683       0.02403922       0.21835757
Pt       2.61480714       0.04117662       6.55269167       10       0.00000000       0.02280966       0.00794340       0.40260746
Pt       5.20353488      -0.09313298       6.54290615        9       0.00000000      -0.06737271       0.03331004       0.46000774
Ni       7.73812231      -0.03225880       6.49577666        9       1.00000000       0.02402077       0.08104886      -0.06157285
Ni       1.31834157       2.26657282       6.47189450        9       1.00000000      -0.02266081       0.00601509      -0.13965801
Ni       3.84615805       2.22788740       6.39247087        8       1.00000000       0.05501258      -0.06253022       0.16235112
Pt       6.46969738       2.16516118       6.40890783        8       0.00000000      -0.00390039      -0.04628170       0.57471475
Pt       9.07306385       2.28022511       6.46521376        9       0.00000000       0.05963281       0.13321293      -0.08372845
Ni       2.52646792       4.40150568       6.45718733        9       1.00000000      -0.02748913       0.04183412      -0.13598421
Pt       5.08953758       4.36458402       6.50133044        9       0.00000000      -0.10093604      -0.00982583       0.33892805
Ni       7.78861335       4.43100118       6.38860489        8       1.00000000       0.05511359       0.03178888       0.00167422
Ni      10.32177982       4.45767037       6.47885538        9       1.00000000      -0.06680712       0.09811392      -0.21173873
Pt       3.73683624       6.63096802       6.51078741        9       0.00000000       0.03114187      -0.12995184       0.14883049
Pt       6.51997856       6.58459253       6.42612064        8       0.00000000      -0.02637561      -0.03282720       0.63138819
Ni       9.06448869       6.55931837       6.46364098        9       1.00000000       0.00496090      -0.10118385      -0.17434143
Ni      11.55821171       6.56726461       6.47694203        9       1.00000000      -0.11157719      -0.20156585      -0.20101216
