64
Lattice="10.731610347377353 0.0026330154228164995 -0.009867892345146125 5.368085431933395 9.308845108446857 -0.008188120721556877 0.0 0.0 22.005684442832816" Properties=species:S:1:pos:R:3:tags:I:1:initial_magmoms:R:1:forces:R:3 unique_id=00f7c42895c442cc86ab5639d67fbea8 energy=-400.6511548357177 stress="0.00390806866973591 8.077238618605158e-05 7.04683979676583e-05 8.077238618605158e-05 0.00391171831227315 4.2097284829494145e-05 7.04683979676583e-05 4.2097284829494145e-05 -0.0010221140764952504" pbc="T T T"
Pt      -0.05543488       0.03332387       0.08959118        1       0.00000000      -0.16044645       0.05003446      -0.39336046
Pt       2.68417531       0.00293744       0.00464802        0       0.00000000      -0.00262048      -0.01347155      -0.11753814
Pt       5.41888756       0.03290457       0.07437259        1       0.00000000       0.15881215       0.06878501      -0.33532675
Ni       8.04653162       0.02609062       0.08305531        1       1.00000000       0.00289530       0.11503470       0.32973603
Pt       1.30930299       2.32474882       0.07967025        1       0.00000000      -0.12131262       0.04801987      -0.39192708
Pt       4.05931670       2.32647490       0.00939205        0       0.00000000       0.13852836       0.05232890       0.03928810
Ni       6.73813969       2.33097874       0.09122960        1       1.00000000       0.22703787       0.07346036       0.51856024
Ni       9.35657947       2.33306651       0.09481207        1       1.00000000      -0.24875500       0.05749680       0.49621661
Pt       2.68522427       4.65231384       0.07101992        1       0.00000000       0.02496295      -0.00245723      -0.41418631
Pt       5.42621946       4.61484672       0.07854180        1       0.00000000       0.15234119      -0.07066824      -0.32725328
Ni       8.04970605       4.62449420       0.08847328        1       1.00000000      -0.00944342      -0.22901279       0.41677129
Pt      10.67249393       4.62456293       0.07665536        1       0.00000000      -0.14565775      -0.09921447      -0.44130939
Pt       4.01259662       7.01049418       0.07598088        1       0.00000000       0.09910194      -0.01609976      -0.48284048
Pt       6.71968748       6.95633630       0.07891467        1       0.00000000      -0.09638081      -0.06910464      -0.41378438
Pt       9.38419366       6.95881340       0.07204546        1       0.00000000       0.05920497      -0.03592978      -0.42161344
Pt      12.08399442       7.01058093       0.00000000        0       0.00000000      -0.07403853       0.00594869      -0.10837736
Pt       1.33381740       0.77977112       2.35922824        3       0.00000000       0.02861587       0.03628554       0.46510903
Pt       4.03237998       0.78556965       2.35885052        3       0.00000000       0.04779212       0.03441884       0.42567020
Pt       6.73875058       0.82604880       2.28010895        2       0.00000000       0.04580123       0.15500032       0.13082314
Pt       9.35169334       0.82283200       2.28284267        2       0.00000000      -0.12068222       0.11917438       0.11752193
Pt       2.69731586       3.10633614       2.37711829        3       0.00000000       0.06704232      -0.04705176       0.49092600
Pt       5.40477942       3.09420535       2.34389841        2       0.00000000       0.08906265      -0.12569988       0.28480263
Ni       8.04689946       3.10021551       2.28844199        2       1.00000000      -0.03728887      -0.00734201      -0.05230904
Pt      10.67728097       3.09370999       2.31411495        2       0.00000000      -0.10377764      -0.07311782       0.32005496
Pt       4.03431956       5.41351259       2.37043752        3       0.00000000       0.05338367      -0.05765573       0.50464998
Pt       6.73698877       5.38265648       2.32025763        2       0.00000000       0.09821925      -0.15074780       0.26870426
Pt       9.35549760       5.38597405       2.31158673        2       0.00000000      -0.09575928      -0.09447399       0.28751019
Pt      12.06443571       5.43156037       2.34533266        2       0.00000000      -0.06888924       0.00672402       0.43217935
Pt       5.36147390       7.75453443       2.34926952        2       0.00000000      -0.00152852      -0.01959042       0.51852393
Pt       8.05001942       7.75501214       2.35077109        3       0.00000000       0.03673826       0.04421774       0.44301729
Pt      10.73881894       7.75919548       2.34145699        2       0.00000000       0.00991902       0.02112206       0.48394729
Pt      13.40969967       7.78069302       2.32358061        2       0.00000000      -0.05105088       0.14433116       0.34242485
Pt      -0.00184098       1.55818218       4.64921023        4       0.00000000      -0.06081133       0.07234012      -0.43587399
Pt       2.71308153       1.57554490       4.70789279        5       0.00000000       0.14567801       0.04459894      -0.11562762
Pt       5.33995674       1.59342438       4.67881145        5       0.00000000       0.05111491       0.16620128      -0.25919273
Pt       8.03250454       1.55969746       4.61444439        4       0.00000000      -0.08636743      -0.01785094      -0.42574917
Pt       1.37371181       3.87309582       4.64658120        4       0.00000000      -0.01014870      -0.04788095      -0.48549923
Ni       4.02010788       3.87245555       4.67431060        5       1.00000000       0.02158728      -0.04363232      -0.39938028
Pt       6.68023867       3.86847334       4.61917279        4       0.00000000       0.02108085      -0.03188670      -0.34673689
Pt       9.37629577       3.87322478       4.61571918        4       0.00000000      -0.03690545      -0.03437986      -0.40733144
Pt       2.68592866       6.18115138       4.66656110        5       0.00000000      -0.03623520       0.03420679      -0.35534507
Pt       5.34388968       6.17153041       4.64732087        4       0.00000000      -0.02341097      -0.08210709      -0.46699829
Pt       8.04523562       6.19362675       4.63931076        4       0.00000000      -0.00877030      -0.13299885      -0.42309020
Pt      10.74481064       6.21205577       4.66679368        5       0.00000000       0.06910941       0.00912163      -0.33870160
Pt       4.01750028       8.53127728       4.63986772        4       0.00000000      -0.02457642       0.07773139      -0.45372577
Pt       6.71821471       8.54376030       4.67287545        5       0.00000000       0.04962424       0.09941875      -0.33434785
Pt       9.37924290       8.54883585       4.67264606        5       0.00000000      -0.03628799       0.09422889      -0.33322823
Pt      12.07221240       8.52903854       4.66610614        5       0.00000000       0.03543595       0.05959789      -0.31339407
Pt       0.01849981       0.00250932       6.93011492        6       0.00000000      -0.00473063       0.00487838       0.45460648
Ni       2.68705287       0.00883786       6.91792126        6       1.00000000       0.03803660       0.00806212      -0.28012193
Pt       5.32507428       0.01192632       6.91699152        6       0.00000000      -0.11841475       0.10261700       0.35029113
Pt       8.02128193      -0.01868874       7.00328017        7       0.00000000      -0.08983336      -0.00191349       0.01671085
Pt       1.38950137       2.29875553       6.91960844        6       0.00000000       0.05091642       0.00190990       0.41786884
Ni       4.01452543       2.31740917       6.91157363        6       1.00000000      -0.00893787       0.02190312      -0.32404775
Pt       6.67506433       2.32012347       7.00277675        7       0.00000000      -0.09703901      -0.10411693      -0.10892703
Pt       9.38061225       2.32377488       7.00568444        7       0.00000000       0.11240607      -0.02968227      -0.01353598
Pt       2.69039017       4.63846564       6.89230514        6       0.00000000       0.13791021      -0.17478935       0.34035451
Pt       5.33649663       4.61547547       6.90021246        6       0.00000000      -0.19583725      -0.05669279       0.26563112
Pt       8.04041016       4.65054129       6.99501081        7       0.00000000      -0.01956524       0.07165177      -0.02037297
Pt      10.74536295       4.67328297       6.91711387        6       0.00000000       0.12264330      -0.04342176       0.35100239
Pt       3.98885670       6.97945910       6.91479065        6       0.00000000       0.05214999      -0.03756659       0.45141462
Pt       6.72026136       7.00080996       6.91242903        6       0.00000000      -0.03053932      -0.02480617       0.42474217
Pt       9.40097339       7.00999826       6.91256724        6       0.00000000       0.01275162       0.06618995       0.43991403
Ni      12.07043058       6.98437157       6.91112810        6       1.00000000      -0.03386106       0.00832319      -0.28791925
