64
Lattice="10.120170259087626 -0.015934519414718656 -0.0027298759211110174 5.0462854309336285 8.747822994054987 -0.016174379661922766 0.0 0.0 21.43951428195759" Properties=species:S:1:pos:R:3:tags:I:1:initial_magmoms:R:1:forces:R:3 unique_id=78e965990bc049bfb36b3d48d9abe4be energy=-368.16793600868687 stress="0.003997076076565421 -3.95453744361197e-05 -5.381493940778885e-05 -3.95453744361197e-05 0.003655739817477686 -0.00012942270169371013 -5.381493940778885e-05 -0.00012942270169371013 -0.0022426613563167313" pbc="T T T"
Ni       0.03896341      -0.04407083       0.10478669        1       1.00000000       0.14297994      -0.02613777      -0.43592764
Ni       2.51336581      -0.03729667       0.12411683        1       1.00000000       0.02776591      -0.01549376      -0.10251492
Ni       5.07734635      -0.02599504       0.02388896        0       1.00000000      -0.08449989       0.01492945       0.13025640
Ni       7.55506171      -0.05697250       0.11724677        1       1.00000000      -0.05579325      -0.06669347      -0.46987741
Ni       1.26584333       2.19855472       0.04917943        0       1.00000000      -0.00048021      -0.02319277       0.26713221
Pt       3.78506313       2.18588869       0.11678133        1       0.00000000      -0.04805623       0.00442459      -0.65348779
Ni       6.31531065       2.18437121       0.03951536        0       1.00000000      -0.00312056       0.03293206       0.13625993
Pt       8.85603443       2.23371483       0.06082341        1       0.00000000       0.03371669       0.09487011      -0.99146961
Ni       2.50199391       4.40717483       0.03165914        0       1.00000000       0.06128765      -0.00034337       0.32434989
Ni       5.04863914       4.39510097       0.00000000        0       1.00000000      -0.15250354      -0.02542763       0.15007585
Ni       7.57376164       4.39552649       0.00556942        0       1.00000000       0.11356607       0.04261539       0.07962111
Ni      10.14434214       4.40046828       0.03258318        0       1.00000000      -0.01182119       0.09947482       0.27041261
Ni       3.78162278       6.54442267       0.02677130        0       1.00000000       0.00352377       0.00285758       0.33323382
Ni       6.30762973       6.57182265       0.00084746        0       1.00000000       0.01837804       0.12793564       0.16507401
Ni       8.82592133       6.53593915       0.07862082        1       1.00000000      -0.11949762      -0.03749530      -0.14354351
Ni      11.39398670       6.53135251       0.00278345        0       1.00000000       0.03544842      -0.03996575       0.28751088
Ni       1.30958190       0.72568662       2.12524130        2       1.00000000       0.07517668       0.10191606       0.13527236
Ni       3.74992306       0.70121298       2.12533513        2       1.00000000      -0.12150536      -0.09515651       0.08493096
Ni       6.30082728       0.72954250       2.06371467        2       1.00000000      -0.03850734       0.05641093      -0.05996261
Pt       8.90044799       0.67354514       2.10145799        2       0.00000000       0.12031188       0.01827514      -0.10793799
Ni       2.50549348       2.92558547       2.13877330        2       1.00000000       0.02954034      -0.00038704       0.09013988
Ni       5.05080763       2.91848913       2.12562865        2       1.00000000      -0.05772921       0.12403981       0.03428517
Ni       7.57194706       2.93201985       2.11322931        2       1.00000000       0.01602186       0.04749502       0.07123504
Ni      10.15340646       2.93825712       2.12650161        2       1.00000000       0.03563646       0.00228596       0.05677235
Ni       3.74791433       5.09542659       2.10217009        2       1.00000000      -0.05448433      -0.05375899       0.05550413
Pt       6.31461669       5.13316882       2.06500517        2       0.00000000       0.01171155       0.04073669      -0.00371297
Ni       8.86686709       5.06183978       2.10763449        2       1.00000000       0.05691320      -0.07867302       0.07917894
Ni      11.39649112       5.07217490       2.08113509        2       1.00000000       0.03783670      -0.00887904       0.02707395
Ni       5.07022438       7.26642047       2.07420109        2       1.00000000       0.02672400      -0.04078808       0.05540137
Ni       7.56097438       7.31370352       2.11188777        2       1.00000000      -0.01860357       0.02409259       0.16878982
Pt      10.11085804       7.26250880       2.10798127        2       0.00000000       0.02967041      -0.02391915       0.00923340
Ni      12.64010314       7.20924800       2.07287081        2       1.00000000       0.03834967      -0.18109001       0.04116305
Ni       0.05893192       1.44461073       4.22502999        3       1.00000000       0.06831599      -0.12338840      -0.16448464
Ni       2.48103305       1.42653695       4.19241722        3       1.00000000      -0.06180491      -0.10648648      -0.24007697
Pt       4.99028937       1.38492281       4.16852805        3       0.00000000      -0.17516073      -0.10536566       0.04818345
Pt       7.58574767       1.44632911       4.19402788        3       0.00000000       0.05451817      -0.09628275      -0.03001376
Pt       1.26367136       3.65537299       4.23184666        3       0.00000000      -0.02097658      -0.06329263       0.05026812
Ni       3.76783478       3.70010165       4.20662220        3       1.00000000      -0.02448482       0.08832916      -0.24387249
Pt       6.30330377       3.70910757       4.28833431        4       0.00000000      -0.02001384       0.00139068       0.07533856
Ni       8.86862415       3.70945224       4.19664004        3       1.00000000      -0.03143222       0.14356650      -0.21500447
Ni       2.51031819       5.80387432       4.24615175        3       1.00000000      -0.06920724      -0.05140766      -0.15737845
Ni       5.04482117       5.81827265       4.26648113        4       1.00000000       0.05705917       0.00021889      -0.09229146
Ni       7.59582477       5.85983650       4.22877430        3       1.00000000       0.03793855       0.11272564      -0.18372510
Ni      10.11309455       5.81781849       4.22685730        3       1.00000000      -0.00284900      -0.01383968      -0.16121267
Pt       3.79973202       7.89819929       4.19845942        3       0.00000000      -0.01161197      -0.03680129       0.05459426
Ni       6.35575181       7.98381231       4.18135719        3       1.00000000       0.05251417      -0.05969670      -0.19876284
Ni       8.81779981       7.96249806       4.20598477        3       1.00000000      -0.11419669      -0.06854378      -0.19687363
Ni      11.33743295       7.92483064       4.23574888        3       1.00000000      -0.03867057      -0.14362676      -0.01555772
Pt       0.00601080      -0.05561415       6.41002513        6       0.00000000      -0.05752179       0.09018345       0.34661319
Pt       2.55908733      -0.01987723       6.36369082        6       0.00000000       0.00116425       0.04805964       0.08173757
Ni       5.05749335      -0.03026027       6.36829930        6       1.00000000      -0.04047858       0.00998183      -0.04024469
Pt       7.50188665      -0.08327220       6.43951428        6       0.00000000       0.07328480       0.01646547       0.38981518
Ni       1.27042029       2.22167052       6.36562295        6       1.00000000       0.05672635      -0.01889637      -0.00393453
Pt       3.79143005       2.27679631       6.32084115        5       0.00000000      -0.08883237       0.16271907       0.66233758
Ni       6.30920098       2.20194590       6.39176924        6       1.00000000       0.01429565       0.05289094       0.05554275
Pt       8.87846301       2.27350621       6.29537487        5       0.00000000       0.08021461      -0.03498595       1.01951042
Ni       2.51260153       4.42241990       6.36625278        6       1.00000000       0.05998861       0.04071219      -0.20043138
Ni       5.05110365       4.42334580       6.37314391        6       1.00000000      -0.13338659       0.04320685      -0.00909614
Ni       7.54819129       4.38388547       6.37526093        6       1.00000000       0.03957992       0.00014692       0.03839252
Ni      10.16460023       4.37655901       6.36427623        6       1.00000000       0.06678559       0.00264569      -0.12456715
Ni       3.78287351       6.46585692       6.36480683        6       1.00000000      -0.04868219      -0.03402234      -0.16798358
Ni       6.29374661       6.48441090       6.34006055        5       1.00000000       0.04311215       0.06999957      -0.22677987
Pt       8.88183902       6.47273617       6.35410787        6       0.00000000      -0.00397173      -0.00286607      -0.03107149
Ni      11.38805402       6.48299869       6.34177589        5       1.00000000       0.08982688      -0.04163015      -0.20344321
