64
Lattice="10.320703831175173 -0.011139348802420065 0.025450328744248452 5.150704956543076 8.855411488665474 0.017512893526902936 0.02078010640316551 0.004513914335771389 8.791387369849526" Properties=species:S:1:pos:R:3:tags:I:1:initial_magmoms:R:1:forces:R:3 unique_id=d38b10acd445423eb15161ae1458cdba stress="0.00019436061830634815 3.0315242739815976e-06 -1.2721225553485652e-05 3.0315242739815976e-06 0.0001983204707012992 -7.972917961173076e-07 -1.2721225553485652e-05 -7.972917961173076e-07 0.00019324732941563422" energy=-397.299961790132 pbc="T T T"
Ni       0.00359081       0.02554226       0.18146322        4       1.00000000       0.04501857       0.09446641       0.25327842
Ni       2.57899126       0.00708571       0.21900599        4       1.00000000       0.01997984       0.02842475       0.40985916
Ni       5.15752947      -0.01432104       0.17147581        4       1.00000000      -0.03725244       0.12519943       0.22505268
Ni       7.74710596      -0.04784286       0.20231034        4       1.00000000      -0.01849462      -0.11203710       0.35840712
Ni       1.25885583       2.22033680       0.10740502        4       1.00000000      -0.12499830       0.02212792       0.18338447
Pt       3.80485903       2.21909719       0.11313740        4       0.00000000      -0.04552527       0.06463028      -0.15925044
Pt       6.47315828       2.16025117       0.12535235        4       0.00000000       0.09332192      -0.04768574      -0.08583649
Ni       9.07299685       2.20886156       0.16646998        4       1.00000000       0.13793893       0.05389960       0.11913934
Ni       2.55461690       4.44504340       0.05992334        4       1.00000000      -0.05406362       0.03512068      -0.09945036
Ni       5.15108537       4.43297868       0.17344055        4       1.00000000       0.19687025      -0.06573205       0.23550289
Pt       7.81522532       4.43447204       0.12453740        4       0.00000000       0.14862719       0.01610723      -0.12810290
Ni      10.34596908       4.41290916       0.09832587        4       1.00000000       0.09880732      -0.05343131       0.07582860
Ni       3.82868759       6.66141756       0.09991396        4       1.00000000      -0.07265588       0.10749006       0.09223751
Pt       6.42219231       6.68969201       0.21662382        4       0.00000000      -0.05005663       0.02998009       0.19524636
Ni       9.04807372       6.65154798       0.10356962        4       1.00000000       0.00850551       0.04127661       0.03121955
Ni      11.62283811       6.63478069       0.09147825        4       1.00000000       0.09880085      -0.00386097      -0.01123385
Ni       1.30739206       0.76834989       2.16753142        3       1.00000000      -0.00576258       0.17866309      -0.05406210
Ni       3.86135611       0.76249993       2.21068719        3       1.00000000       0.01822653       0.09283711       0.07052709
Ni       6.44828485       0.76141192       2.24098516        3       1.00000000      -0.02903478       0.11958394       0.13379473
Pt       9.04003952       0.77717166       2.20218114        3       0.00000000      -0.03320195       0.12128192       0.15396759
Ni       2.56185537       2.92400782       2.21354216        3       1.00000000      -0.08697119       0.00292791      -0.05980253
Ni       5.16676525       2.91883792       2.24882598        3       1.00000000      -0.05127621      -0.12001932       0.04634313
Ni       7.75799566       2.95902297       2.25676559        3       1.00000000       0.10113430       0.04754376      -0.03994194
Ni      10.32126260       2.93438047       2.23566057        3       1.00000000       0.01055898       0.01213144       0.06379421
Pt       3.88255437       5.14329049       2.17112434        3       0.00000000      -0.05292752      -0.07633371      -0.02645815
Ni       6.48836026       5.14668792       2.24253536        3       1.00000000       0.12048317      -0.02289288      -0.02097170
Ni       9.00338145       5.13751901       2.25962839        3       1.00000000      -0.04149893      -0.08116634       0.14552550
Pt      11.58954678       5.09139204       2.20021323        3       0.00000000      -0.03556933      -0.08754673       0.02282600
Ni       5.14680962       7.39792439       2.21165473        3       1.00000000      -0.12668280       0.01031090      -0.04973123
Ni       7.74009129       7.37637429       2.22508667        3       1.00000000       0.03271331      -0.08386838      -0.00197514
Pt      10.29420255       7.38814022       2.14152449        3       0.00000000       0.00746136      -0.10740617      -0.03628223
Ni      12.90541858       7.37077107       2.20130332        3       1.00000000      -0.00918560      -0.09356174      -0.01867884
Ni       0.00207546       1.55548703       4.35048901        2       1.00000000       0.01144221       0.17419308      -0.09733850
Pt       2.58222437       1.59449615       4.32745732        2       0.00000000      -0.03663978      -0.02282702      -0.06586222
Ni       5.17248422       1.50855242       4.36541208        2       1.00000000      -0.03888950       0.00893970      -0.14287582
Ni       7.76325783       1.49773059       4.37147848        2       1.00000000       0.08745041      -0.05648496      -0.07436288
Ni       1.29229933       3.68840702       4.40314806        2       1.00000000      -0.03850315       0.00384985      -0.06549702
Ni       3.85054008       3.69147793       4.37924406        2       1.00000000      -0.03388381       0.04724462      -0.17339530
Pt       6.50772455       3.62704676       4.33049437        2       0.00000000      -0.02043279      -0.03214493      -0.04029452
Ni       9.04898710       3.66160014       4.35645258        2       1.00000000       0.05563065      -0.12658070      -0.30080843
Ni       2.56717781       5.85240803       4.42398397        2       1.00000000      -0.04777577      -0.11168915      -0.03251164
Pt       5.13873832       5.85022402       4.34016323        2       0.00000000       0.08767191      -0.01195895       0.05736899
Ni       7.77082863       5.85114177       4.36189682        2       1.00000000       0.01519435      -0.07179838      -0.20932037
Pt      10.31688892       5.79384244       4.46415514        2       0.00000000      -0.04038107      -0.00400879      -0.03713512
Pt       3.85719351       8.13015502       4.34270606        2       0.00000000      -0.06087638      -0.03724212       0.12657940
Pt       6.45089257       8.14858032       4.26412870        2       0.00000000      -0.05853709       0.04284255       0.00823242
Pt       9.02101005       8.11260664       4.35185562        2       0.00000000      -0.06964574       0.05033007       0.08717185
Pt      11.62149054       8.13145208       4.33976988        2       0.00000000       0.05340176       0.02242061       0.03130303
Pt       0.01974678       0.02468971       6.58142407        1       0.00000000      -0.00226629       0.02521263       0.11547690
Pt       2.60591077       0.05604228       6.61574618        1       0.00000000      -0.03087365       0.10941243       0.26175091
Pt       5.17390534       0.00592374       6.58760608        1       0.00000000      -0.00970830      -0.03347653       0.05369814
Pt       7.73883854      -0.03351394       6.61885917        1       0.00000000      -0.00914460      -0.07567163       0.18298866
Ni       1.31369249       2.29556056       6.51811612        1       1.00000000      -0.00425901       0.23106401      -0.12490203
Ni       3.85957782       2.24516616       6.45251583        1       1.00000000      -0.11946314       0.01276236      -0.28153578
Ni       6.46250063       2.21750965       6.46004782        1       1.00000000       0.03607187      -0.03810881      -0.24839765
Pt       9.05378378       2.31204493       6.52264710        1       0.00000000       0.01323361       0.07286291       0.01825647
Ni       2.54639835       4.42973194       6.50780289        1       1.00000000      -0.14633714      -0.01920349      -0.25560212
Pt       5.10014428       4.35185890       6.57845957        1       0.00000000      -0.08705568      -0.05400468       0.11012211
Ni       7.78153732       4.43026969       6.45968601        1       1.00000000       0.05251685       0.04154313      -0.30533763
Ni      10.36142463       4.43109504       6.56035938        1       1.00000000       0.11904225       0.01149414      -0.01756211
Ni       3.82730693       6.59866536       6.54242832        1       1.00000000      -0.10797360      -0.14673563      -0.13912964
Pt       6.50668244       6.58065363       6.50693280        1       0.00000000       0.04631151      -0.04170723      -0.23894751
Ni       9.07077903       6.58189208       6.55996340        1       1.00000000       0.07632762      -0.10097400      -0.10064547
Ni      11.62821867       6.57007885       6.56535298        1       1.00000000       0.04506114      -0.11801582      -0.12564355
