64
Lattice="10.713200602795236 0.01901638955507139 -0.029986220710901994 5.373068977840628 9.283108404622567 0.005984146924548399 -0.024483646685395828 0.019777547831176842 9.326585935599542" Properties=species:S:1:pos:R:3:tags:I:1:initial_magmoms:R:1:forces:R:3 unique_id=63121c28f40749a68607400cd74db4a5 stress="-0.00048045109302434497 -1.3556851998515322e-06 6.80860527442033e-06 -1.3556851998515322e-06 -0.0004815826084468289 -2.6356215390243405e-06 6.80860527442033e-06 -2.6356215390243405e-06 -0.0003287244316549781" energy=-426.02340094340565 pbc="T T T"
Pt       0.00549100      -0.05045503       0.12136815        4       0.00000000      -0.00209884      -0.05897769       0.10982769
Pt       2.66641241      -0.03336991       0.09536364        4       0.00000000       0.00543264      -0.06016060       0.07079473
Pt       5.38419155      -0.04093765       0.13865391        4       0.00000000       0.02533599      -0.07657154       0.09679729
Pt       8.01136274      -0.02820211       0.13128902        4       0.00000000      -0.00311318      -0.06341982       0.10669773
Pt       1.32637836       2.34811373       0.10119550        4       0.00000000      -0.01600760       0.02601327       0.08428815
Pt       4.01923252       2.33001504       0.09394572        4       0.00000000      -0.02224549       0.03314783       0.09390605
Pt       6.70138290       2.31778336       0.10561958        4       0.00000000      -0.01557059      -0.02461032       0.13997122
Pt       9.38933641       2.35669842       0.08821701        4       0.00000000      -0.01918923      -0.02902576       0.14241958
Pt       2.63500481       4.69434788       0.10748111        4       0.00000000      -0.08225703       0.12737905       0.08388227
Pt       5.37586433       4.68827685       0.01832483        4       0.00000000      -0.03817853       0.06825435      -0.07155242
Pt       8.05270463       4.69359760       0.09357903        4       0.00000000      -0.00024270       0.06793004       0.15727412
Ni      10.72474248       4.67365965       0.08966872        4       1.00000000      -0.00671471       0.06737711       0.34852698
Pt       4.02923747       6.97388197       0.14311734        4       0.00000000      -0.04065694      -0.00855313       0.11188621
Ni       6.70386268       6.96544367       0.04982658        4       1.00000000      -0.00647844      -0.01293170       0.18068030
Pt       9.42554248       6.95220504       0.11480495        4       0.00000000       0.15980708      -0.04644333       0.12038453
Ni      12.05239372       6.97086698       0.10331591        4       1.00000000      -0.02875815      -0.00546975       0.30146707
Pt       1.30991862       0.74304305       2.35837683        3       0.00000000      -0.03021299       0.00403930      -0.00212761
Pt       4.07256960       0.73522206       2.34838604        3       0.00000000       0.06578315      -0.07377819      -0.01652784
Ni       6.69675488       0.74573734       2.32620138        3       1.00000000       0.03263655      -0.16831057       0.03000400
Pt       9.32446477       0.68280997       2.36732418        3       0.00000000      -0.05616143      -0.31016643       0.10358316
Pt       2.68258037       3.11539570       2.35960141        3       0.00000000       0.02726384       0.07423660       0.01812453
Pt       5.36903886       3.09754902       2.35657070        3       0.00000000      -0.01991427       0.11042221       0.00826312
Pt       8.02344914       3.07632510       2.34748934        3       0.00000000       0.00771321      -0.05286062       0.05597480
Pt      10.71247516       3.13391223       2.32073853        3       0.00000000       0.03536225       0.00571353       0.04402818
Pt       4.00082600       5.51067551       2.39183937        3       0.00000000      -0.10225375       0.18617763       0.10592725
Pt       6.66968041       5.47886239       2.33253816        3       0.00000000      -0.10559490       0.06147835       0.00452311
Pt       9.41060694       5.45796272       2.32093512        3       0.00000000      -0.01652481       0.03700289       0.08640824
Pt      12.06302518       5.54523045       2.30120287        3       0.00000000       0.06225338       0.25088060      -0.00038379
Ni       5.34690114       7.74265149       2.34947654        3       1.00000000      -0.06903721      -0.00053609       0.07454872
Pt       8.02589714       7.73449980       2.33256723        3       0.00000000      -0.02709490      -0.02798124      -0.02531105
Ni      10.76121319       7.76372221       2.31762126        3       1.00000000       0.14919665       0.07859203      -0.00272666
Ni      13.38442978       7.76709138       2.33685028        3       1.00000000      -0.04167109       0.01988825       0.07335784
Pt      -0.03243209       1.51557650       4.62626643        2       0.00000000      -0.04305138      -0.02147058      -0.04922957
Pt       2.66747362       1.55615979       4.62229740        2       0.00000000       0.02624750      -0.03613058      -0.08018326
Pt       5.37038780       1.54674614       4.59028690        2       0.00000000       0.09997114      -0.10505249      -0.07575980
Pt       8.02880211       1.51772837       4.57848597        2       0.00000000      -0.03701118      -0.08361795      -0.05359215
Pt       1.34908393       3.91481689       4.62910936        2       0.00000000       0.02142447       0.07436928      -0.09525222
Pt       4.01224671       3.93585845       4.65009094        2       0.00000000      -0.03460027       0.07667987      -0.03856743
Pt       6.66898895       3.90213654       4.65060134        2       0.00000000      -0.00009622       0.02406720      -0.04264485
Pt       9.37308559       3.89843747       4.61349967        2       0.00000000      -0.00747317       0.05872776       0.00178377
Ni       2.68722805       6.22465410       4.64143180        2       1.00000000       0.04211744       0.11578434      -0.09098200
Pt       5.30492271       6.24698754       4.64998029        2       0.00000000      -0.07440283       0.10851007      -0.07344411
Pt       8.00746111       6.22356001       4.64847566        2       0.00000000      -0.00979831       0.02170242      -0.02345254
Pt      10.76087004       6.23144207       4.58377727        2       0.00000000       0.07179122       0.04670698      -0.06014638
Ni       4.00945141       8.49282042       4.63511639        2       1.00000000      -0.04791929      -0.14773662      -0.13211661
Pt       6.64439177       8.49016433       4.61944896        2       0.00000000      -0.10264424      -0.01229350      -0.13017654
Pt       9.39877036       8.51311696       4.59892996        2       0.00000000       0.10878914      -0.07901143      -0.07548692
Pt      12.13340158       8.48135569       4.50778246        2       0.00000000       0.18849918      -0.11807729      -0.38790119
Pt      -0.00959163      -0.03824919       6.88731055        1       0.00000000       0.01292153      -0.09266418      -0.06565267
Pt       2.63937072      -0.01800203       6.89166069        1       0.00000000      -0.01158354      -0.07023932      -0.14546202
Pt       5.34310709       0.01812628       6.89248872        1       0.00000000       0.04248310      -0.03628009      -0.04853698
Pt       8.02720083       0.01176264       6.86581756        1       0.00000000      -0.00010721      -0.05269899      -0.04769786
Pt       1.32854369       2.33650235       6.89501526        1       0.00000000       0.01020420      -0.00982033      -0.13325342
Pt       4.02167165       2.37077258       6.88705482        1       0.00000000       0.03066352       0.01203860      -0.13161966
Pt       6.66971877       2.37397110       6.88701161        1       0.00000000       0.00746058      -0.00253410      -0.06064298
Pt       9.35531803       2.35311817       6.88035011        1       0.00000000      -0.03035885       0.01068408      -0.09748933
Pt       2.70203104       4.67718344       6.89215893        1       0.00000000       0.04019571       0.02915670      -0.07055078
Ni       5.35563754       4.67849377       6.88567300        1       1.00000000       0.02078933       0.08335097      -0.30894196
Pt       7.96079793       4.70642841       6.89702711        1       0.00000000      -0.15771242       0.09879425      -0.01997834
Pt      10.70080414       4.67740491       6.96414364        1       0.00000000      -0.02480572       0.01174253       0.08651834
Pt       4.05964209       6.94787743       6.87061180        1       0.00000000       0.06583255      -0.05505421       0.02502144
Ni       6.67705752       6.96893131       6.94096894        1       1.00000000      -0.06350552      -0.04966688      -0.18230818
Pt       9.34123473       6.97750389       6.90231211        1       0.00000000       0.01142731      -0.01446246      -0.04405220
Pt      12.06148884       6.98208760       6.93727337        1       0.00000000       0.02344426       0.01575969       0.01688093
