64
Lattice="10.251008505304936 -0.019386929414633346 0.03613768475203155 5.108714679278018 8.779974861563753 -0.021906818313885978 0.029506296042677873 -0.03768941434165616 8.761953769671011" Properties=species:S:1:pos:R:3:tags:I:1:initial_magmoms:R:1:forces:R:3 unique_id=fcce52146b41471cb6c0d8296b298e67 stress="-7.329269538208089e-05 4.061534903692924e-06 -1.3276955010199808e-05 4.061534903692924e-06 -6.196730594853345e-05 7.855749067834977e-06 -1.3276955010199808e-05 7.855749067834977e-06 -2.4155148392067394e-05" energy=-394.0875118202589 pbc="T T T"
Ni       0.02087783      -0.01507793       0.17757047        4       1.00000000       0.05356237      -0.02685391       0.32266002
Ni       2.52960926      -0.00526117       0.21588153        4       1.00000000      -0.04281691       0.00565900       0.40258725
Pt       5.12679322      -0.04753249       0.16057730        4       0.00000000       0.01227801      -0.11080454       0.33563314
Ni       7.71458106      -0.06814579       0.21292629        4       1.00000000       0.04418204      -0.03486836       0.36006850
Ni       1.28002063       2.20292081       0.10372304        4       1.00000000       0.02268706       0.05947735       0.25316230
Pt       3.76782090       2.24576823       0.19037602        4       0.00000000      -0.04949082       0.08250927       0.21220661
Pt       6.42172832       2.25098515       0.12362391        4       0.00000000       0.06665815       0.16568857       0.00968086
Pt       9.03944574       2.22719047       0.14741375        4       0.00000000       0.10056588       0.03686743       0.13925909
Ni       2.54777511       4.42331326       0.05619936        4       1.00000000       0.03722508       0.08945869       0.01711521
Ni       5.09538572       4.42000041       0.10043194        4       1.00000000      -0.10028289       0.08952787       0.22444010
Ni       7.70495721       4.41208078       0.11421722        4       1.00000000       0.09967532       0.07894294       0.23319819
Ni      10.26756322       4.40404756       0.09352000        4       1.00000000       0.10572806       0.12926432       0.10774393
Ni       3.80715001       6.56964659       0.08500996        4       1.00000000      -0.01218591      -0.04913929       0.16276878
Pt       6.38508313       6.56579342       0.09759915        4       0.00000000      -0.02695583      -0.02928540      -0.24327236
Ni       8.95176359       6.52023378       0.16120887        4       1.00000000      -0.06072740      -0.13268374       0.20133746
Ni      11.55987552       6.52997673       0.08216370        4       1.00000000       0.11065925      -0.04874951       0.03125725
Ni       1.29769358       0.71854328       2.18528792        3       1.00000000      -0.04915654      -0.01506375       0.04242188
Ni       3.82563322       0.73819691       2.23329022        3       1.00000000       0.06338328      -0.00676438       0.00962537
Ni       6.41456459       0.75766553       2.25832525        3       1.00000000      -0.06419058       0.12545903       0.07107441
Pt       8.99084748       0.70493398       2.26515003        3       0.00000000      -0.00253294       0.15994695      -0.02991484
Ni       2.55283123       2.92162235       2.23249687        3       1.00000000       0.04415145       0.04707969       0.02032225
Ni       5.11861893       2.94225960       2.25630316        3       1.00000000      -0.09984021       0.07551045       0.06602163
Ni       7.69098071       2.95255148       2.25855826        3       1.00000000       0.09125466       0.03847501       0.02369579
Ni      10.27123100       2.90632262       2.27668340        3       1.00000000       0.01516159      -0.04211769       0.16893092
Ni       3.87838334       5.10455109       2.19632609        3       1.00000000       0.12467730      -0.02256400       0.05784492
Ni       6.40241400       5.10248878       2.21422264        3       1.00000000      -0.02348965       0.01227764       0.00297847
Ni       8.92137684       5.05708225       2.21779972        3       1.00000000      -0.09968087      -0.17834569       0.09313029
Pt      11.57246691       5.03078093       2.23018652        3       0.00000000       0.12327774      -0.09660693       0.07693954
Ni       5.13891473       7.26476288       2.19153113        3       1.00000000       0.05922904      -0.17072232       0.01075237
Ni       7.63043092       7.28628177       2.19895413        3       1.00000000      -0.15952823      -0.12534625       0.04462593
Pt      10.21959865       7.22497184       2.19913270        3       0.00000000      -0.07273383      -0.06990187      -0.20097691
Ni      12.84481366       7.25253725       2.16808520        3       1.00000000       0.12465622      -0.20253970      -0.04850316
Ni       0.01683881       1.48950094       4.31967960        2       1.00000000      -0.05968522       0.06958189      -0.06614807
Pt       2.50933909       1.51193357       4.26325709        2       0.00000000      -0.00141132       0.04124132       0.15419766
Ni       5.15138941       1.47018206       4.31387523        2       1.00000000      -0.08438605       0.02898405      -0.18860997
Ni       7.69582393       1.46310987       4.35102580        2       1.00000000       0.00095122       0.02484350      -0.07941684
Ni       1.26463706       3.67429956       4.37184465        2       1.00000000      -0.05296124       0.02998557       0.03441294
Ni       3.84329973       3.70991999       4.31180415        2       1.00000000      -0.04207051       0.12881560      -0.20704303
Pt       6.41266915       3.65746681       4.33817135        2       0.00000000      -0.01920022      -0.03653965      -0.05247443
Ni       9.00216110       3.66750479       4.31884646        2       1.00000000       0.00891153       0.08554225      -0.24148286
Ni       2.58311757       5.76707403       4.36852412        2       1.00000000       0.03952637      -0.12009875      -0.06764184
Ni       5.13357170       5.80741532       4.34646479        2       1.00000000       0.03444245      -0.11118255      -0.19329035
Ni       7.66730361       5.79823622       4.32755564        2       1.00000000      -0.01311648      -0.04238652      -0.22314093
Ni      10.26292997       5.74295805       4.37894637        2       1.00000000      -0.00757858      -0.07933479      -0.04406033
Pt       3.91110926       7.95364340       4.28741784        2       0.00000000       0.04765345      -0.16125320       0.15884873
Ni       6.39651829       7.97741815       4.29236101        2       1.00000000      -0.04157106      -0.08901710      -0.16072449
Pt       8.89101694       7.98118621       4.28151701        2       0.00000000      -0.03610475      -0.03232396       0.07492888
Pt      11.56943166       7.98241654       4.28864994        2       0.00000000       0.00930915      -0.04142887       0.05326967
Pt       0.02975347      -0.06087970       6.53050578        1       0.00000000       0.07926021      -0.03727877       0.13018706
Pt       2.55464466      -0.03474260       6.56096479        1       0.00000000      -0.10018472       0.03877510       0.24458968
Pt       5.15076138      -0.01566937       6.45981149        1       0.00000000       0.07566940       0.04882862      -0.43949453
Pt       7.71319634      -0.07890903       6.58433577        1       0.00000000      -0.11542807      -0.07680693       0.15159936
Ni       1.28985436       2.23763483       6.48087299        1       1.00000000       0.00901089       0.14164748      -0.13737686
Pt       3.86242524       2.30536165       6.42997106        1       0.00000000      -0.02153129       0.28510087      -0.24314367
Ni       6.42939877       2.20998595       6.42641859        1       1.00000000      -0.00814351       0.04652140      -0.23279339
Pt       8.99540061       2.26073574       6.39884518        1       0.00000000      -0.02470760       0.15077416      -0.35746517
Ni       2.54725643       4.41644839       6.45909979        1       1.00000000      -0.05908626       0.10810606      -0.21422671
Ni       5.14645582       4.41901504       6.48231041        1       1.00000000      -0.00854041       0.18961169      -0.12702405
Ni       7.65008839       4.35500250       6.49338862        1       1.00000000      -0.22044838      -0.00663812      -0.11284046
Ni      10.32629392       4.35131560       6.48617002        1       1.00000000       0.21807569      -0.00140796      -0.20304046
Ni       3.84704572       6.47486692       6.47369680        1       1.00000000      -0.02041780      -0.17634416      -0.12318582
Ni       6.38163573       6.49134896       6.39599412        1       1.00000000      -0.03330301      -0.02917940      -0.34273393
Pt       8.98021139       6.41193739       6.51241152        1       0.00000000      -0.01598025      -0.14300426       0.07944719
Ni      11.56955649       6.47025375       6.50129025        1       1.00000000       0.02764647      -0.06792146      -0.20293821
