64
Lattice="10.304047574004821 -0.02214441493004326 0.03145539292469929 5.132846161121049 8.870985296695045 -0.0018222860285724708 0.025683220774755246 -0.016546282172048236 8.784257846845795" Properties=species:S:1:pos:R:3:tags:I:1:initial_magmoms:R:1:forces:R:3 unique_id=21ab8fa1111946d0a034a24bd5d9a6c4 stress="0.00020163893530301957 5.974446729168185e-06 -2.4280163511327983e-05 5.974446729168185e-06 0.0002035553145682753 1.376245405503731e-05 -2.4280163511327983e-05 1.376245405503731e-05 0.0002018955167641806" energy=-397.1363109288722 pbc="T T T"
Ni      -0.01690325       0.03325666       0.20887351        4       1.00000000      -0.05861614       0.12700556       0.30888978
Ni       2.57319029       0.00027407       0.22041385        4       1.00000000      -0.01427632       0.02039763       0.42749122
Ni       5.15374416      -0.02539046       0.18263991        4       1.00000000       0.00066818       0.14749873       0.28472077
Ni       7.75549627      -0.05191107       0.14027538        4       1.00000000       0.10754164      -0.07525046       0.22144584
Ni       1.24854086       2.21775621       0.11169716        4       1.00000000      -0.14055916      -0.01539694       0.22979196
Pt       3.79332242       2.21282713       0.11576011        4       0.00000000      -0.05388322       0.02569593      -0.13024129
Pt       6.47041433       2.14396307       0.21224683        4       0.00000000       0.11180675      -0.09859835       0.22127845
Ni       9.05807719       2.17322998       0.20487144        4       1.00000000       0.10557948      -0.09975120       0.21621682
Ni       2.54516830       4.44111315       0.05741102        4       1.00000000      -0.04802681      -0.00811441      -0.03584938
Ni       5.13945224       4.42856235       0.16691080        4       1.00000000       0.18839377      -0.09929689       0.22559785
Pt       7.80021622       4.42921234       0.12361635        4       0.00000000       0.17572751      -0.02980887      -0.10325572
Ni      10.32384084       4.40471820       0.09090815        4       1.00000000       0.08702620      -0.11722994       0.02896049
Ni       3.81824077       6.68244444       0.17529605        4       1.00000000      -0.02828529       0.14517483       0.21540011
Pt       6.40705046       6.69793271       0.20653204        4       0.00000000      -0.04838411       0.03462350       0.17349674
Ni       9.02871057       6.65489974       0.08912908        4       1.00000000       0.02017033       0.02077852      -0.00322996
Ni      11.59486633       6.64201766       0.08224196        4       1.00000000       0.11918655       0.02856711      -0.05405723
Ni       1.27027232       0.76077629       2.16255861        3       1.00000000      -0.10101602       0.17722928      -0.03239863
Ni       3.86115609       0.74694224       2.20962307        3       1.00000000       0.04357509       0.04035197       0.05305443
Ni       6.47545703       0.72736695       2.26186486        3       1.00000000       0.11536964       0.04478517       0.15941633
Ni       9.02087603       0.74430287       2.20580164        3       1.00000000      -0.05012371       0.12239415       0.00918919
Ni       2.55281510       2.92183611       2.20126473        3       1.00000000      -0.15427995      -0.00297589      -0.04081631
Ni       5.14561295       2.91709484       2.24769671        3       1.00000000      -0.08605780      -0.16284152       0.02403401
Ni       7.78210345       2.91900113       2.25137830        3       1.00000000       0.25858254      -0.10393909      -0.06824524
Ni      10.27650164       2.89086261       2.21963694        3       1.00000000      -0.04065094      -0.07857240       0.04867387
Pt       3.86524172       5.14631437       2.16049975        3       0.00000000      -0.07086704      -0.08148640       0.03945518
Ni       6.47527906       5.14951159       2.22559928        3       1.00000000       0.12049645       0.00715406      -0.07327004
Ni       8.98853009       5.13572050       2.26696750        3       1.00000000      -0.02624794      -0.08381044       0.16104531
Pt      11.54866829       5.11578003       2.18501066        3       0.00000000      -0.10691693      -0.06641153      -0.02459586
Ni       5.11952889       7.43858779       2.18482293        3       1.00000000      -0.12245858       0.09188462      -0.08033493
Ni       7.72205777       7.38208562       2.21130859        3       1.00000000       0.02829351      -0.07872301      -0.01979045
Pt      10.27233238       7.38731711       2.13866952        3       0.00000000       0.00300090      -0.08993565      -0.00469237
Ni      12.88601052       7.40731941       2.18607210        3       1.00000000      -0.04624632       0.03883400      -0.05498500
Ni      -0.01498369       1.52104909       4.31378820        2       1.00000000      -0.03916489       0.13092042      -0.21633233
Pt       2.61525588       1.53367687       4.31076103        2       0.00000000      -0.01109662       0.00461483      -0.08764647
Ni       5.16378181       1.47709075       4.33419387        2       1.00000000       0.05990366      -0.02595011      -0.16509413
Ni       7.76730949       1.47542003       4.32955676        2       1.00000000       0.11961223       0.07635556      -0.20465665
Pt       1.24356453       3.72881442       4.40854421        2       0.00000000      -0.04531025      -0.03475747      -0.07266644
Ni       3.86349156       3.67806691       4.36130870        2       1.00000000       0.00910385       0.04013102      -0.16422443
Pt       6.50580580       3.64443124       4.26520558        2       0.00000000      -0.02224419      -0.08865153       0.04398955
Ni       9.02902626       3.69159630       4.35466103        2       1.00000000       0.04794648       0.00915636      -0.25831466
Ni       2.54156148       5.88507497       4.37490624        2       1.00000000      -0.05286640       0.00712935      -0.11052136
Pt       5.13356773       5.86749361       4.30355547        2       0.00000000       0.03415044       0.03803869       0.06765684
Ni       7.79525429       5.84217037       4.34443395        2       1.00000000       0.07181811      -0.08777409      -0.19567459
Ni      10.27715811       5.85831919       4.42354429        2       1.00000000      -0.06381702      -0.00286362      -0.09470320
Pt       3.83686071       8.18934552       4.27039468        2       0.00000000      -0.00547536       0.05841305      -0.00734480
Pt       6.43216396       8.14685576       4.24491166        2       0.00000000      -0.00748050       0.05471387       0.01381807
Pt       9.01429523       8.05897536       4.34266580        2       0.00000000      -0.04553139       0.02205090       0.11970935
Pt      11.60650453       8.10254274       4.36230757        2       0.00000000       0.00646531      -0.00707212      -0.01050470
Pt      -0.00289645       0.02982670       6.57926012        1       0.00000000      -0.06212441       0.05101860       0.19415068
Pt       2.61480714       0.04117662       6.61010268        1       0.00000000      -0.01740432       0.10840849       0.26468602
Pt       5.20353488      -0.09313298       6.60031716        1       0.00000000       0.02677715      -0.22242492       0.14641549
Ni       7.73812231      -0.03225880       6.55318768        1       1.00000000       0.04925933       0.06257758      -0.11178605
Ni       1.31834157       2.26657282       6.52930552        1       1.00000000       0.02484076       0.12033942      -0.03299197
Ni       3.84615805       2.22788740       6.44988189        1       1.00000000      -0.02593921      -0.00041567      -0.27719056
Pt       6.46969738       2.16516118       6.46631884        1       0.00000000       0.01625447      -0.00041991      -0.24269314
Pt       9.07306385       2.28022511       6.52262478        1       0.00000000       0.16131384       0.15155254       0.07323301
Ni       2.52646792       4.40150568       6.51459835        1       1.00000000      -0.17064746      -0.03043881      -0.14437987
Pt       5.08953758       4.36458402       6.55874146        1       0.00000000      -0.12497605      -0.01785110       0.04874293
Ni       7.78861335       4.43100118       6.44601590        1       1.00000000       0.05768592       0.04306062      -0.30591098
Ni      10.32177982       4.45767037       6.53626640        1       1.00000000      -0.02116390       0.19931572      -0.06971030
Pt       3.73683624       6.63096802       6.56819843        1       0.00000000      -0.19016710       0.00298552       0.13490826
Pt       6.51997856       6.58459253       6.48353165        1       0.00000000       0.04666587      -0.01950860      -0.24129496
Ni       9.06448869       6.55931837       6.52105200        1       1.00000000       0.04623041      -0.18417733      -0.19176922
Ni      11.55821171       6.56726461       6.53435304        1       1.00000000      -0.16114105      -0.23870930      -0.22429537
