64
Lattice="10.348447730846914 -0.005859932879471998 -0.02528150750273582 5.169149014685359 8.857625071792082 -0.0844221921315961 -0.02064226443668246 -0.06767618912264523 8.807917124153908" Properties=species:S:1:pos:R:3:tags:I:1:initial_magmoms:R:1:forces:R:3 unique_id=68978704f8b84b79851c740dc82636b2 stress="0.00025764885905890655 -1.0016306467917931e-06 -5.3937757229468835e-06 -1.0016306467917931e-06 0.0002809018734670904 3.119418555186771e-05 -5.3937757229468835e-06 3.119418555186771e-05 0.00025269913982737396" energy=-398.7209185958122 pbc="T T T"
Ni       0.01251033      -0.06406589       0.17833744        4       1.00000000       0.07869335      -0.11692512       0.27196252
Ni       2.55102927      -0.05551355       0.18692768        4       1.00000000      -0.06531243      -0.07964343       0.32718842
Pt       5.17387272      -0.07239377       0.12572557        4       0.00000000      -0.04097400      -0.22602321       0.27111351
Ni       7.77629567      -0.06239540       0.14987012        4       1.00000000       0.01049460      -0.09719460       0.28686250
Pt       1.27850247       2.20655576       0.09118797        4       0.00000000       0.04030596      -0.04653601      -0.00888627
Pt       3.84853798       2.22135865       0.16639434        4       0.00000000      -0.04371472       0.07182748       0.23584931
Pt       6.49196148       2.21846478       0.07033830        4       0.00000000       0.03022676       0.01137369      -0.01839412
Pt       9.06116683       2.25029593       0.08685165        4       0.00000000      -0.02179462       0.06954715       0.10227287
Ni       2.56483443       4.46598312       0.08273249        4       1.00000000       0.02882424       0.02704709       0.14086432
Pt       5.20714644       4.53145822      -0.00756505        4       0.00000000       0.01700213       0.22479893      -0.15817156
Ni       7.76701040       4.47604266       0.01641935        4       1.00000000      -0.02087740       0.14135495       0.09656857
Ni      10.34430673       4.46527067       0.00138956        4       1.00000000       0.00978641       0.11791115       0.04282249
Ni       3.86070433       6.68272924       0.02548918        4       1.00000000      -0.03748440       0.12867876       0.19867142
Ni       6.47870390       6.68046334       0.04255399        4       1.00000000       0.06376987       0.14824647       0.24508842
Ni       9.01549092       6.60727714       0.07587391        4       1.00000000      -0.11709029      -0.03642537       0.25521033
Ni      11.66541100       6.60514093      -0.00368697        4       1.00000000       0.08199378      -0.13072071       0.11799062
Ni       1.31274043       0.70622181       2.23975775        3       1.00000000       0.00536124      -0.01447818       0.16921321
Ni       3.81400742       0.72660752       2.21810223        3       1.00000000      -0.18698611      -0.07235966      -0.04154845
Ni       6.48943811       0.73432337       2.21789445        3       1.00000000       0.11704834      -0.05557231      -0.04502987
Pt       9.06502035       0.71367258       2.20883152        3       0.00000000       0.09612288       0.17062382      -0.10731204
Ni       2.56404334       2.89369973       2.26755191        3       1.00000000      -0.03530395      -0.13488601       0.22632540
Ni       5.18176530       2.93424676       2.20991122        3       1.00000000       0.01253966       0.13697447      -0.02805467
Ni       7.73721642       2.92998946       2.21721619        3       1.00000000       0.02609061      -0.10401275       0.02231678
Ni      10.36285114       2.91099128       2.24009532        3       1.00000000       0.02918871      -0.13128835       0.19060596
Pt       3.88950059       5.16038723       2.19013794        3       0.00000000       0.02443863      -0.00564216      -0.04370275
Ni       6.47201002       5.17337216       2.15312069        3       1.00000000      -0.03009578       0.09140112      -0.00072910
Pt       8.97360401       5.10518112       2.16732836        3       0.00000000      -0.04727849      -0.05977886       0.06688631
Pt      11.63542020       5.08861217       2.16971639        3       0.00000000       0.02190893      -0.21397820       0.07193480
Ni       5.21483825       7.36734978       2.11311488        3       1.00000000       0.10260963      -0.03606761       0.01976483
Ni       7.68517179       7.37889809       2.10960812        3       1.00000000      -0.13482257      -0.04478071       0.02258517
Pt      10.36747483       7.35946382       2.17820101        3       0.00000000       0.04450721       0.07349136      -0.11545214
Ni      12.92779110       7.36637950       2.09947747        3       1.00000000      -0.00403141      -0.05539432      -0.01983278
Ni       0.03937672       1.48028016       4.34015689        2       1.00000000       0.10120611       0.01648968      -0.11006904
Ni       2.51464124       1.47276311       4.30997069        2       1.00000000      -0.06257818       0.04633564      -0.10287290
Pt       5.18049269       1.44608160       4.23571965        2       0.00000000      -0.11104119      -0.04879917       0.01008429
Ni       7.75672440       1.44560827       4.32024828        2       1.00000000       0.04571235      -0.03721960      -0.09912916
Ni       1.26328685       3.63582769       4.34210022        2       1.00000000      -0.02331850      -0.05932477      -0.06734401
Ni       3.82187110       3.66735858       4.30337241        2       1.00000000      -0.08295191       0.00601989      -0.13680120
Pt       6.53863383       3.66482598       4.31901687        2       0.00000000       0.08016727      -0.03215518      -0.12180552
Ni       9.08903170       3.67524001       4.29974564        2       1.00000000       0.18054957       0.01508559      -0.13581343
Ni       2.53681503       5.86696599       4.33964949        2       1.00000000      -0.05257313       0.00828538      -0.07074630
Pt       5.19463438       5.88760454       4.36322754        2       0.00000000       0.11358870       0.04581335      -0.02278721
Ni       7.75096688       5.85475292       4.31127642        2       1.00000000       0.01423104       0.00636519      -0.06093106
Ni      10.36329991       5.82251416       4.33915880        2       1.00000000       0.04669075      -0.07995361       0.04479507
Pt       3.84149078       8.08339812       4.25100238        2       0.00000000      -0.00926598      -0.01028152       0.07980814
Ni       6.44861872       8.10713251       4.24082299        2       1.00000000      -0.11983184       0.13753502      -0.19121639
Pt       8.95800316       8.04671158       4.21960659        2       0.00000000      -0.20771139      -0.00093786       0.06109265
Ni      11.64585783       8.04020664       4.26066710        2       1.00000000       0.03262869      -0.08124514      -0.04341551
Pt      -0.00348208      -0.08275040       6.55783734        1       0.00000000       0.08096234      -0.00430089       0.12267613
Pt       2.54584337      -0.05770848       6.54287554        1       0.00000000      -0.08308849       0.01827722       0.20071553
Pt       5.18613119      -0.07512160       6.45472388        1       0.00000000       0.01730037       0.02433940      -0.38328968
Pt       7.74330214      -0.08984665       6.53816274        1       0.00000000      -0.06517826       0.03265793       0.13330613
Ni       1.26457483       2.19883238       6.40850826        1       1.00000000       0.00444298       0.05759613      -0.27922646
Pt       3.87113098       2.23616150       6.42532848        1       0.00000000       0.05021451       0.13100368      -0.21462434
Ni       6.46743663       2.20307993       6.42786577        1       1.00000000       0.02211648       0.03254805      -0.24594367
Pt       9.04998532       2.25549283       6.36456861        1       0.00000000       0.01783797       0.08602630      -0.31342036
Pt       2.52056838       4.45017825       6.45326563        1       0.00000000      -0.02088354       0.07142190       0.00389210
Ni       5.18718537       4.40444387       6.40306981        1       1.00000000       0.01565288       0.01059004      -0.31258494
Ni       7.71417219       4.38017863       6.47390823        1       1.00000000      -0.13819516      -0.03102324      -0.12142699
Ni      10.34953798       4.37809782       6.43769188        1       1.00000000       0.09687139      -0.03317166      -0.27149964
Ni       3.86748511       6.56876404       6.47811321        1       1.00000000       0.02373838      -0.01340126      -0.05964225
Ni       6.44412449       6.54594567       6.47297074        1       1.00000000       0.05969000      -0.04680072      -0.00017875
Pt       9.03297615       6.46294506       6.46902430        1       0.00000000      -0.01936566      -0.10486174       0.12551114
Ni      11.62840814       6.56660215       6.42687205        1       1.00000000      -0.06276532       0.08551707      -0.21209637
