   36   36  200    2
  0.1600000E+02  0.8485281E-09  0.8485281E-09  0.9237604E-09  0.2000000E-15
  1.000000000000000E-004
  CAR 
 unknown system                          
    360    144    240
