Automatically generated mesh
     144
Reciprocal lattice
    0.06250000000000    0.06250000000000    0.06250000000000             6
    0.00000000000000    0.06250000000000    0.06250000000000             6
    0.18750000000000    0.06250000000000    0.06250000000000            12
    0.12500000000000    0.18750000000000    0.06250000000000            12
    0.31250000000000    0.06250000000000    0.06250000000000            12
    0.25000000000000    0.31250000000000    0.06250000000000            12
    0.43750000000000    0.06250000000000    0.06250000000000            12
    0.37500000000000    0.43750000000000    0.06250000000000            12
   -0.43750000000000    0.06250000000000    0.06250000000000            12
    0.50000000000000   -0.43750000000000    0.06250000000000            12
   -0.31250000000000    0.06250000000000    0.06250000000000            12
   -0.37500000000000   -0.31250000000000    0.06250000000000            12
   -0.18750000000000    0.06250000000000    0.06250000000000            12
   -0.25000000000000   -0.18750000000000    0.06250000000000            12
   -0.06250000000000    0.06250000000000    0.06250000000000            12
    0.18750000000000    0.18750000000000    0.06250000000000             6
    0.00000000000000    0.18750000000000    0.06250000000000             6
    0.31250000000000    0.18750000000000    0.06250000000000            12
    0.12500000000000    0.31250000000000    0.06250000000000            12
    0.43750000000000    0.18750000000000    0.06250000000000            12
    0.25000000000000    0.43750000000000    0.06250000000000            12
   -0.43750000000000    0.18750000000000    0.06250000000000            12
    0.37500000000000   -0.43750000000000    0.06250000000000            12
   -0.31250000000000    0.18750000000000    0.06250000000000            12
    0.50000000000000   -0.31250000000000    0.06250000000000            12
   -0.18750000000000    0.18750000000000    0.06250000000000            12
    0.31250000000000    0.31250000000000    0.06250000000000             6
    0.00000000000000    0.31250000000000    0.06250000000000             6
    0.43750000000000    0.31250000000000    0.06250000000000            12
    0.12500000000000    0.43750000000000    0.06250000000000            12
   -0.43750000000000    0.31250000000000    0.06250000000000            12
    0.25000000000000   -0.43750000000000    0.06250000000000            12
   -0.31250000000000    0.31250000000000    0.06250000000000            12
    0.43750000000000    0.43750000000000    0.06250000000000             6
    0.00000000000000    0.43750000000000    0.06250000000000             6
   -0.43750000000000    0.43750000000000    0.06250000000000            12
    0.06250000000000    0.06250000000000    0.18750000000000             6
    0.00000000000000    0.06250000000000    0.18750000000000             6
    0.18750000000000    0.06250000000000    0.18750000000000            12
    0.12500000000000    0.18750000000000    0.18750000000000            12
    0.31250000000000    0.06250000000000    0.18750000000000            12
    0.25000000000000    0.31250000000000    0.18750000000000            12
    0.43750000000000    0.06250000000000    0.18750000000000            12
    0.37500000000000    0.43750000000000    0.18750000000000            12
   -0.43750000000000    0.06250000000000    0.18750000000000            12
    0.50000000000000   -0.43750000000000    0.18750000000000            12
   -0.31250000000000    0.06250000000000    0.18750000000000            12
   -0.37500000000000   -0.31250000000000    0.18750000000000            12
   -0.18750000000000    0.06250000000000    0.18750000000000            12
   -0.25000000000000   -0.18750000000000    0.18750000000000            12
   -0.06250000000000    0.06250000000000    0.18750000000000            12
    0.18750000000000    0.18750000000000    0.18750000000000             6
    0.00000000000000    0.18750000000000    0.18750000000000             6
    0.31250000000000    0.18750000000000    0.18750000000000            12
    0.12500000000000    0.31250000000000    0.18750000000000            12
    0.43750000000000    0.18750000000000    0.18750000000000            12
    0.25000000000000    0.43750000000000    0.18750000000000            12
   -0.43750000000000    0.18750000000000    0.18750000000000            12
    0.37500000000000   -0.43750000000000    0.18750000000000            12
   -0.31250000000000    0.18750000000000    0.18750000000000            12
    0.50000000000000   -0.31250000000000    0.18750000000000            12
   -0.18750000000000    0.18750000000000    0.18750000000000            12
    0.31250000000000    0.31250000000000    0.18750000000000             6
    0.00000000000000    0.31250000000000    0.18750000000000             6
    0.43750000000000    0.31250000000000    0.18750000000000            12
    0.12500000000000    0.43750000000000    0.18750000000000            12
   -0.43750000000000    0.31250000000000    0.18750000000000            12
    0.25000000000000   -0.43750000000000    0.18750000000000            12
   -0.31250000000000    0.31250000000000    0.18750000000000            12
    0.43750000000000    0.43750000000000    0.18750000000000             6
    0.00000000000000    0.43750000000000    0.18750000000000             6
   -0.43750000000000    0.43750000000000    0.18750000000000            12
    0.06250000000000    0.06250000000000    0.31250000000000             6
    0.00000000000000    0.06250000000000    0.31250000000000             6
    0.18750000000000    0.06250000000000    0.31250000000000            12
    0.12500000000000    0.18750000000000    0.31250000000000            12
    0.31250000000000    0.06250000000000    0.31250000000000            12
    0.25000000000000    0.31250000000000    0.31250000000000            12
    0.43750000000000    0.06250000000000    0.31250000000000            12
    0.37500000000000    0.43750000000000    0.31250000000000            12
   -0.43750000000000    0.06250000000000    0.31250000000000            12
    0.50000000000000   -0.43750000000000    0.31250000000000            12
   -0.31250000000000    0.06250000000000    0.31250000000000            12
   -0.37500000000000   -0.31250000000000    0.31250000000000            12
   -0.18750000000000    0.06250000000000    0.31250000000000            12
   -0.25000000000000   -0.18750000000000    0.31250000000000            12
   -0.06250000000000    0.06250000000000    0.31250000000000            12
    0.18750000000000    0.18750000000000    0.31250000000000             6
    0.00000000000000    0.18750000000000    0.31250000000000             6
    0.31250000000000    0.18750000000000    0.31250000000000            12
    0.12500000000000    0.31250000000000    0.31250000000000            12
    0.43750000000000    0.18750000000000    0.31250000000000            12
    0.25000000000000    0.43750000000000    0.31250000000000            12
   -0.43750000000000    0.18750000000000    0.31250000000000            12
    0.37500000000000   -0.43750000000000    0.31250000000000            12
   -0.31250000000000    0.18750000000000    0.31250000000000            12
    0.50000000000000   -0.31250000000000    0.31250000000000            12
   -0.18750000000000    0.18750000000000    0.31250000000000            12
    0.31250000000000    0.31250000000000    0.31250000000000             6
    0.00000000000000    0.31250000000000    0.31250000000000             6
    0.43750000000000    0.31250000000000    0.31250000000000            12
    0.12500000000000    0.43750000000000    0.31250000000000            12
   -0.43750000000000    0.31250000000000    0.31250000000000            12
    0.25000000000000   -0.43750000000000    0.31250000000000            12
   -0.31250000000000    0.31250000000000    0.31250000000000            12
    0.43750000000000    0.43750000000000    0.31250000000000             6
    0.00000000000000    0.43750000000000    0.31250000000000             6
   -0.43750000000000    0.43750000000000    0.31250000000000            12
    0.06250000000000    0.06250000000000    0.43750000000000             6
    0.00000000000000    0.06250000000000    0.43750000000000             6
    0.18750000000000    0.06250000000000    0.43750000000000            12
    0.12500000000000    0.18750000000000    0.43750000000000            12
    0.31250000000000    0.06250000000000    0.43750000000000            12
    0.25000000000000    0.31250000000000    0.43750000000000            12
    0.43750000000000    0.06250000000000    0.43750000000000            12
    0.37500000000000    0.43750000000000    0.43750000000000            12
   -0.43750000000000    0.06250000000000    0.43750000000000            12
    0.50000000000000   -0.43750000000000    0.43750000000000            12
   -0.31250000000000    0.06250000000000    0.43750000000000            12
   -0.37500000000000   -0.31250000000000    0.43750000000000            12
   -0.18750000000000    0.06250000000000    0.43750000000000            12
   -0.25000000000000   -0.18750000000000    0.43750000000000            12
   -0.06250000000000    0.06250000000000    0.43750000000000            12
    0.18750000000000    0.18750000000000    0.43750000000000             6
    0.00000000000000    0.18750000000000    0.43750000000000             6
    0.31250000000000    0.18750000000000    0.43750000000000            12
    0.12500000000000    0.31250000000000    0.43750000000000            12
    0.43750000000000    0.18750000000000    0.43750000000000            12
    0.25000000000000    0.43750000000000    0.43750000000000            12
   -0.43750000000000    0.18750000000000    0.43750000000000            12
    0.37500000000000   -0.43750000000000    0.43750000000000            12
   -0.31250000000000    0.18750000000000    0.43750000000000            12
    0.50000000000000   -0.31250000000000    0.43750000000000            12
   -0.18750000000000    0.18750000000000    0.43750000000000            12
    0.31250000000000    0.31250000000000    0.43750000000000             6
    0.00000000000000    0.31250000000000    0.43750000000000             6
    0.43750000000000    0.31250000000000    0.43750000000000            12
    0.12500000000000    0.43750000000000    0.43750000000000            12
   -0.43750000000000    0.31250000000000    0.43750000000000            12
    0.25000000000000   -0.43750000000000    0.43750000000000            12
   -0.31250000000000    0.31250000000000    0.43750000000000            12
    0.43750000000000    0.43750000000000    0.43750000000000             6
    0.00000000000000    0.43750000000000    0.43750000000000             6
   -0.43750000000000    0.43750000000000    0.43750000000000            12
