       N       E                     dE             d eps       ncg     rms          rms(c)
DAV:   1     0.204484095288E+04    0.20448E+04   -0.15388E+05138310   0.117E+03
DAV:   2    -0.108932747259E+03   -0.21538E+04   -0.20240E+04149700   0.294E+02
DAV:   3    -0.197945042810E+03   -0.89012E+02   -0.83755E+02149140   0.555E+01
DAV:   4    -0.199125865405E+03   -0.11808E+01   -0.11760E+01148300   0.652E+00
DAV:   5    -0.199140507013E+03   -0.14642E-01   -0.14637E-01147780   0.736E-01    0.694E+01
RMM:   6    -0.189602492046E+03    0.95380E+01   -0.22151E+01138240   0.999E+00    0.396E+01
RMM:   7    -0.199321619003E+03   -0.97191E+01   -0.11866E+01138240   0.641E+00    0.359E+01
RMM:   8    -0.190555163410E+03    0.87665E+01   -0.64609E+00138240   0.461E+00    0.146E+01
RMM:   9    -0.190135844415E+03    0.41932E+00   -0.50689E-01138240   0.144E+00    0.385E+00
RMM:  10    -0.190145036858E+03   -0.91924E-02   -0.31472E-01138240   0.108E+00    0.171E+00
RMM:  11    -0.190135605484E+03    0.94314E-02   -0.14734E-02138241   0.239E-01    0.597E-01
RMM:  12    -0.190141787551E+03   -0.61821E-02   -0.31210E-03138240   0.104E-01    0.481E-01
RMM:  13    -0.190143920994E+03   -0.21334E-02   -0.64273E-04138242   0.478E-02    0.183E-01
RMM:  14    -0.190144643129E+03   -0.72214E-03   -0.25664E-04138240   0.326E-02    0.127E-01
RMM:  15    -0.190144822569E+03   -0.17944E-03   -0.15540E-04138234   0.242E-02    0.545E-02
RMM:  16    -0.190144876201E+03   -0.53631E-04   -0.49663E-05114368   0.140E-02    0.253E-02
RMM:  17    -0.190144882830E+03   -0.66297E-05   -0.12625E-05 78620   0.721E-03
   1 F= -.19014488E+03 E0= -.18998285E+03  d E =-.190145E+03  mag=    -0.0033
       N       E                     dE             d eps       ncg     rms          rms(c)
DAV:   1    -0.203193794706E+03   -0.13049E+02   -0.11988E+03139340   0.643E+01    0.197E+01
RMM:   2    -0.195922623941E+03    0.72712E+01   -0.21466E+01138240   0.111E+01    0.998E+00
RMM:   3    -0.196350322764E+03   -0.42770E+00   -0.34168E+00138240   0.368E+00    0.148E+01
RMM:   4    -0.194956208121E+03    0.13941E+01   -0.11643E+00138240   0.213E+00    0.517E+00
RMM:   5    -0.194831402405E+03    0.12481E+00   -0.30749E-01138240   0.107E+00    0.142E+00
RMM:   6    -0.194829288386E+03    0.21140E-02   -0.41143E-02138282   0.429E-01    0.174E-01
RMM:   7    -0.194829273457E+03    0.14929E-04   -0.59711E-03138404   0.140E-01    0.103E-01
RMM:   8    -0.194829430136E+03   -0.15668E-03   -0.13173E-03138649   0.603E-02    0.633E-02
RMM:   9    -0.194829466549E+03   -0.36414E-04   -0.32106E-04138152   0.307E-02    0.149E-02
RMM:  10    -0.194829474484E+03   -0.79345E-05   -0.81983E-05124955   0.154E-02
   2 F= -.19482947E+03 E0= -.19467001E+03  d E =-.468459E+01  mag=    -0.0002
       N       E                     dE             d eps       ncg     rms          rms(c)
