unknown system                          
           1
     8.485281    0.000000    0.000000
     4.242641    7.348469    0.000000
     0.000000    0.000000    9.237604
   Pt
    36
Direct configuration=     1
   0.00000000  0.00000000  0.00000000
   0.33333333  0.00000000  0.00000000
   0.66666667  0.00000000  0.00000000
   0.00000000  0.33333333  0.00000000
   0.33333333  0.33333333  0.00000000
   0.66666667  0.33333333  0.00000000
   0.00000000  0.66666667  0.00000000
   0.33333333  0.66666667  0.00000000
   0.66666667  0.66666667  0.00000000
   0.11111111  0.11111111  0.25000000
   0.44444444  0.11111111  0.25000000
   0.77777778  0.11111111  0.25000000
   0.11111111  0.44444444  0.25000000
   0.44444444  0.44444444  0.25000000
   0.77777778  0.44444444  0.25000000
   0.11111111  0.77777778  0.25000000
   0.44444444  0.77777778  0.25000000
   0.77777778  0.77777778  0.25000000
   0.88888889  0.22222222  0.50000000
   0.22222222  0.22222222  0.50000000
   0.55555556  0.22222222  0.50000000
   0.88888889  0.55555556  0.50000000
   0.22222222  0.55555556  0.50000000
   0.55555556  0.55555556  0.50000000
   0.88888889  0.88888889  0.50000000
   0.22222222  0.88888889  0.50000000
   0.55555556  0.88888889  0.50000000
   0.00000000  0.00000000  0.75000000
   0.33333333  0.00000000  0.75000000
   0.66666667  0.00000000  0.75000000
   0.00000000  0.33333333  0.75000000
   0.33333333  0.33333333  0.75000000
   0.66666667  0.33333333  0.75000000
   0.00000000  0.66666667  0.75000000
   0.33333333  0.66666667  0.75000000
   0.66666667  0.66666667  0.75000000
unknown system                          
           1
     8.440835   -0.000000    0.000000
     4.220418    7.309978    0.000000
     0.000000   -0.000000    9.708962
   Pt
    36
Direct configuration=     2
   0.00000000  1.00000000  0.00920443
   0.33333333  1.00000000  0.00920443
   0.66666667  1.00000000  0.00920443
   0.00000000  0.33333333  0.00920443
   0.33333333  0.33333333  0.00920443
   0.66666667  0.33333333  0.00920443
   0.00000000  0.66666667  0.00920443
   0.33333333  0.66666667  0.00920443
   0.66666667  0.66666667  0.00920443
   0.11111111  0.11111111  0.25009564
   0.44444444  0.11111111  0.25009564
   0.77777778  0.11111111  0.25009564
   0.11111111  0.44444444  0.25009564
   0.44444444  0.44444444  0.25009564
   0.77777778  0.44444444  0.25009564
   0.11111111  0.77777778  0.25009564
   0.44444444  0.77777778  0.25009564
   0.77777778  0.77777778  0.25009564
   0.88888889  0.22222222  0.49990436
   0.22222222  0.22222222  0.49990436
   0.55555556  0.22222222  0.49990436
   0.88888889  0.55555556  0.49990436
   0.22222222  0.55555556  0.49990436
   0.55555556  0.55555556  0.49990436
   0.88888889  0.88888889  0.49990436
   0.22222222  0.88888889  0.49990436
   0.55555556  0.88888889  0.49990436
   1.00000000  0.00000000  0.74079557
   0.33333333  0.00000000  0.74079557
   0.66666667  0.00000000  0.74079557
   1.00000000  0.33333333  0.74079557
   0.33333333  0.33333333  0.74079557
   0.66666667  0.33333333  0.74079557
   1.00000000  0.66666667  0.74079557
   0.33333333  0.66666667  0.74079557
   0.66666667  0.66666667  0.74079557
