64
Lattice="10.2935041968486 0.016391514630351548 -0.014193597536234358 5.160947566500689 8.86736588295199 -0.0026825174696606113 0.0 0.0 21.53479864312478" Properties=species:S:1:pos:R:3:tags:I:1:initial_magmoms:R:1:forces:R:3 unique_id=8d6b61831a26425a9c463e56c34125bf energy=-373.85450793421575 stress="0.005284202236299516 0.00025562000130785207 2.464388169099715e-05 0.00025562000130785207 0.0055535562904510515 -1.5193200286883241e-05 2.464388169099715e-05 -1.5193200286883241e-05 -0.0018982814475066861" pbc="T T T"
Ni      -0.00123785       0.02739387       0.12959921        1       1.00000000       0.09384663      -0.03033151      -0.23250228
Ni       2.56819406       0.01221631       0.16028365        2       1.00000000      -0.01930120       0.03366968      -0.18125970
Ni       5.14263677       0.00101192       0.10478406        1       1.00000000      -0.01931011       0.21604879      -0.42035675
Ni       7.72463036      -0.03245168       0.12229086        1       1.00000000      -0.08696209      -0.12505422      -0.25778524
Ni       1.25629994       2.22537855       0.05633453        1       1.00000000      -0.05016194       0.02878155       0.41117615
Pt       3.80143867       2.23749605       0.13586289        1       0.00000000       0.01016150       0.01442404      -0.55942250
Pt       6.46082380       2.17981819       0.05437760        1       0.00000000       0.00941228      -0.03404596      -0.03035075
Ni       9.05492384       2.23173218       0.08257777        1       1.00000000       0.04925273       0.11936750      -0.08962941
Ni       2.57276316       4.46363708       0.02004440        0       1.00000000       0.08005934      -0.00937696       0.24415145
Ni       5.12147415       4.46078299       0.13174246        1       1.00000000      -0.03879868       0.03104363       0.04424998
Pt       7.80077041       4.45384940       0.04390826        0       0.00000000       0.02234652       0.01812991      -0.00616264
Ni      10.33301928       4.44288059       0.01360627        0       1.00000000       0.05651755      -0.06886340       0.25948347
Ni       3.83157478       6.64932680       0.05946982        1       1.00000000      -0.02230954      -0.01344481       0.40917754
Pt       6.40957566       6.70033869       0.13254187        1       0.00000000      -0.05409627       0.03481359      -0.55235836
Ni       9.03868790       6.67360156       0.01492146        0       1.00000000      -0.12742933      -0.03011375       0.05954103
Ni      11.61308482       6.66052200       0.00000000        0       1.00000000       0.11849425       0.01626589       0.16940806
Ni       1.29460884       0.76612502       2.10063772        4       1.00000000      -0.00772816       0.13319530      -0.04193921
Ni       3.84972304       0.76028692       2.15205134        5       1.00000000       0.05665718       0.04066236       0.16251674
Ni       6.42359023       0.77999628       2.16310283        5       1.00000000      -0.05137334       0.19223051       0.23409847
Pt       9.01207250       0.79174779       2.12083926        4       0.00000000      -0.02318916       0.10182892       0.15232015
Ni       2.56823030       2.96690838       2.16100257        5       1.00000000       0.02810683       0.08631792       0.03503823
Ni       5.13999548       2.97994932       2.18292161        5       1.00000000      -0.07585838       0.03048254       0.17488816
Ni       7.73389609       2.98381094       2.17635098        5       1.00000000       0.03499730       0.08161154       0.19078259
Ni      10.29819329       2.96872094       2.14037301        4       1.00000000       0.04246225       0.02687570       0.10404718
Ni       3.89799580       5.17179400       2.15656907        5       1.00000000       0.09688526      -0.06208381       0.09997292
Ni       6.42399689       5.17516139       2.17535743        5       1.00000000      -0.03260630       0.02751206       0.12360736
Ni       8.99107333       5.16024476       2.16782189        5       1.00000000      -0.04707778      -0.14427898       0.19073609
Pt      11.63427134       5.12976319       2.10667453        4       0.00000000       0.07441923      -0.05710910       0.04342606
Ni       5.12231261       7.35621634       2.14359405        4       1.00000000      -0.19142982      -0.17382920       0.02552756
Ni       7.72582800       7.38794396       2.13602095        4       1.00000000       0.04412251      -0.10719695       0.03393572
Pt      10.28664945       7.40388333       2.04521811        3       0.00000000       0.02880575      -0.12974955      -0.11703068
Ni      12.90577588       7.37692497       2.09194656        4       1.00000000       0.08498724      -0.10795896      -0.01063738
Ni      -0.02030073       1.54318849       4.28661795        7       1.00000000      -0.07174984       0.06331182      -0.15672654
Pt       2.52837111       1.57977723       4.19601172        6       0.00000000      -0.02900957      -0.00298032      -0.01627499
Ni       5.16123829       1.52193724       4.26177724        7       1.00000000      -0.03982017       0.03998492      -0.29185337
Ni       7.72746507       1.52324022       4.27588500        7       1.00000000       0.05894331      -0.05791874      -0.22443069
Ni       1.28561493       3.69271395       4.33294728        7       1.00000000       0.00739598      -0.02201642      -0.04955583
Ni       3.84506182       3.75663002       4.24733120        6       1.00000000      -0.02224336       0.05872844      -0.31538051
Pt       6.45151644       3.69961861       4.23041647        6       0.00000000      -0.06113870       0.01306706       0.00126799
Ni       9.01287216       3.68626113       4.25654951        7       1.00000000       0.01814441      -0.14145531      -0.34993858
Ni       2.60417887       5.84989744       4.32822938        7       1.00000000       0.04834389      -0.15903466      -0.06839584
Ni       5.11932587       5.87296022       4.24714027        6       1.00000000      -0.03453292      -0.12733348      -0.34427375
Ni       7.73254855       5.86869448       4.26102784        7       1.00000000      -0.00539586      -0.07578216      -0.33375098
Pt      10.29685280       5.81782454       4.35298592        8       0.00000000       0.06316027      -0.02663461      -0.02261282
Pt       3.86696098       8.07244308       4.26206388        7       0.00000000       0.02707342      -0.08769351       0.06005467
Pt       6.42081746       8.10533479       4.16195745        6       0.00000000      -0.08596765       0.01992806      -0.21476978
Pt       8.99774630       8.12843351       4.25236448        7       0.00000000      -0.06938789       0.05575943      -0.02977610
Pt      11.60823246       8.15141650       4.22485618        6       0.00000000       0.03874380      -0.00862485      -0.06219819
Pt      -0.00571986       0.02430148       6.50809745       10       0.00000000      -0.01986368       0.16480788       0.29207305
Pt       2.56260001       0.00878370       6.53479864       10       0.00000000       0.07174257       0.03515380       0.44659430
Pt       5.15265181      -0.03474154       6.50589655       10       0.00000000      -0.02621618       0.14634647       0.51087317
Pt       7.70747575      -0.01497594       6.51447700       10       0.00000000       0.03263855       0.17150774       0.35944545
Ni       1.26669854       2.29242452       6.44173584        9       1.00000000      -0.02715745       0.13666065      -0.24021085
Pt       3.82594585       2.27787195       6.38672497        9       0.00000000       0.08625892      -0.00175639       0.57477872
Ni       6.44461325       2.24338833       6.36135753        9       1.00000000      -0.03608683      -0.05006646       0.11628798
Pt       9.01144449       2.33684626       6.42047147        9       0.00000000      -0.01482454      -0.05049129       0.04570585
Ni       2.51725882       4.47052651       6.42718369        9       1.00000000      -0.06605992      -0.01092676      -0.34014669
Pt       5.10911997       4.45623549       6.45629243       10       0.00000000      -0.04162929       0.02460195       0.05447334
Ni       7.75561709       4.45190770       6.35697935        9       1.00000000       0.02781445       0.10523278       0.01131638
Ni      10.32322555       4.45708411       6.45179644       10       1.00000000       0.06413281      -0.04925312      -0.15204305
Ni       3.81305982       6.60901445       6.44661215        9       1.00000000      -0.06991489      -0.04994051      -0.22538212
Pt       6.47489101       6.59895626       6.38145301        9       0.00000000       0.03176664      -0.12038018       0.50064366
Ni       9.04130984       6.58932983       6.45307868       10       1.00000000      -0.00604565      -0.12806339      -0.05600622
Ni      11.59692885       6.59518827       6.45455512       10       1.00000000       0.06698311      -0.00456311      -0.14843769
