64
Lattice="9.780568671597631 4.593387093297571e-17 3.31090314270575e-15 4.890284335798815 8.470220933061771 2.2073750735167728e-15 2.7033410958021107e-15 5.203584681017727e-16 8.35591559962331" Properties=species:S:1:pos:R:3:tags:I:1:initial_magmoms:R:1:forces:R:3 unique_id=d5325ae5a57647468c945c5a5e74a6b9 stress="-1.3450747169768684e-05 -8.995641040289466e-17 -1.0361380951109626e-16 -8.995641040289466e-17 -1.3450747169650723e-05 2.5776900815197887e-17 -1.0361380951109626e-16 2.5776900815197887e-17 -1.1099976980372128e-05" energy=-374.6436780318033 pbc="T T T"
Ni      -0.02640379      -0.04841841       0.11077920        4       1.00000000      -0.00832176      -0.01651474       0.03073998
Ni       2.47154595      -0.04841841       0.11077920        4       1.00000000       0.00832176      -0.01651474       0.03073998
Ni       4.89850249      -0.00474475       0.10664448        4       1.00000000       0.00956915      -0.00552475       0.01393170
Ni       7.32720835      -0.00474475       0.10664448        4       1.00000000      -0.00956915      -0.00552475       0.01393170
Pt       1.22257108       2.11755523       0.04859663        4       0.00000000       0.00000000      -0.00000000      -0.20921749
Ni       3.72284672       2.11889809       0.11077920        4       1.00000000       0.01846306       0.00105052       0.03073998
Ni       6.11285542       2.11813229       0.10753081        4       1.00000000      -0.00000000       0.00230040       0.02838631
Ni       8.50286412       2.11889809       0.11077920        4       1.00000000      -0.01846306       0.00105052       0.03073998
Ni       2.47387185       4.28218602       0.11077920        4       1.00000000       0.01014130       0.01546422       0.03073998
Ni       4.89861150       4.23991816       0.10919690        4       1.00000000       0.00903910       0.00521873       0.03778909
Ni       7.32709934       4.23991816       0.10919690        4       1.00000000      -0.00903910       0.00521873       0.03778909
Ni       9.75183899       4.28218602       0.11077920        4       1.00000000      -0.01014130       0.01546422       0.03073998
Ni       3.66821300       6.35237717       0.10753081        4       1.00000000       0.00199220      -0.00115020       0.02838631
Ni       6.11285542       6.34305031       0.10919690        4       1.00000000       0.00000000      -0.01043745       0.03778909
Ni       8.55749784       6.35237717       0.10753081        4       1.00000000      -0.00199220      -0.00115020       0.02838631
Ni      11.00313976       6.36215521       0.10664448        4       1.00000000       0.00000000       0.01104951       0.01393170
Ni       1.22257108       0.68155477       2.14792146        3       1.00000000       0.00000000       0.01335929      -0.04957553
Ni       3.67359450       0.70245620       2.11988705        3       1.00000000       0.01172532      -0.00676961       0.00659524
Ni       6.11285542       0.70594384       2.12108316        3       1.00000000      -0.00000000       0.00038804       0.02159873
Ni       8.55211634       0.70245620       2.11988705        3       1.00000000      -0.01172532      -0.00676961       0.00659524
Ni       2.46618397       2.83555547       2.14792146        3       1.00000000      -0.01156948      -0.00667964      -0.04957553
Ni       4.89779769       2.82624481       2.12716230        3       1.00000000      -0.00086533       0.00593148       0.04208056
Ni       7.32791315       2.82624481       2.12716230        3       1.00000000       0.00086533       0.00593148       0.04208056
Ni       9.75952687       2.83555547       2.14792146        3       1.00000000       0.01156948      -0.00667964      -0.04957553
Ni       3.67392756       4.94605005       2.12716230        3       1.00000000       0.00470414      -0.00371514       0.04208056
Ni       6.11285542       4.94096221       2.12417312        3       1.00000000       0.00000000       0.00000000       0.04436010
Ni       8.55178328       4.94605005       2.12716230        3       1.00000000      -0.00470414      -0.00371514       0.04208056
Ni      11.00313976       4.94775329       2.11988705        3       1.00000000      -0.00000000       0.01353923       0.00659524
Ni       4.88898529       7.05059178       2.12716230        3       1.00000000       0.00556948      -0.00221634       0.04208056
Ni       7.33672555       7.05059178       2.12716230        3       1.00000000      -0.00556948      -0.00221634       0.04208056
Ni       9.78048891       7.05847140       2.12108316        3       1.00000000      -0.00033606      -0.00019402       0.02159873
Ni      12.22579060       7.05847140       2.12108316        3       1.00000000       0.00033606      -0.00019402       0.02159873
Ni      -0.01202196       1.40476261       4.13494240        2       1.00000000      -0.02657621      -0.01534378      -0.08411688
Ni       2.45716413       1.40476261       4.13494240        2       1.00000000       0.02657621      -0.01534378      -0.08411688
Ni       4.89280133       1.41118815       4.14874421        2       1.00000000       0.00504186      -0.00206064      -0.00728032
Ni       7.33290951       1.41118815       4.14874421        2       1.00000000      -0.00504186      -0.00206064      -0.00728032
Ni       1.22257108       3.54314048       4.13494240        2       1.00000000       0.00000000       0.03068756      -0.08411688
Ni       3.67057909       3.53091332       4.15467263        2       1.00000000      -0.00657023      -0.00379333      -0.00544282
Ni       6.11285542       3.53024093       4.15141870        2       1.00000000       0.00000000       0.00297601       0.01286276
Ni       8.55513175       3.53091332       4.15467263        2       1.00000000       0.00657023      -0.00379333      -0.00544282
Ni       2.44595437       5.64925141       4.14874421        2       1.00000000       0.00073636       0.00539670      -0.00728032
Ni       4.89113496       5.64632285       4.15141870        2       1.00000000       0.00257730      -0.00148801       0.01286276
Ni       7.33457588       5.64632285       4.15141870        2       1.00000000      -0.00257730      -0.00148801       0.01286276
Ni       9.77975647       5.64925141       4.14874421        2       1.00000000      -0.00073636       0.00539670      -0.00728032
Ni       3.66600846       7.76244708       4.14874421        2       1.00000000      -0.00430550      -0.00333606      -0.00728032
Ni       6.11285542       7.76106000       4.15467263        2       1.00000000      -0.00000000       0.00758665      -0.00544282
Ni       8.55970238       7.76244708       4.14874421        2       1.00000000       0.00430550      -0.00333606      -0.00728032
Ni      11.00313976       7.76436919       4.14802521        2       1.00000000       0.00000000       0.00000000      -0.01030664
Ni      -0.00234286      -0.00113943       6.15709134        1       1.00000000      -0.00100025       0.01182016      -0.00264643
Ni       2.44748503      -0.00113943       6.15709134        1       1.00000000       0.00100025       0.01182016      -0.00264643
Ni       4.89069697      -0.00023823       6.16148902        1       1.00000000       0.00058908      -0.00034011      -0.01186312
Ni       7.33501387      -0.00023823       6.16148902        1       1.00000000      -0.00058908      -0.00034011      -0.01186312
Ni       1.22257108       2.11755523       6.03753112        1       1.00000000       0.00000000      -0.00000000      -0.13111472
Ni       3.66987146       2.11609597       6.15709134        1       1.00000000      -0.00973644      -0.00677632      -0.00264643
Ni       6.11285542       2.11717003       6.16215038        1       1.00000000      -0.00000000      -0.00226002      -0.00298148
Ni       8.55583938       2.11609597       6.15709134        1       1.00000000       0.00973644      -0.00677632      -0.00264643
Ni       2.44495751       4.23770916       6.15709134        1       1.00000000      -0.01073669      -0.00504384      -0.00264643
Ni       4.89021309       4.23506933       6.16339166        1       1.00000000      -0.00297406      -0.00171708       0.00912134
Ni       7.33549775       4.23506933       6.16339166        1       1.00000000       0.00297406      -0.00171708       0.00912134
Ni       9.78075333       4.23770916       6.15709134        1       1.00000000       0.01073669      -0.00504384      -0.00264643
Ni       3.66737965       6.35285830       6.16215038        1       1.00000000      -0.00195723       0.00113001      -0.00298148
Ni       6.11285542       6.35274797       6.16339166        1       1.00000000      -0.00000000       0.00343415       0.00912134
Ni       8.55833119       6.35285830       6.16215038        1       1.00000000       0.00195723       0.00113001      -0.00298148
Ni      11.00313976       6.35314217       6.16148902        1       1.00000000       0.00000000       0.00068021      -0.01186312
