64
Lattice="10.381394260501706 0.03600987695687056 -0.02544265886925385 5.221882598482654 8.967414308338398 0.005783055815920759 -0.02077384397645618 0.017446101723134082 8.89860739459351" Properties=species:S:1:pos:R:3:tags:I:1:initial_magmoms:R:1:forces:R:3 unique_id=34775236973b48efa33e2ff6d3f127f5 stress="0.0004321856218787376 -1.7931073078127833e-06 1.7633679124002198e-05 -1.7931073078127833e-06 0.0004402281378662401 7.719533573274362e-06 1.7633679124002198e-05 7.719533573274362e-06 0.0003921918128692928" energy=-402.57443645902237 pbc="T T T"
Ni      -0.03894890       0.00378167       0.18966790        4       1.00000000      -0.16191247       0.02224619       0.34808267
Ni       2.61536401      -0.00618637       0.09641284        4       1.00000000       0.10814423      -0.03139760       0.25386561
Ni       5.19279127      -0.00892293       0.13425032        4       1.00000000       0.01205048       0.01396733       0.19532952
Ni       7.80831023      -0.01621131       0.08503672        4       1.00000000       0.09391190      -0.18915536       0.21941896
Pt       1.27464742       2.20960749       0.13817414        4       0.00000000      -0.10123499      -0.04112864       0.16461379
Pt       3.88007807       2.19211814       0.10688979        4       0.00000000       0.01626161      -0.02635086      -0.04655635
Pt       6.53233975       2.14675067       0.03911485        4       0.00000000       0.09063580      -0.18679758      -0.19848297
Ni       9.09938537       2.23149864       0.11876171        4       1.00000000       0.00781461      -0.16928574       0.17259647
Ni       2.59004463       4.51341784       0.14050511        4       1.00000000       0.04075484      -0.01043406       0.21453896
Pt       5.18681184       4.51105643       0.14465025        4       0.00000000       0.05549354       0.01385074       0.29390434
Pt       7.88466012       4.51723293       0.00499364        4       0.00000000       0.16644907       0.01666924      -0.18417983
Ni      10.41698895       4.54635020       0.03720577        4       1.00000000       0.08575991       0.10239057       0.06000731
Ni       3.87410803       6.77443291       0.18210172        4       1.00000000      -0.05362055       0.11239108       0.30920401
Pt       6.51991149       6.83467755       0.19752398        4       0.00000000      -0.00633807       0.07349438       0.15988900
Ni       9.13684681       6.77731700       0.05184376        4       1.00000000       0.04940933       0.10318978       0.06198391
Ni      11.71321477       6.77160505       0.04857028        4       1.00000000       0.09118337       0.10403697       0.02184655
Ni       1.31657238       0.71937669       2.23148217        3       1.00000000       0.06721029       0.03485321      -0.09212176
Ni       3.85130258       0.77795492       2.23200294        3       1.00000000      -0.17015628       0.02961502       0.09326787
Ni       6.50151369       0.75115023       2.22223075        3       1.00000000       0.07198956      -0.06463457       0.07496594
Ni       9.08016545       0.73381181       2.18039570        3       1.00000000      -0.03956933      -0.07583760      -0.11115788
Ni       2.63600494       2.95781041       2.26632462        3       1.00000000       0.02041294      -0.09690171       0.10036533
Ni       5.16768794       2.97656509       2.25557196        3       1.00000000      -0.06714967      -0.03389152       0.00472289
Pt       7.76100871       2.93726723       2.25717701        3       0.00000000      -0.06317861      -0.09832922      -0.19980028
Pt      10.37659758       2.94230679       2.26352730        3       0.00000000       0.03730889      -0.12087651      -0.08606600
Pt       3.90058289       5.25371251       2.26807041        3       0.00000000      -0.01255741      -0.04209309      -0.01280702
Ni       6.50312098       5.26972270       2.25271918        3       1.00000000       0.01756438       0.05727351       0.01237712
Pt       9.05221903       5.30642854       2.29380722        3       0.00000000      -0.12245881       0.00004758       0.03933534
Pt      11.70648168       5.29139233       2.17628368        3       0.00000000      -0.11858012       0.04914936      -0.03751317
Ni       5.19887085       7.52537599       2.21881755        3       1.00000000      -0.06961000       0.08952756      -0.01026832
Ni       7.79323915       7.53999496       2.23957325        3       1.00000000       0.03137851       0.13606408       0.03777947
Pt      10.40020642       7.57300252       2.14926361        3       0.00000000      -0.03640227       0.01934655       0.02191759
Ni      13.01726018       7.55387693       2.18178631        3       1.00000000      -0.04157246       0.11086274      -0.05075407
Ni      -0.02649981       1.52158084       4.41433298        2       1.00000000      -0.08460036       0.07909127       0.01462261
Ni       2.59726692       1.52702094       4.39016052        2       1.00000000      -0.00428901       0.06742840      -0.23875952
Pt       5.14830999       1.55578505       4.36685415        2       0.00000000      -0.00074093      -0.02843000      -0.14004311
Ni       7.79419157       1.53073324       4.41640446        2       1.00000000      -0.02794468      -0.04199033      -0.08350034
Pt       1.29578113       3.75807391       4.39750793        2       0.00000000       0.09120352       0.00483220       0.09519566
Ni       3.86454203       3.73388201       4.40414320        2       1.00000000      -0.05011287       0.01607306      -0.09584349
Pt       6.56863586       3.75539336       4.40067536        2       0.00000000      -0.06465269       0.05484480      -0.01674853
Ni       9.10181130       3.78771209       4.43954449        2       1.00000000       0.12165547       0.04157857      -0.03341360
Ni       2.58706445       5.97361328       4.43195621        2       1.00000000      -0.00354857       0.02848432      -0.03630084
Pt       5.20173056       5.99342017       4.37067476        2       0.00000000       0.10600219       0.06933050       0.20588202
Ni       7.84305571       5.97740578       4.42392847        2       1.00000000       0.04819332       0.04069469      -0.01435567
Ni      10.37416816       5.98765235       4.46865692        2       1.00000000       0.00188265      -0.03226303       0.06249954
Pt       3.89670567       8.29225731       4.33765576        2       0.00000000      -0.05127978       0.04449703      -0.04715651
Pt       6.52087027       8.30900061       4.32904799        2       0.00000000       0.00669511       0.10709056       0.04197438
Pt       9.08032703       8.20201653       4.41747872        2       0.00000000      -0.04270766      -0.04482005       0.01651883
Pt      11.71739222       8.21523211       4.41537057        2       0.00000000       0.02904442      -0.04635428      -0.00138572
Pt      -0.02453559       0.02121019       6.65166690        1       0.00000000      -0.03968588      -0.05318543       0.20074666
Ni       2.61323177       0.01645534       6.60538007        1       1.00000000       0.09523776      -0.05258330      -0.11846189
Pt       5.17533575       0.01433301       6.66226945        1       0.00000000      -0.01548543      -0.02298874       0.15441453
Ni       7.74221243       0.05880102       6.59718732        1       1.00000000      -0.06569462       0.09790461      -0.10358332
Pt       1.32877350       2.22143753       6.53051451        1       0.00000000       0.04384671      -0.01736505      -0.28002955
Ni       3.88458649       2.24053152       6.52727571        1       1.00000000      -0.04466001      -0.06681774      -0.22842309
Ni       6.48924956       2.24039192       6.51668012        1       1.00000000      -0.02994433      -0.14982804      -0.34292470
Pt       9.00667062       2.33374613       6.55971526        1       0.00000000       0.01163511       0.03928341       0.06908199
Pt       2.54313288       4.51583868       6.62345361        1       0.00000000      -0.12699065       0.01130014       0.09663792
Pt       5.21333292       4.41568807       6.55482369        1       0.00000000       0.00984341      -0.08241616      -0.23102056
Ni       7.83603460       4.52106211       6.49454793        1       1.00000000       0.15302324       0.10164510      -0.35434481
Ni      10.34221919       4.57110534       6.56909482        1       1.00000000      -0.09539152       0.06685087      -0.19381809
Pt       3.81794307       6.77548507       6.65342581        1       0.00000000      -0.09915826       0.07647979       0.15726781
Pt       6.61203729       6.73194107       6.55892565        1       0.00000000       0.12618837       0.01745533      -0.06640278
Ni       9.13137820       6.71514022       6.58977411        1       1.00000000       0.18456706      -0.14425904      -0.16254694
Ni      11.64125872       6.74832178       6.59401527        1       1.00000000      -0.18152331      -0.08342530      -0.15608388
