64
Lattice="10.37586967851554 -0.04395688756453437 0.014570143613487425 5.149867057955588 8.999242861818239 -0.021593488453556912 0.011896472444038408 -0.02722696772128427 8.931703789587031" Properties=species:S:1:pos:R:3:tags:I:1:initial_magmoms:R:1:forces:R:3 unique_id=e9f6aa0ed7e742608cedc1d00c136a88 stress="0.000602840900228746 -5.073058129168332e-07 -1.7924324879101963e-05 -5.073058129168332e-07 0.0006012234702403238 7.514827817310831e-07 -1.7924324879101963e-05 7.514827817310831e-07 0.0005419145440140674" energy=-404.19931140043576 pbc="T T T"
Ni       0.04851414      -0.00020652       0.15999446        4       1.00000000       0.19446496       0.04243714       0.27691392
Ni       2.54806045      -0.00023373       0.18898267        4       1.00000000      -0.17814440       0.07516152       0.46019657
Pt       5.09209218      -0.04069803       0.13420770        4       0.00000000      -0.09550345       0.01916978       0.13378198
Pt       7.84776259      -0.10164531       0.16755344        4       0.00000000       0.07727136      -0.04690637       0.28292521
Ni       1.29546273       2.25431528       0.09195811        4       1.00000000      -0.00293466       0.01476390       0.30762215
Pt       3.78422812       2.29173689       0.12138885        4       0.00000000      -0.02648428       0.04990298      -0.04415866
Pt       6.45162677       2.29121364       0.16426710        4       0.00000000      -0.02812957       0.10881616       0.19463010
Pt       9.17263590       2.24838971       0.15839471        4       0.00000000       0.04783608      -0.01058287       0.15109338
Ni       2.57959291       4.48230459       0.06682387        4       1.00000000       0.07166738      -0.05055496       0.14875429
Ni       5.12846081       4.51337006       0.16634343        4       1.00000000      -0.10214847       0.12991243       0.38879899
Pt       7.80321862       4.54043881       0.12026969        4       0.00000000       0.04752970       0.09926763      -0.02870847
Ni      10.38689935       4.44746872       0.07545721        4       1.00000000       0.13695397      -0.09442115       0.21297859
Ni       3.87730183       6.70663985       0.15980939        4       1.00000000       0.05036965      -0.19649411       0.41946129
Pt       6.42486642       6.78061484       0.18399431        4       0.00000000      -0.04961787       0.02148601      -0.03422901
Ni       9.03277986       6.71150613       0.14517325        4       1.00000000      -0.11343397      -0.00021777       0.34039474
Pt      11.66445375       6.61692932       0.03219631        4       0.00000000       0.03860267      -0.10301172      -0.21800728
Ni       1.33333318       0.73447720       2.22943419        3       1.00000000       0.18222966      -0.01513655       0.02116709
Ni       3.83124500       0.76094065       2.25555414        3       1.00000000      -0.11609195       0.08289578      -0.00361848
Pt       6.43505292       0.77647657       2.31346962        3       0.00000000      -0.14980322       0.08458038      -0.12789500
Pt       9.20788338       0.70274731       2.28902363        3       0.00000000       0.15847189       0.05177770      -0.10660536
Ni       2.59142198       2.97554701       2.24295152        3       1.00000000       0.01148652      -0.01638627       0.10149848
Ni       5.12777263       3.03244923       2.27133225        3       1.00000000      -0.25933167       0.15649701       0.07714510
Ni       7.79425241       3.03250784       2.26989350        3       1.00000000       0.13243521       0.15475515      -0.02444292
Ni      10.39202892       2.96162920       2.27587134        3       1.00000000       0.11544685      -0.01775209       0.18922995
Ni       3.90807106       5.23337349       2.23952038        3       1.00000000       0.12890744      -0.03885984       0.14318220
Ni       6.44887983       5.24196724       2.26436467        3       1.00000000      -0.08223933       0.17566537      -0.02339878
Ni       9.02349978       5.18447522       2.26136814        3       1.00000000      -0.10227533      -0.16220110       0.17349741
Pt      11.70963798       5.12460939       2.23232947        3       0.00000000       0.16116678      -0.07746314      -0.03185005
Ni       5.17982985       7.45325609       2.24560527        3       1.00000000       0.11165516      -0.19185466       0.08714734
Ni       7.70144876       7.48075535       2.24304217        3       1.00000000      -0.23785176      -0.03532435       0.07910277
Pt      10.27430807       7.40460495       2.22301489        3       0.00000000       0.01233852      -0.14241705      -0.19253228
Ni      12.98617137       7.40205966       2.24302141        3       1.00000000       0.09900538      -0.23761175       0.01722365
Ni       0.03361273       1.49645495       4.41941854        2       1.00000000       0.14324732      -0.03042238      -0.08119208
Pt       2.58949070       1.50800901       4.37446762        2       0.00000000       0.03594964      -0.07564774      -0.10878334
Ni       5.15282817       1.51103207       4.42693331        2       1.00000000      -0.07829101       0.16183668      -0.09633889
Pt       7.82751153       1.52533258       4.39311793        2       0.00000000       0.12483425       0.09020849       0.08520073
Pt       1.29620624       3.71864566       4.47121327        2       0.00000000      -0.00430374      -0.03122376       0.02220823
Ni       3.88390802       3.75083514       4.40980932        2       1.00000000      -0.00827889       0.10180754      -0.24737378
Pt       6.45226597       3.80482375       4.32514050        2       0.00000000      -0.09236680      -0.01213954      -0.06040318
Ni       9.06102654       3.73074444       4.40981090        2       1.00000000      -0.07398536       0.04919357      -0.29343842
Ni       2.61252045       5.94579964       4.41539995        2       1.00000000       0.14199908      -0.20623466      -0.20336663
Ni       5.16444262       5.96268813       4.36759163        2       1.00000000      -0.01047953      -0.08549411      -0.28819606
Ni       7.73728196       5.95326104       4.38504027        2       1.00000000      -0.10106181       0.03329571      -0.28893051
Pt      10.31950982       5.87733264       4.43771671        2       0.00000000      -0.14703176      -0.04800142      -0.06075491
Pt       3.95549340       8.15788375       4.33527674        2       0.00000000       0.03942277      -0.15534215       0.10136781
Ni       6.45242857       8.20923304       4.36941683        2       1.00000000      -0.01241570      -0.05313739      -0.24832497
Pt       8.95601619       8.20415306       4.34435889        2       0.00000000      -0.07220933      -0.06049523       0.04723439
Pt      11.66701000       8.15258579       4.38891317        2       0.00000000       0.10112067      -0.10455412      -0.02155654
Pt       0.03162812       0.03145722       6.63899742        1       0.00000000       0.01342997       0.06592229       0.04945684
Pt       2.59905081       0.04686849       6.68024022        1       0.00000000      -0.02833387       0.07947427       0.21714137
Pt       5.17505153      -0.03025282       6.56856746        1       0.00000000       0.02825172      -0.00980498      -0.36207621
Pt       7.79540596      -0.06642890       6.60743921        1       0.00000000      -0.01011990       0.09451507      -0.19540676
Ni       1.32562207       2.28580503       6.62656290        1       1.00000000       0.14720465       0.13868292      -0.06286597
Ni       3.84863637       2.25640372       6.56022015        1       1.00000000      -0.13660880       0.11155608      -0.26518629
Pt       6.46278453       2.25418438       6.57052460        1       0.00000000       0.03408053       0.10489230      -0.21294521
Pt       9.16326444       2.31945647       6.56231399        1       0.00000000       0.13334712       0.23317864      -0.16193411
Ni       2.54034133       4.45638103       6.61743214        1       1.00000000      -0.15010699      -0.07947563      -0.13725613
Pt       5.10437156       4.43698529       6.62259107        1       0.00000000      -0.15895048      -0.05081931       0.08454661
Ni       7.78614285       4.45971756       6.55444024        1       1.00000000      -0.07253898       0.03905524      -0.29604889
Ni      10.40988751       4.45445537       6.63725983        1       1.00000000       0.23110334       0.11242918      -0.06257675
Pt       3.79611040       6.66334549       6.61852497        1       0.00000000      -0.14314276      -0.01649017       0.15564497
Pt       6.47319830       6.68828185       6.51366534        1       0.00000000      -0.07874982      -0.01212402      -0.15291950
Pt       9.09453565       6.61910686       6.66702312        1       0.00000000      -0.00579710      -0.06747223       0.17493775
Ni      11.65228736       6.64178523       6.54991741        1       1.00000000      -0.02306766      -0.14706233      -0.40116250
