64
Lattice="10.429504390774506 0.021824710938883364 0.023309964049849946 5.233652949490578 9.01790198954928 -0.0045685623035388295 0.019032505948251018 -0.015295704279383206 8.922760391319574" Properties=species:S:1:pos:R:3:tags:I:1:initial_magmoms:R:1:forces:R:3 unique_id=03f74a29f0024f36801240bae40874cd stress="0.0005678108979372473 -3.547427393439709e-06 7.144533237632467e-06 -3.547427393439709e-06 0.0005606628644375042 3.6875873293720645e-06 7.144533237632467e-06 3.6875873293720645e-06 0.0005065046332468626" energy=-403.5796717189596 pbc="T T T"
Ni      -0.03720240       0.00152054       0.16613402        4       1.00000000      -0.27154367      -0.04356131       0.23276860
Ni       2.62380252      -0.00865753       0.15968288        4       1.00000000       0.17332185      -0.07754875       0.25617745
Ni       5.23409435      -0.02025622       0.15372473        4       1.00000000       0.08713396       0.01178374       0.24858711
Ni       7.84800276      -0.02085741       0.12292632        4       1.00000000       0.07909021      -0.14388159       0.22849279
Ni       1.30111797       2.26603950       0.14915778        4       1.00000000      -0.00186356       0.05702198       0.25884030
Pt       3.86392264       2.30827787       0.14275618        4       0.00000000      -0.05919566       0.12718933       0.16193383
Pt       6.54144401       2.19775684       0.15497515        4       0.00000000       0.07231715      -0.09955847       0.04137706
Ni       9.14971692       2.23910156       0.15946443        4       1.00000000      -0.07536036      -0.17411176       0.21079082
Ni       2.60715973       4.52609098       0.05787605        4       1.00000000      -0.01404394       0.10017509       0.00036942
Ni       5.22232002       4.52050560       0.14445123        4       1.00000000       0.20305708      -0.04044856       0.18330062
Pt       7.90358370       4.54012900       0.08679066        4       0.00000000       0.13399441      -0.05792728      -0.11664818
Ni      10.46649057       4.54141039       0.06285029        4       1.00000000       0.09170630       0.09156034      -0.05992382
Ni       3.90082487       6.78656749       0.17061415        4       1.00000000      -0.06356952       0.13633805       0.32480312
Pt       6.51785965       6.81419403       0.20239233        4       0.00000000      -0.04672688       0.05067617       0.11386392
Ni       9.16849210       6.78115055       0.08098926        4       1.00000000       0.04578361       0.00387159       0.05674221
Ni      11.76419791       6.78703369       0.07011554        4       1.00000000       0.13665852       0.07271515      -0.02978334
Pt       1.28137130       0.70255732       2.15228640        3       0.00000000      -0.00694115      -0.02400081      -0.00776166
Pt       3.97606750       0.77146206       2.24723442        3       0.00000000       0.14314001       0.12340111      -0.05748484
Ni       6.55952738       0.74401583       2.26892981        3       1.00000000       0.14901500      -0.02795057       0.03871497
Ni       9.08972017       0.73155353       2.21596738        3       1.00000000      -0.18951645      -0.02771023      -0.11165029
Ni       2.62379241       3.02670546       2.24247593        3       1.00000000      -0.00579849       0.06083236       0.06833340
Ni       5.22914436       3.02015436       2.29091384        3       1.00000000       0.02605617      -0.00299303       0.13009298
Pt       7.79064283       3.01672437       2.36379094        3       0.00000000      -0.10852468       0.02992305      -0.02272638
Pt      10.40804392       3.03893588       2.18323249        3       0.00000000      -0.11798532       0.10057568      -0.04629862
Pt       3.96815534       5.24061552       2.17500086        3       0.00000000       0.00884620      -0.07625896      -0.05253675
Ni       6.56425806       5.26547591       2.26102413        3       1.00000000       0.18803659      -0.01529880      -0.01408464
Ni       9.11219360       5.29103652       2.28242899        3       1.00000000      -0.06681013       0.04460628       0.15615131
Pt      11.75366432       5.28460270       2.17424678        3       0.00000000       0.03897585      -0.00106153      -0.10390963
Ni       5.20349168       7.51650312       2.21695036        3       1.00000000      -0.15010635      -0.02279385      -0.02916724
Ni       7.85219580       7.47114620       2.24142613        3       1.00000000       0.08877980      -0.18516023       0.05018624
Pt      10.45027806       7.49831635       2.16648372        3       0.00000000       0.02526468      -0.11137042      -0.04864894
Ni      13.07686592       7.56999304       2.20442453        3       1.00000000      -0.01288988       0.06047084      -0.12243113
Pt      -0.06479047       1.54197475       4.38672003        2       0.00000000      -0.15598815       0.03319619      -0.01128358
Pt       2.66018567       1.54795262       4.37669780        2       0.00000000      -0.06480701       0.05392133       0.02124442
Ni       5.26429039       1.54688983       4.40664909        2       1.00000000       0.06710814       0.12315881      -0.21942000
Ni       7.80677701       1.53795737       4.41996427        2       1.00000000      -0.04851282       0.01782472      -0.11470592
Pt       1.27245410       3.80238951       4.45574157        2       0.00000000      -0.12312438       0.05456649      -0.03177971
Ni       3.96390017       3.74326865       4.40603225        2       1.00000000       0.06238078      -0.05413545      -0.21746394
Ni       6.55829992       3.74337067       4.42899903        2       1.00000000      -0.00203922      -0.03244250      -0.01836049
Ni       9.09682828       3.82398326       4.46643108        2       1.00000000      -0.07426148       0.15278105      -0.05856641
Pt       2.59839172       5.98556432       4.45262240        2       0.00000000       0.00783354       0.03058454      -0.07393302
Pt       5.29590254       5.91819095       4.35002178        2       0.00000000       0.12495600      -0.05838311      -0.01115156
Ni       7.89678486       5.93979438       4.42288610        2       1.00000000       0.08337054      -0.19618457      -0.19844207
Ni      10.40204204       5.99004737       4.49160781        2       1.00000000      -0.08239581      -0.06698302      -0.05789021
Pt       3.90786072       8.27772168       4.34565698        2       0.00000000       0.06636960      -0.04750841      -0.11375005
Pt       6.56259047       8.21678821       4.35524949        2       0.00000000      -0.00047023      -0.09509999       0.01897562
Pt       9.16787077       8.17490301       4.43128726        2       0.00000000      -0.04746758      -0.09695377       0.05622047
Pt      11.76231843       8.32408280       4.41506962        2       0.00000000      -0.04603488       0.08722310      -0.10202898
Pt      -0.03806879      -0.00875518       6.70237034        1       0.00000000      -0.05083699       0.02767245       0.10922557
Pt       2.64347963      -0.03524929       6.70185150        1       0.00000000      -0.00927102       0.00804026       0.09151075
Pt       5.28082455      -0.08715811       6.69778080        1       0.00000000       0.06120072      -0.21534475       0.13159126
Ni       7.82230638       0.00245878       6.65115498        1       1.00000000       0.02398856       0.05397569      -0.15185150
Pt       1.30342751       2.33586614       6.70378454        1       0.00000000      -0.01925938       0.11889572       0.15968728
Pt       3.93261013       2.28576739       6.55776526        1       0.00000000      -0.02987175      -0.05499230      -0.27315504
Pt       6.56332700       2.24369209       6.51265688        1       0.00000000       0.00375550      -0.05137925      -0.14171941
Pt       9.11444476       2.34372083       6.66213640        1       0.00000000       0.03802754       0.20367172       0.11077326
Ni       2.59003061       4.52426135       6.63605262        1       1.00000000      -0.12786003       0.08314968      -0.15383639
Pt       5.23485499       4.50370120       6.63150610        1       0.00000000      -0.04268891       0.05931205       0.03280835
Ni       7.88989998       4.52918170       6.53232459        1       1.00000000       0.09776394       0.07328490      -0.31417375
Ni      10.43138514       4.58391534       6.63363468        1       1.00000000      -0.10465762       0.24845775      -0.19837522
Pt       3.83168570       6.75112044       6.70378528        1       0.00000000      -0.13957867       0.04154249       0.24633636
Pt       6.62453877       6.69456184       6.58925325        1       0.00000000       0.09190148      -0.00248672      -0.07947780
Ni       9.19210249       6.69854415       6.62451905        1       1.00000000       0.11005444      -0.21769936      -0.18585780
Ni      11.72337263       6.72763877       6.65383825        1       1.00000000      -0.16988619      -0.22117037      -0.18962117
