64
Lattice="10.295866435766335 -0.008809548534957112 0.023546641683019648 5.140303925056021 8.849853451603837 0.023321301307860125 0.0 0.0 21.517677909755204" Properties=species:S:1:pos:R:3:tags:I:1:initial_magmoms:R:1:forces:R:3 unique_id=e45ae49017d1458aabbc17527fdb65a5 energy=-373.71253096470656 stress="0.005484347156489317 -7.69102308252615e-05 0.0002708710167414875 -7.69102308252615e-05 0.004939476268103007 0.00023730077854989325 0.0002708710167414875 0.00023730077854989325 -0.0024263278982558853" pbc="T T T"
Ni       0.01482660       0.01810979       0.11683669        1       1.00000000       0.10720281       0.00497823      -0.27801256
Ni       2.57033020      -0.00101304       0.15159972        2       1.00000000       0.01176725       0.00176315      -0.17779411
Ni       5.14923849      -0.00910541       0.09942115        1       1.00000000       0.00668909       0.19974844      -0.27078500
Ni       7.72906042      -0.00643722       0.09513589        1       1.00000000      -0.04430080       0.12361483      -0.45503206
Ni       1.25547343       2.22309189       0.12889940        1       1.00000000      -0.08151320       0.06387447       0.00255358
Pt       3.81645937       2.22460470       0.12854918        1       0.00000000       0.01241945      -0.02370878      -0.55040425
Pt       6.49064102       2.22646636       0.05667234        1       0.00000000       0.08092995      -0.06122807      -0.00602729
Ni       9.04262003       2.24789636       0.09966705        1       1.00000000       0.03717943       0.19386869      -0.10417268
Ni       2.54907309       4.44540971       0.00000000        0       1.00000000      -0.09931529      -0.05572951       0.13865503
Ni       5.15437270       4.43506301       0.01650194        0       1.00000000       0.08979671      -0.07099100       0.03132284
Ni       7.75639115       4.42881128       0.06270079        1       1.00000000       0.13724994       0.04374063       0.34066715
Ni      10.27617493       4.41013087       0.03864917        0       1.00000000      -0.11130605      -0.03999302       0.31831509
Ni       3.84795375       6.63972873       0.00467640        0       1.00000000       0.06670641       0.06982593       0.03506069
Pt       6.43544269       6.63016132       0.05896125        1       0.00000000       0.05656373       0.06687923      -0.04591692
Ni       9.00437216       6.61484330       0.11480385        1       1.00000000      -0.12734097      -0.16902557      -0.26652134
Ni      11.57806248       6.61995336       0.01174215        0       1.00000000      -0.05514120      -0.04193501       0.06825008
Ni       1.30637865       0.75935224       2.09406160        3       1.00000000       0.05026065       0.07972184       0.06045550
Ni       3.85965404       0.74696008       2.14618009        3       1.00000000       0.04469304      -0.00916529       0.15985486
Ni       6.41724211       0.77783516       2.18760041        4       1.00000000      -0.04051040       0.12547294       0.33602331
Pt       9.04210039       0.82701798       2.13826349        3       0.00000000      -0.08125943       0.07666588       0.13269357
Ni       2.54272925       2.93465905       2.14515122        3       1.00000000      -0.09921067       0.00622734       0.04673125
Ni       5.17897868       2.92160587       2.19123158        4       1.00000000       0.07981507      -0.12252389       0.22296243
Ni       7.74022705       2.99170005       2.16555115        4       1.00000000       0.08350674       0.13156037       0.11660650
Ni      10.28611223       2.94923564       2.16578426        4       1.00000000      -0.05357044       0.05902289       0.19536895
Pt       3.91190691       5.09883225       2.10514364        3       0.00000000       0.10317818      -0.10430337      -0.11458169
Ni       6.48857913       5.14449709       2.15011312        4       1.00000000       0.11496264      -0.06891039       0.07535387
Ni       8.96156089       5.12102095       2.16387753        4       1.00000000      -0.09407978      -0.12833804       0.11350177
Pt      11.52509780       5.07201713       2.17188029        4       0.00000000      -0.05598795      -0.05469002       0.09224641
Ni       5.17585193       7.38190535       2.13066648        3       1.00000000      -0.01882688      -0.03734149       0.06954026
Ni       7.70266824       7.35910205       2.14434422        3       1.00000000      -0.00372260      -0.09821692       0.13163856
Pt      10.24837435       7.37510944       2.10824766        3       0.00000000      -0.06130474      -0.07142832       0.06722986
Pt      12.86169591       7.37565444       2.12741718        3       0.00000000       0.05688728      -0.03998158       0.00848561
Ni      -0.01321467       1.54577115       4.26811135        6       1.00000000      -0.03072626       0.16478865      -0.12445581
Pt       2.57691297       1.56582962       4.18009562        5       0.00000000      -0.02574580       0.03553892       0.01343835
Ni       5.20403783       1.47817951       4.25240445        6       1.00000000       0.05986429      -0.09828808      -0.29068907
Ni       7.71336339       1.48289555       4.28476895        6       1.00000000       0.02394896      -0.07562921      -0.21466996
Ni       1.26416761       3.74144861       4.30138583        6       1.00000000      -0.09116857       0.00535657      -0.03193699
Ni       3.84528712       3.71967937       4.28007730        6       1.00000000      -0.09075019      -0.03348061      -0.21252338
Pt       6.49002257       3.64234642       4.28324060        6       0.00000000       0.05036680      -0.02816076      -0.08136810
Ni       9.04791129       3.71628892       4.27870394        6       1.00000000       0.12967671       0.03953954      -0.23539187
Ni       2.52448056       5.86649150       4.35744599        7       1.00000000      -0.12853472      -0.04878760      -0.08493787
Pt       5.13104930       5.84954196       4.34778672        6       0.00000000      -0.02138747      -0.03622179      -0.12723740
Ni       7.76296449       5.84875470       4.28843944        6       1.00000000       0.12986974      -0.09543013      -0.29188793
Ni      10.32440435       5.84346810       4.33764558        6       1.00000000      -0.00332271      -0.04783809      -0.10590117
Pt       3.80594909       8.12179105       4.28669514        6       0.00000000      -0.04711596       0.02659112       0.05766856
Pt       6.44476216       8.10367872       4.21721978        5       0.00000000      -0.00249864       0.09385000      -0.11944270
Pt       9.05845111       8.08504911       4.26677810        6       0.00000000       0.01360481       0.00381694      -0.03137510
Ni      11.58298411       8.09862108       4.31091819        6       1.00000000      -0.05155229      -0.07359466      -0.21427319
Pt      -0.00176653      -0.05519353       6.50082015        9       0.00000000      -0.03533945       0.13922743       0.35883017
Pt       2.58648003      -0.02675937       6.51767791        9       0.00000000       0.07234181       0.04524027       0.45588260
Pt       5.18988125      -0.00776965       6.46261474        9       0.00000000      -0.00516397       0.06461897       0.35094839
Pt       7.70750397      -0.04562542       6.49175070        9       0.00000000      -0.03724400       0.07090510       0.42282416
Pt       1.28649935       2.32952041       6.46006382        9       0.00000000      -0.01315525      -0.03067933       0.13864748
Pt       3.93783613       2.33173788       6.37817565        8       0.00000000       0.05083481       0.06477993       0.53060406
Ni       6.45002709       2.24737402       6.37945611        8       1.00000000      -0.04703947      -0.02824176       0.25172372
Pt       8.95804424       2.30847179       6.43534254        8       0.00000000       0.03896135      -0.07511480       0.00379270
Ni       2.58282573       4.50775144       6.41576089        8       1.00000000       0.06794403      -0.04016757      -0.31112283
Ni       5.17256707       4.46510449       6.46478617        9       1.00000000       0.06712334      -0.02442439      -0.06893160
Ni       7.68691113       4.43036367       6.44939849        8       1.00000000      -0.17249770       0.02920539      -0.19937420
Ni      10.33538990       4.45302825       6.43661583        8       1.00000000       0.05514874      -0.04103505      -0.26945685
Ni       3.84035355       6.57034169       6.45736678        9       1.00000000      -0.04369933      -0.02184196      -0.09572618
Ni       6.42701054       6.57389765       6.39756238        8       1.00000000       0.10899934      -0.04117178       0.21979252
Pt       9.02889019       6.50026481       6.48309498        9       0.00000000      -0.11004705      -0.00724680       0.07592942
Ni      11.61908540       6.56920514       6.43996725        8       1.00000000      -0.02411386       0.01444099      -0.26364919
