64
Lattice="10.752850499256974 -0.0028342160727391715 -0.0015922091166794934 5.373970746509684 9.296170527665259 -0.01696778850936327 -0.0013000332998907638 -0.015246809846632533 9.381997736033819" Properties=species:S:1:pos:R:3:tags:I:1:initial_magmoms:R:1:forces:R:3 unique_id=b678af1d45c94a0283bce8ccd78ef410 stress="-2.7172487719030747e-05 -5.614669373611184e-07 -1.8592836943115341e-06 -5.614669373611184e-07 -2.4370141231404296e-05 1.7397996812516186e-06 -1.8592836943115341e-06 1.7397996812516186e-06 2.2628680867581297e-06" energy=-428.6003244866335 pbc="T T T"
Pt       0.01333521       0.02673157       0.09568098        4       0.00000000      -0.00334580       0.03442371       0.08867481
Pt       2.67509446       0.02485052       0.10983903        4       0.00000000      -0.00037009       0.09324443       0.07982816
Pt       5.38480643       0.03146460       0.09965070        4       0.00000000       0.00532338       0.06733869       0.09918798
Pt       8.05607977       0.02137417       0.10192279        4       0.00000000       0.02492934      -0.01744532       0.13844033
Ni       1.34578471       2.32825016       0.04510923        4       1.00000000       0.04002127       0.03241685       0.23326394
Pt       4.04585124       2.35505506       0.09888773        4       0.00000000       0.01120897       0.04353160       0.08859484
Ni       6.71330164       2.33435598       0.09237324        4       1.00000000      -0.03468717       0.04418576       0.36360469
Pt       9.41225745       2.32661798       0.08945334        4       0.00000000       0.03858939       0.01364479       0.12486071
Pt       2.70244399       4.62590948       0.12954942        4       0.00000000       0.03358852      -0.03853269       0.11065379
Ni       5.37826541       4.63557668       0.09713356        4       1.00000000      -0.01569269      -0.05165627       0.35533791
Pt       8.00884041       4.61145537       0.09676959        4       0.00000000      -0.13155574      -0.11685339       0.06296572
Pt      10.77948078       4.61497633       0.10623135        4       0.00000000       0.04839227      -0.07134506       0.09754413
Pt       4.04842309       6.92661643       0.11406133        4       0.00000000       0.07106131      -0.10639009       0.12698553
Pt       6.71191451       6.94959061       0.10557096        4       0.00000000       0.00946845       0.00545343       0.08282379
Pt       9.39225289       6.97294155       0.10718817        4       0.00000000      -0.04258680      -0.01877735       0.11852434
Pt      12.09767230       6.95361244       0.10595248        4       0.00000000      -0.01855841      -0.04205331       0.12226005
Pt       1.35987356       0.77064035       2.35581441        3       0.00000000       0.02332506       0.08096549       0.04385551
Pt       4.01450299       0.75514160       2.36826597        3       0.00000000      -0.03599586       0.05882812       0.09145121
Pt       6.71188913       0.77946669       2.34479400        3       0.00000000      -0.02809235       0.00477894       0.05951338
Pt       9.41545064       0.76370196       2.36830118        3       0.00000000       0.01959999      -0.01694627       0.10957732
Pt       2.67052293       3.15833842       2.36942534        3       0.00000000      -0.02787033       0.12724088       0.13031484
Pt       5.35692313       3.13991025       2.30100613        3       0.00000000      -0.08439315       0.10211616      -0.06810506
Pt       8.05524979       3.09829446       2.33438442        3       0.00000000       0.03181092       0.00238768       0.04687169
Pt      10.79720820       3.12439527       2.36965020        3       0.00000000       0.08706549       0.08816132       0.11656252
Ni       4.01895739       5.41294160       2.33123925        3       1.00000000      -0.04188002      -0.03783950      -0.01935464
Pt       6.68892143       5.43330355       2.33014077        3       0.00000000      -0.03781269       0.02354946       0.00859057
Pt       9.41761635       5.43547585       2.35676382        3       0.00000000      -0.04281161      -0.02845643      -0.02428482
Ni      12.11101834       5.40997931       2.34848038        3       1.00000000       0.04162444      -0.03482836       0.03918361
Pt       5.38879446       7.71733988       2.35622869        3       0.00000000       0.01305000       0.03226695       0.05299616
Ni       8.05990888       7.73900548       2.33548482        3       1.00000000      -0.02071203      -0.01416546       0.01570726
Pt      10.74291133       7.71293968       2.36320634        3       0.00000000       0.01912706      -0.02692417       0.05706101
Pt      13.43817805       7.66317146       2.35921135        3       0.00000000       0.01253795      -0.16218830       0.04925812
Pt       0.03655799       1.58581090       4.68000948        2       0.00000000       0.04521664       0.08448285      -0.05406219
Pt       2.65498081       1.59026324       4.67865262        2       0.00000000      -0.01495047       0.14002179      -0.04051353
Pt       5.36453956       1.54722158       4.65488705        2       0.00000000      -0.04848383       0.04198587      -0.11949764
Pt       8.06789227       1.54759344       4.66034819        2       0.00000000       0.00538816       0.03702106      -0.06066405
Ni       1.34462037       3.86489186       4.66993514        2       1.00000000       0.01911646       0.01071494      -0.08269384
Pt       3.99626810       3.87781336       4.63141905        2       0.00000000       0.03381571       0.02083968      -0.14198963
Pt       6.71197806       3.86596279       4.64378103        2       0.00000000      -0.03149088      -0.00584789      -0.10497152
Pt       9.44400283       3.86801486       4.65529079        2       0.00000000      -0.01150494       0.01687463      -0.10259787
Pt       2.66371232       6.13931770       4.59809955        2       0.00000000      -0.03641737      -0.16887269      -0.23528346
Pt       5.35515345       6.17357596       4.61835544        2       0.00000000      -0.09266916      -0.07243109      -0.13492500
Pt       8.06845048       6.19642139       4.61805555        2       0.00000000       0.00233250       0.01341107      -0.18959977
Pt      10.78468350       6.14496988       4.61969858        2       0.00000000       0.10143192      -0.12142420      -0.15401746
Pt       4.03327140       8.51171880       4.64569469        2       0.00000000       0.01524002      -0.00586822      -0.05894361
Pt       6.72627723       8.51210329       4.62209434        2       0.00000000       0.03314263      -0.00619193      -0.16313903
Pt       9.39450934       8.50739781       4.61809981        2       0.00000000      -0.04192422      -0.01071828      -0.14585236
Pt      12.09332608       8.49796223       4.63836096        2       0.00000000       0.00450150      -0.03070796      -0.10012574
Pt       0.01978356       0.02671752       6.94321208        1       0.00000000       0.04600839       0.05341167      -0.10830050
Pt       2.66704049       0.02406521       6.94167875        1       0.00000000      -0.03205115       0.06226164      -0.11248523
Pt       5.37225827      -0.00547943       6.94869401        1       0.00000000      -0.03063378       0.01596973      -0.10999497
Pt       8.06731018      -0.00669015       6.94704618        1       0.00000000       0.02044154       0.00977969      -0.08253702
Ni       1.34200664       2.31536660       6.98398743        1       1.00000000       0.00959914       0.01725465      -0.16818347
Pt       3.99668155       2.31689524       6.95125791        1       0.00000000      -0.03534527       0.02698495      -0.04545431
Pt       6.71752873       2.31523061       7.02106077        1       0.00000000      -0.01164390       0.02350235       0.07800058
Pt       9.44485514       2.31196048       6.94323619        1       0.00000000       0.04349290       0.01474508      -0.05613709
Pt       2.65979113       4.59788303       6.92342476        1       0.00000000      -0.01796881      -0.06551387      -0.04664689
Pt       5.36801595       4.63066762       7.01325033        1       0.00000000      -0.03871267      -0.00561490       0.06744126
Pt       8.06541192       4.62794225       6.94316077        1       0.00000000       0.03041648       0.00090586      -0.09524850
Pt      10.78457152       4.59390705       6.91807016        1       0.00000000       0.05787404      -0.07836031      -0.07525524
Pt       4.03076363       6.95357955       6.93561652        1       0.00000000      -0.01264655      -0.04207481      -0.07176357
Pt       6.71757178       6.96489435       6.93886729        1       0.00000000      -0.00312278       0.01833952      -0.10448393
Pt       9.40605462       6.95874878       6.92950714        1       0.00000000       0.00945109      -0.01845004      -0.10758307
Pt      12.09479232       6.94867759       6.93201104        1       0.00000000       0.01773758      -0.04656315      -0.07524076
