64
Lattice="9.80435464875795 -3.54219368327388e-15 -5.5898002918089545e-15 4.902177324378978 8.491435616822084 0.0013768110502777303 -4.5640528263308036e-15 0.0012980699067545762 8.384113357148845" Properties=species:S:1:pos:R:3:tags:I:1:initial_magmoms:R:1:forces:R:3 unique_id=62da418ba5734ccf8e69de016a7cf8f8 stress="-4.8323004719401375e-05 -6.484984760789776e-17 -6.894057131531067e-17 -6.484984760789776e-17 -4.925573866024213e-05 -1.1970832383658713e-06 -6.894057131531067e-17 -1.1970832383658713e-06 -3.4375008540039886e-05" energy=-375.385243877003 pbc="T T T"
Ni       0.02461969      -0.01360359       0.06599710        4       1.00000000       0.04948608      -0.02571086       0.01631231
Ni       2.45647958      -0.00092910       0.10463330        4       1.00000000       0.02996522      -0.00684150       0.08037692
Ni       4.89678641      -0.00092910       0.10463330        4       1.00000000      -0.02996522      -0.00684150       0.08037692
Ni       7.32864630      -0.01360359       0.06599710        4       1.00000000      -0.04948608      -0.02571086       0.01631231
Ni       1.23078513       2.12608221       0.10020999        4       1.00000000       0.00805390       0.00697412       0.09022836
Ni       3.67663299       2.12505755       0.09843826        4       1.00000000      -0.00000000       0.03126607       0.02101063
Ni       6.12248085       2.12608221       0.10020999        4       1.00000000      -0.00805390       0.00697412       0.09022836
Ni       8.57881032       2.15108428       0.06680568        4       1.00000000       0.00000000       0.05760060       0.01642784
Ni       2.45168820       4.24599047       0.10266534        4       1.00000000       0.00526589       0.00174512       0.05359066
Ni       4.90157779       4.24599047       0.10266534        4       1.00000000      -0.00526589       0.00174512       0.05359066
Ni       7.35176371       4.25185845       0.09955332        4       1.00000000      -0.00708098       0.03597219       0.05484539
Ni       9.80585692       4.25185845       0.09955332        4       1.00000000       0.00708098       0.03597219       0.05484539
Ni       3.67663299       6.36176118       0.10096220        4       1.00000000      -0.00000000      -0.01419743       0.07423750
Ni       6.13064537       6.36338685       0.09641622        4       1.00000000       0.00422944      -0.03715584       0.00835301
Ni       8.57881032       6.36766482       0.10678001        4       1.00000000      -0.00000000      -0.00836558       0.07579342
Ni      11.02697527       6.36338685       0.09641622        4       1.00000000      -0.00422944      -0.03715584       0.00835301
Ni       1.26964475       0.71096245       2.11658404        3       1.00000000       0.02108820       0.00647220       0.09497010
Ni       3.67663299       0.73058580       2.08691359        3       1.00000000      -0.00000000       0.06550783       0.04409660
Ni       6.08362124       0.71096245       2.11658404        3       1.00000000      -0.02108820       0.00647220       0.09497010
Pt       8.57881032       0.70799706       2.12868659        3       0.00000000       0.00000000       0.00081331      -0.05404417
Ni       2.45617665       2.83891410       2.11860144        3       1.00000000       0.01831213       0.03642199       0.07089179
Ni       4.89708934       2.83891410       2.11860144        3       1.00000000      -0.01831213       0.03642199       0.07089179
Ni       7.32921000       2.87223742       2.12012225        3       1.00000000      -0.01253572       0.02035886       0.07820446
Ni       9.82841063       2.87223742       2.12012225        3       1.00000000       0.01253572       0.02035886       0.07820446
Ni       3.67663299       4.94641734       2.12086042        3       1.00000000      -0.00000000      -0.02430013       0.07430523
Ni       6.12406888       4.95032101       2.11855746        3       1.00000000      -0.02257736      -0.01473997       0.06567695
Ni       8.57881032       4.95463818       2.11758801        3       1.00000000       0.00000000       0.01106430       0.09046779
Ni      11.03355176       4.95032101       2.11855746        3       1.00000000       0.02257736      -0.01473997       0.06567695
Ni       4.92146449       7.03337295       2.11774464        3       1.00000000      -0.01352367      -0.03425257       0.05881991
Ni       7.34012832       7.06172999       2.08683902        3       1.00000000      -0.03051152      -0.04345520       0.03312980
Ni       9.81749231       7.06172999       2.08683902        3       1.00000000       0.03051152      -0.04345520       0.03312980
Ni      12.23615614       7.03337295       2.11774464        3       1.00000000       0.01352367      -0.03425257       0.05881991
Ni       0.01313766       1.43067918       4.20262281        2       1.00000000       0.03051152       0.04345520      -0.03312980
Ni       2.43180149       1.45903622       4.17171719        2       1.00000000       0.01352367       0.03425257      -0.05881991
Ni       4.92146449       1.45903622       4.17171719        2       1.00000000      -0.01352367       0.03425257      -0.05881991
Ni       7.34012832       1.43067918       4.20262281        2       1.00000000      -0.03051152       0.04345520      -0.03312980
Ni       1.22919711       3.54208816       4.17090437        2       1.00000000       0.02257736       0.01473997      -0.06567695
Ni       3.67663299       3.54599183       4.16860141        2       1.00000000      -0.00000000       0.02430013      -0.07430523
Ni       6.12406888       3.54208816       4.17090437        2       1.00000000      -0.02257736       0.01473997      -0.06567695
Ni       8.57881032       3.53777099       4.17187382        2       1.00000000       0.00000000      -0.01106430      -0.09046779
Ni       2.45617665       5.65349507       4.17086039        2       1.00000000       0.01831213      -0.03642199      -0.07089179
Ni       4.89708934       5.65349507       4.17086039        2       1.00000000      -0.01831213      -0.03642199      -0.07089179
Ni       7.32921000       5.62017175       4.16933958        2       1.00000000      -0.01253572      -0.02035886      -0.07820446
Ni       9.82841063       5.62017175       4.16933958        2       1.00000000       0.01253572      -0.02035886      -0.07820446
Ni       3.67663299       7.76182337       4.20254824        2       1.00000000      -0.00000000      -0.06550783      -0.04409660
Ni       6.08362124       7.78144672       4.17287779        2       1.00000000      -0.02108820      -0.00647220      -0.09497010
Pt       8.57881032       7.78441211       4.16077524        2       0.00000000       0.00000000      -0.00081331       0.05404417
Ni      11.07399940       7.78144672       4.17287779        2       1.00000000       0.02108820      -0.00647220      -0.09497010
Ni      -0.00539091       0.00190265       6.18345172        1       1.00000000      -0.02996522       0.00684150      -0.08037692
Ni       2.42646898       0.01457714       6.22208792        1       1.00000000      -0.04948608       0.02571086      -0.01631231
Ni       4.92679701       0.01457714       6.22208792        1       1.00000000       0.04948608       0.02571086      -0.01631231
Ni       7.35865690       0.00190265       6.18345172        1       1.00000000       0.02996522       0.00684150      -0.08037692
Ni       1.22262062       2.12902232       6.19304561        1       1.00000000      -0.00422944       0.03715584      -0.00835301
Ni       3.67663299       2.13064799       6.18849963        1       1.00000000       0.00000000       0.01419743      -0.07423750
Ni       6.13064537       2.12902232       6.19304561        1       1.00000000       0.00422944       0.03715584      -0.00835301
Ni       8.57881032       2.12474435       6.18268182        1       1.00000000       0.00000000       0.00836558      -0.07579342
Ni       2.45168820       4.24641870       6.18679649        1       1.00000000       0.00526589      -0.00174512      -0.05359066
Ni       4.90157779       4.24641870       6.18679649        1       1.00000000      -0.00526589      -0.00174512      -0.05359066
Ni       7.35176371       4.24055072       6.18990851        1       1.00000000      -0.00708098      -0.03597219      -0.05484539
Ni       9.80585692       4.24055072       6.18990851        1       1.00000000       0.00708098      -0.03597219      -0.05484539
Ni       3.67663299       6.36735162       6.19102357        1       1.00000000       0.00000000      -0.03126607      -0.02101063
Ni       6.12248085       6.36632696       6.18925184        1       1.00000000      -0.00805390      -0.00697412      -0.09022836
Ni       8.57881032       6.34132489       6.22265615        1       1.00000000       0.00000000      -0.05760060      -0.01642784
Ni      11.03513978       6.36632696       6.18925184        1       1.00000000       0.00805390      -0.00697412      -0.09022836
