64
Lattice="10.366790385706222 -0.03771472002611903 0.053910990518387165 5.150733287213868 8.943813886425461 0.03721068569534564 0.04401813943269039 0.009668686266350278 8.825349625304385" Properties=species:S:1:pos:R:3:tags:I:1:initial_magmoms:R:1:forces:R:3 unique_id=99f588e0a2354586a78b74b87868a0af stress="0.0003099827429054805 4.487228260045176e-06 -2.946805325662182e-05 4.487228260045176e-06 0.00031649673863694966 5.346380627151687e-06 -2.946805325662182e-05 5.346380627151687e-06 0.00029912493450887784" energy=-399.6956868257679 pbc="T T T"
Ni      -0.00885088       0.03366715       0.20347306        4       1.00000000      -0.04960785       0.15705877       0.29798676
Ni       2.59005366      -0.00107898       0.22097390        4       1.00000000      -0.00287603       0.04707502       0.43141369
Ni       5.18523549      -0.02465374       0.18908871        4       1.00000000       0.01380215       0.17923299       0.24037237
Ni       7.80013148      -0.05186000       0.24595057        4       1.00000000       0.10876856      -0.02000099       0.39686273
Ni       1.25572590       2.23980789       0.12227784        4       1.00000000      -0.13814937       0.00781846       0.26365675
Pt       3.82117943       2.23234762       0.21848669        4       0.00000000      -0.02979418       0.05488728       0.15000229
Pt       6.50749390       2.16627325       0.24040039        4       0.00000000       0.11615947      -0.05287256       0.19330418
Ni       9.10889361       2.19035406       0.23068431        4       1.00000000       0.12737732      -0.07921684       0.25859030
Ni       2.55901690       4.48046602       0.08319674        4       1.00000000      -0.01515512      -0.00564358      -0.02487699
Ni       5.16631676       4.46409262       0.19328440        4       1.00000000       0.19528317      -0.09168653       0.22748378
Pt       7.83969386       4.46422508       0.16037013        4       0.00000000       0.18329567      -0.01492937      -0.11116329
Ni      10.37623108       4.43293415       0.12923988        4       1.00000000       0.07799830      -0.11422924       0.08070267
Ni       3.83594793       6.73585102       0.20368316        4       1.00000000      -0.03735407       0.18345075       0.21210589
Pt       6.44213534       6.75061235       0.24515027        4       0.00000000      -0.02202652       0.05241939       0.10471153
Ni       9.07291899       6.70292051       0.13607376        4       1.00000000       0.02003650       0.04014124       0.06609043
Ni      11.65401648       6.68439383       0.13362151        4       1.00000000       0.14163903       0.04661947      -0.02409406
Ni       1.27942023       0.76782782       2.17277539        3       1.00000000      -0.14146980       0.16328003      -0.13268244
Ni       3.89113235       0.74220227       2.23276474        3       1.00000000       0.07468649       0.01207250      -0.01887702
Ni       6.51450833       0.73920787       2.28116231        3       1.00000000       0.10130906       0.09738061       0.14985926
Ni       9.08280294       0.74537790       2.23490890        3       1.00000000      -0.00361350       0.16892775      -0.00510914
Ni       2.56148048       2.96351027       2.23257425        3       1.00000000      -0.18209148       0.04908655      -0.07980763
Ni       5.18498315       2.95054306       2.28444028        3       1.00000000      -0.06954064      -0.14432740       0.04457754
Ni       7.82479736       2.94073368       2.28695595        3       1.00000000       0.28978894      -0.12118876      -0.06739554
Ni      10.34093849       2.90799091       2.25690675        3       1.00000000      -0.05695795      -0.10133332       0.02683218
Pt       3.89297948       5.19517973       2.19574592        3       0.00000000      -0.08339340      -0.08477046      -0.00600832
Ni       6.50987223       5.19565582       2.26052986        3       1.00000000       0.14604030       0.00951151      -0.10573576
Ni       9.03555613       5.17637379       2.29246808        3       1.00000000      -0.04615239      -0.09438100       0.14300275
Pt      11.62842253       5.14832131       2.20815894        3       0.00000000      -0.10225518      -0.06713167      -0.02353521
Ni       5.14811978       7.50000418       2.22206935        3       1.00000000      -0.13315578       0.11409495      -0.14155556
Ni       7.75929267       7.44411156       2.25614740        3       1.00000000       0.04557459      -0.07385724      -0.04122928
Pt      10.32895474       7.45307713       2.17781353        3       0.00000000       0.02566353      -0.10712829      -0.05839758
Ni      12.96161238       7.45139040       2.24694543        3       1.00000000      -0.02357094      -0.02900303      -0.04789528
Ni      -0.01391248       1.53860597       4.33976426        2       1.00000000      -0.07950034       0.08675705      -0.26073273
Pt       2.60842811       1.52983319       4.28033356        2       0.00000000       0.05486285       0.02715341      -0.06849771
Ni       5.21194070       1.50028547       4.36262003        2       1.00000000       0.02180074       0.03925367      -0.16286427
Ni       7.82328626       1.49778355       4.36467464        2       1.00000000       0.12471924       0.05078252      -0.22014792
Pt       1.28715894       3.72136720       4.43249040        2       0.00000000      -0.04883471      -0.06088321      -0.08363474
Ni       3.89489607       3.73211852       4.37887512        2       1.00000000       0.00787798      -0.02260632      -0.16145911
Pt       6.54543567       3.68723098       4.30182338        2       0.00000000      -0.00078051      -0.10825232       0.00296109
Ni       9.06839216       3.68641268       4.40141903        2       1.00000000       0.03488991      -0.10581324      -0.32417942
Ni       2.57615264       5.94770022       4.41562123        2       1.00000000      -0.06031852      -0.00098042      -0.14180642
Pt       5.17242495       5.92565283       4.33889438        2       0.00000000       0.01632047       0.02823683       0.01730880
Ni       7.79801856       5.90717507       4.39851082        2       1.00000000      -0.02555296      -0.06635730      -0.26711410
Pt      10.32387321       5.89009497       4.50593373        2       0.00000000      -0.04994436       0.00523496      -0.11306891
Pt       3.87050575       8.25969342       4.29370355        2       0.00000000      -0.07170038       0.06611147      -0.01299519
Pt       6.46092918       8.21231855       4.29442542        2       0.00000000      -0.03915050       0.03144687      -0.06409194
Pt       9.04748604       8.17682271       4.39035632        2       0.00000000      -0.05932248       0.03145180       0.05182494
Pt      11.67400977       8.20448636       4.38535134        2       0.00000000       0.03970575       0.04607684       0.02972869
Pt       0.04467220       0.04887842       6.60027114        1       0.00000000      -0.02789566      -0.00267004       0.14330655
Pt       2.62038625       0.00023737       6.64510994        1       0.00000000      -0.06339885       0.00805121       0.22253958
Pt       5.20390704      -0.09879640       6.63208834        1       0.00000000      -0.00755879      -0.18874386       0.07005764
Pt       7.79871328      -0.03700553       6.65555069        1       0.00000000      -0.01596089      -0.00155531       0.18986022
Ni       1.31186354       2.29452488       6.57219767        1       1.00000000      -0.01980492       0.07671776      -0.05023120
Pt       3.84324495       2.28163526       6.51165430        1       0.00000000      -0.11805277      -0.00850754      -0.24198347
Pt       6.52789628       2.23447331       6.52200399        1       0.00000000      -0.00481037       0.02676534      -0.21935693
Pt       9.15900582       2.32412970       6.58326190        1       0.00000000       0.06830783       0.11221192       0.08201884
Ni       2.53799012       4.47982033       6.56537313        1       1.00000000      -0.21309996       0.00173398      -0.17418854
Pt       5.18306671       4.46256146       6.61669959        1       0.00000000       0.00064573      -0.00759941       0.02454357
Ni       7.84451052       4.48291133       6.51168303        1       1.00000000       0.13180747       0.04351094      -0.31909502
Ni      10.39783514       4.47917785       6.62863042        1       1.00000000       0.04399984       0.12423007      -0.00817476
Pt       3.80130925       6.65861640       6.62287474        1       0.00000000      -0.11642936      -0.05719327       0.11110169
Pt       6.56301829       6.65334010       6.54927903        1       0.00000000       0.03207108      -0.00680103      -0.21430266
Ni       9.10386657       6.62757122       6.61778944        1       1.00000000       0.00569922      -0.19909513      -0.07405073
Ni      11.63861196       6.62216610       6.62656702        1       1.00000000      -0.09085066      -0.15002523      -0.16246787
