64
Lattice="10.23094034156291 -0.020008377765368478 -0.004164880330112748 5.098142407348127 8.819466882268532 -0.014942063207316503 0.0 0.0 21.614755621861562" Properties=species:S:1:pos:R:3:tags:I:1:initial_magmoms:R:1:forces:R:3 unique_id=9d330747d73c427793f541dc406512ac energy=-370.39470553950406 stress="0.0041992613596687385 -5.885794821365055e-05 -1.710423073988959e-05 -5.885794821365055e-05 0.003958065138077126 -0.00010896802626893515 -1.710423073988959e-05 -0.00010896802626893515 -0.0024649836527191084" pbc="T T T"
Ni       0.02047179       0.04123147       0.18405123        2       1.00000000       0.21122273       0.06160317      -0.64379197
Ni       2.57670619       0.03326800       0.24205429        2       1.00000000      -0.00127983      -0.01625933      -0.29587774
Ni       5.08824020      -0.03314328       0.10238196        1       1.00000000      -0.06629109       0.06971318       0.18343709
Ni       7.67471337      -0.04281253       0.07917868        1       1.00000000      -0.03618887       0.05379643       0.02064694
Ni       1.27654398       2.22340304       0.14202372        1       1.00000000       0.01124866       0.04463347       0.38516116
Ni       3.78950449       2.20830977       0.24171603        2       1.00000000       0.00141635       0.06408854      -0.15282178
Pt       6.38676035       2.26197038       0.18711562        2       0.00000000      -0.02282930       0.13487894      -1.18745261
Ni       8.99330034       2.23364550       0.09148579        1       1.00000000       0.00446322       0.13300429       0.17538802
Ni       2.53471624       4.39807866       0.12953641        1       1.00000000      -0.08965645      -0.00527214       0.40574501
Ni       5.04387508       4.40280312       0.10462609        1       1.00000000      -0.16506448       0.01106301       0.17442530
Ni       7.73608302       4.39106032       0.09939847        1       1.00000000       0.20280815       0.00822896       0.08699437
Ni      10.23625421       4.38322626       0.12313285        1       1.00000000       0.06961141       0.07969756       0.35718420
Ni       3.79277328       6.58170126       0.06521721        1       1.00000000       0.00367042      -0.10600182       0.03507154
Pt       6.41980744       6.60975210       0.00000000        0       0.00000000       0.14149175       0.12263313      -0.50781440
Ni       8.95359406       6.58200903       0.16064091        2       1.00000000      -0.05008083      -0.11834600      -0.18508255
Ni      11.48671681       6.56709837       0.06378876        1       1.00000000      -0.09269611      -0.15929052       0.18477472
Ni       1.32471017       0.78417493       2.18377640        3       1.00000000       0.02608212       0.13167410       0.01385480
Ni       3.78303557       0.73783494       2.19212897        3       1.00000000       0.02028112       0.01202587       0.15828349
Pt       6.35069630       0.71019334       2.22866615        3       0.00000000      -0.07153752      -0.03275925       0.07361609
Pt       9.01654942       0.81618514       2.17127189        3       0.00000000       0.05457934       0.04772000       0.00643558
Ni       2.54029053       2.96001059       2.18640877        3       1.00000000      -0.10221888       0.07917217       0.01367760
Ni       5.02332816       2.95451830       2.23758898        3       1.00000000      -0.14501744      -0.00982204       0.22574583
Ni       7.73252444       2.97022717       2.23353378        3       1.00000000       0.16905679       0.04630311       0.15129824
Ni      10.25723014       2.97692550       2.19970494        3       1.00000000       0.08475741       0.04157244      -0.00611207
Ni       3.79667242       5.06164195       2.22192156        3       1.00000000      -0.04483674      -0.14376775       0.04918215
Pt       6.42380032       5.08957149       2.20209473        3       0.00000000       0.05283356      -0.12083332       0.01515357
Ni       8.96788562       5.07337726       2.22512112        3       1.00000000       0.07734456      -0.13079676       0.07099564
Ni      11.48541387       5.05779246       2.19230880        3       1.00000000      -0.04260922      -0.09323483      -0.05700629
Pt       5.11773627       7.32588514       2.19068773        3       0.00000000       0.01481841      -0.08833478      -0.03318530
Ni       7.67480279       7.35785106       2.21808889        3       1.00000000      -0.05631423      -0.04359040       0.12074223
Pt      10.13240487       7.26459081       2.23749611        3       0.00000000      -0.08058105      -0.12384940       0.04716340
Pt      12.74258572       7.22000437       2.17840073        3       0.00000000      -0.01493489      -0.19518350      -0.03373758
Ni       0.00687468       1.50274310       4.40629674        5       1.00000000       0.02795827      -0.00113336      -0.08924662
Pt       2.50860203       1.49556676       4.29891941        4       0.00000000      -0.00697419       0.03477651      -0.07384419
Pt       5.07253976       1.41450915       4.38126740        5       0.00000000      -0.12924902      -0.05145665       0.00214037
Pt       7.75476874       1.48132359       4.40170370        5       0.00000000       0.05470329       0.02225769       0.04817312
Pt       1.23120607       3.74756567       4.38423976        5       0.00000000      -0.02765858      -0.00005084      -0.01421667
Ni       3.81297633       3.73946181       4.36996778        5       1.00000000      -0.07973335       0.02080906      -0.10129216
Pt       6.38419383       3.74479573       4.40733032        5       0.00000000      -0.02476068       0.15172300      -0.10486936
Ni       8.96364306       3.70995540       4.39395141        5       1.00000000      -0.00025136       0.16150068      -0.06495884
Ni       2.52971522       5.84443398       4.42248048        5       1.00000000      -0.08280177      -0.05010312      -0.06551985
Ni       5.05228357       5.83499886       4.42055304        5       1.00000000      -0.08562159      -0.05387875      -0.15957856
Ni       7.72680124       5.85329528       4.37412097        5       1.00000000       0.20583513      -0.03798120      -0.24162146
Ni      10.21564228       5.86818967       4.37886677        5       1.00000000      -0.03481313       0.00278948      -0.08223079
Pt       3.76656247       7.98796148       4.43132443        5       0.00000000      -0.02113634      -0.03185069      -0.00829088
Pt       6.42135669       8.00152963       4.35685221        5       0.00000000       0.07295824      -0.03744186      -0.07024705
Ni       8.96032305       8.01512734       4.37092303        5       1.00000000      -0.03463197      -0.02716585      -0.08759439
Ni      11.45763760       7.99647514       4.43698521        5       1.00000000      -0.10274266      -0.06607395       0.01393126
Pt      -0.06551917       0.02221586       6.61044938        8       0.00000000       0.01238676       0.01418795       0.32222234
Pt       2.58236744      -0.02634262       6.61475562        8       0.00000000       0.02463632      -0.10200499       0.24061613
Ni       5.15817071      -0.06263367       6.53245082        7       1.00000000       0.01577735      -0.00701628      -0.02647588
Ni       7.63082481      -0.07916446       6.54922525        7       1.00000000      -0.04012090      -0.03060672       0.01812303
Ni       1.22809424       2.24830070       6.54764804        7       1.00000000       0.01333919      -0.00852997      -0.14271202
Pt       3.78921283       2.30532303       6.61139710        8       0.00000000       0.09565856       0.24080248       0.20445594
Pt       6.44206245       2.19374004       6.53806218        7       0.00000000      -0.06202120       0.10634217       1.44059986
Ni       8.98818960       2.23842781       6.53941706        7       1.00000000       0.04945554       0.14477458      -0.04218567
Ni       2.52706952       4.46778609       6.53244140        7       1.00000000      -0.03237068       0.08048833      -0.26580244
Ni       5.08743061       4.47665608       6.52714746        7       1.00000000      -0.07156532      -0.04848676      -0.10339383
Ni       7.68632885       4.40400442       6.53112161        7       1.00000000       0.09253364      -0.07363020      -0.09841017
Ni      10.23521852       4.36159804       6.53291292        7       1.00000000       0.02582663       0.04871806      -0.22605904
Ni       3.79222307       6.54731660       6.52834336        7       1.00000000       0.02084133      -0.01729707      -0.14068560
Ni       6.35129394       6.53298318       6.40736616        6       1.00000000       0.05966903      -0.04386711       0.39146840
Pt       8.99710497       6.51972853       6.51493861        7       0.00000000      -0.02945945       0.01989264      -0.02120266
Ni      11.53401448       6.58363340       6.49778735        7       1.00000000       0.03078386      -0.11495378      -0.30338699
