64
Lattice="10.476816961368678 -0.004104573207793114 0.028574282567990678 5.234853816014702 9.111242001619024 0.04132371688307505 0.023330804019227106 0.025490327928229313 9.05390140697121" Properties=species:S:1:pos:R:3:tags:I:1:initial_magmoms:R:1:forces:R:3 unique_id=ec7df0a80c32430cb19f9190c30e1d4c stress="-0.0004536140505425959 3.4052099276491764e-07 -4.124683237591371e-06 3.4052099276491764e-07 -0.0004535079567094466 8.439009836858692e-07 -4.124683237591371e-06 8.439009836858692e-07 -0.0003673872012978918" energy=-411.6493028213616 pbc="T T T"
Pt       0.00200626      -0.06831746       0.03877416        4       0.00000000       0.04159645      -0.04900239      -0.10406168
Pt       2.66930586      -0.02047367       0.14269032        4       0.00000000      -0.00250865      -0.02658503      -0.01377512
Ni       5.23987657      -0.00237873       0.09078326        4       1.00000000      -0.00571273       0.01848934       0.09056300
Pt       7.83595130      -0.03184779       0.14708865        4       0.00000000       0.00105334       0.04317907       0.00623269
Pt       1.32803853       2.27758191       0.14917231        4       0.00000000       0.03232809       0.00125420       0.13296971
Pt       3.96207865       2.27060628       0.07878544        4       0.00000000       0.02331535      -0.01565430      -0.04562941
Pt       6.52915832       2.33882701       0.13624186        4       0.00000000       0.03183733       0.09747436       0.03428086
Pt       9.14446591       2.29571600       0.03913096        4       0.00000000       0.04162464       0.00164435      -0.13983220
Pt       2.69801455       4.59603807       0.14447859        4       0.00000000       0.06205694       0.02100402       0.04117492
Ni       5.25526633       4.56766012       0.10267414        4       1.00000000       0.02176791      -0.02676576       0.12915994
Ni       7.82844356       4.56866328       0.16462017        4       1.00000000       0.00140234       0.02290577       0.13642641
Pt      10.44010286       4.57450524       0.04830358        4       0.00000000       0.01853931       0.00648554      -0.14662706
Ni       3.93842533       6.82930476       0.18946630        4       1.00000000      -0.00255165       0.05708241       0.24921696
Pt       6.50040141       6.73455443       0.14526685        4       0.00000000       0.00588104      -0.06295965      -0.02473842
Pt       9.15975072       6.85550855       0.19537247        4       0.00000000      -0.01298816      -0.00135435       0.07695887
Pt      11.79367701       6.86765619       0.11117476        4       0.00000000      -0.00119303       0.04308716      -0.12190869
Pt       1.41856172       0.69107971       2.39720855        3       0.00000000       0.01302515      -0.03599356       0.03665866
Ni       3.92665179       0.72741985       2.33921333        3       1.00000000      -0.03772360      -0.09276007       0.10212348
Pt       6.45668820       0.69168377       2.30351481        3       0.00000000      -0.05004652       0.04239043       0.00680266
Pt       9.18429855       0.69922536       2.33340981        3       0.00000000       0.03740582       0.03117555      -0.01493839
Ni       2.64915351       3.02089424       2.33159746        3       1.00000000       0.01009549      -0.02199529       0.07699353
Pt       5.17678107       3.08380246       2.37807743        3       0.00000000      -0.06893187       0.04184810       0.07578855
Pt       7.82191832       3.10870251       2.36187630        3       0.00000000      -0.03334295       0.01573968       0.05102622
Pt      10.49335283       3.06219138       2.37878703        3       0.00000000      -0.06017280       0.06445671       0.04143581
Pt       3.98410688       5.39630061       2.34189127        3       0.00000000      -0.01621125       0.07817682       0.10673617
Ni       6.54500744       5.35624358       2.33792369        3       1.00000000      -0.01417498       0.05979377       0.12047157
Pt       9.08741401       5.40122568       2.39452147        3       0.00000000      -0.02629966       0.01032187       0.04491632
Pt      11.81252873       5.39841708       2.37457470        3       0.00000000      -0.05341308       0.08198135      -0.03336947
Ni       5.28170895       7.57218330       2.32765217        3       1.00000000       0.18194300       0.01456414       0.07883330
Ni       7.85317768       7.59506155       2.39543238        3       1.00000000      -0.02768666      -0.03474786       0.19849470
Ni      10.43690225       7.62496244       2.34992746        3       1.00000000      -0.15059820       0.03621456       0.09695123
Ni      13.10895208       7.57801845       2.35245448        3       1.00000000      -0.00156061       0.05779872       0.07303331
Pt       0.04856951       1.49344336       4.55208509        2       0.00000000      -0.01464374      -0.06740634       0.00281036
Ni       2.64194728       1.52092482       4.50017046        2       1.00000000      -0.03977407      -0.00276985      -0.05309814
Pt       5.12604865       1.52169045       4.53955401        2       0.00000000      -0.08510040      -0.11094424       0.00920655
Pt       7.85780821       1.59834465       4.54315565        2       0.00000000      -0.07114476      -0.04833993      -0.01555821
Pt       1.38819221       3.80960999       4.48889815        2       0.00000000       0.11324501      -0.01691341      -0.06004774
Ni       3.95413718       3.80964808       4.53846664        2       1.00000000       0.06263199       0.03657843       0.00115670
Ni       6.55603002       3.84188328       4.53538302        2       1.00000000       0.01741010      -0.01070830      -0.02273436
Ni       9.15734932       3.83414887       4.57773935        2       1.00000000      -0.01910002       0.01594380      -0.01389069
Ni       2.65001520       6.08939879       4.53713123        2       1.00000000       0.07270575       0.00085517       0.00381554
Pt       5.33661628       6.02728344       4.54232559        2       0.00000000       0.08102376      -0.03955159       0.07076380
Ni       7.85093122       6.10572535       4.53972093        2       1.00000000       0.03575066       0.07522353       0.00825201
Pt      10.44341374       6.07133481       4.57019620        2       0.00000000      -0.00129728      -0.03386129       0.01156208
Pt       3.98273592       8.28323569       4.50071329        2       0.00000000       0.01674876      -0.10673619      -0.04810604
Ni       6.61001685       8.32034257       4.54426062        2       1.00000000       0.09849847      -0.16801839      -0.04873278
Ni       9.12549828       8.35959764       4.49558253        2       1.00000000      -0.13588668      -0.07447011      -0.21224333
Pt      11.74190893       8.32175470       4.55942897        2       0.00000000      -0.03343480      -0.02322345      -0.03132502
Ni       0.02266263       0.00683533       6.64273542        1       1.00000000       0.02985383      -0.07557635      -0.17540103
Pt       2.63641830       0.01091718       6.59830307        1       0.00000000      -0.02348366       0.01759455      -0.07015035
Ni       5.24081758       0.01521102       6.72298935        1       1.00000000      -0.05617955      -0.00932053      -0.10640377
Pt       7.87228703       0.01112569       6.69510341        1       0.00000000      -0.00697425       0.00241566      -0.01078984
Pt       1.31340940       2.29795711       6.68493318        1       0.00000000      -0.01771909       0.03401640       0.09267357
Ni       3.93756362       2.29691160       6.65273393        1       1.00000000      -0.14082323       0.01674903      -0.15141957
Pt       6.48789658       2.32505026       6.68685792        1       0.00000000      -0.13721120       0.01083545       0.02251240
Ni       9.18929190       2.31115860       6.66015374        1       1.00000000      -0.04480646       0.07044332      -0.19747494
Pt       2.67166323       4.57833342       6.65420682        1       0.00000000       0.06383232       0.03401274       0.00616933
Ni       5.26395120       4.57272310       6.72869878        1       1.00000000       0.03439639      -0.00244490      -0.12040498
Pt       7.86481558       4.57938572       6.70584727        1       0.00000000      -0.02358120       0.01511277       0.03464397
Ni      10.48406801       4.56103577       6.66382292        1       1.00000000      -0.00705510      -0.04980916      -0.20998011
Pt       4.00213466       6.83908425       6.78640814        1       0.00000000       0.10991153       0.02326445       0.18959535
Ni       6.56494757       6.84496392       6.67692978        1       1.00000000       0.10214574       0.02526459      -0.13177399
Pt       9.19867859       6.87053275       6.69725619        1       0.00000000       0.00819108       0.04540625       0.04135850
Ni      11.79546138       6.83742578       6.69260281        1       1.00000000       0.05311426      -0.06287180      -0.17735367
