64
Lattice="10.468249381125625 0.04450560855873561 0.003960132218193153 5.272667678185562 9.078909615466765 -0.04635210767782185 0.0 0.0 21.715514734031323" Properties=species:S:1:pos:R:3:tags:I:1:initial_magmoms:R:1:forces:R:3 unique_id=a89cb9086c5a4a5899841130312a83e6 stress="0.006064882619568652 0.00020765327813392122 0.0002934313593106101 0.00020765327813392122 0.005620225075562061 -0.00029261764535846367 0.0002934313593106101 -0.00029261764535846367 -0.0028639798546178895" energy=-382.98192987576124 pbc="T T T"
Ni      -0.06276749      -0.02430301       0.15004451        2       1.00000000      -0.14874163      -0.05456233      -0.13005059
Ni       2.65016450      -0.02747316       0.14642236        1       1.00000000       0.09839376      -0.04901888      -0.19491727
Ni       5.26372828      -0.01631330       0.12981102        1       1.00000000       0.13552815       0.06797887      -0.22767179
Ni       7.87682280      -0.02100779       0.09431971        1       1.00000000      -0.03616236      -0.04620516       0.51911081
Pt       1.29058352       2.28405469       0.09155797        1       0.00000000       0.21193544       0.05474381      -1.01014591
Pt       3.94272657       2.31964709       0.12110467        1       0.00000000       0.00291741       0.14738143      -0.81222281
Pt       6.58911530       2.21143156       0.10293530        1       0.00000000      -0.08934805      -0.13651602      -0.22892715
Ni       9.16278567       2.26098692       0.12220217        1       1.00000000      -0.02712586      -0.14158625      -0.02377956
Ni       2.64398348       4.56339698       0.10051455        1       1.00000000       0.00415604      -0.07398052      -0.32178229
Ni       5.27230379       4.55267858       0.10402556        1       1.00000000       0.19018833      -0.04208005      -0.12078861
Pt       7.94388008       4.57524868       0.02056352        0       0.00000000      -0.06675765       0.04338712       0.29807670
Ni      10.49620993       4.61564709       0.00395714        0       1.00000000       0.03411829       0.07094646       0.26108929
Ni       3.92805284       6.84266987       0.12133356        1       1.00000000      -0.02249548       0.11332669      -0.05861384
Pt       6.55549447       6.85946227       0.14335999        1       0.00000000      -0.04414691      -0.00551718      -0.33150454
Ni       9.21386976       6.83254858       0.01209717        0       1.00000000      -0.02709540      -0.03546574       0.39478859
Ni      11.82511385       6.85605119       0.00000000        0       1.00000000       0.11925789       0.05878568       0.39660223
Pt       1.27334055       0.66519404       2.16171055        4       0.00000000      -0.05985063      -0.14941805       0.22162650
Pt       3.99510363       0.77509938       2.21975418        4       0.00000000       0.05337344      -0.07848243       0.24739025
Ni       6.58985580       0.75373444       2.23324145        4       1.00000000       0.09590615      -0.02359266       0.14035379
Ni       9.10352136       0.74477242       2.16902534        4       1.00000000      -0.12643710      -0.00059179       0.03270823
Ni       2.63105277       3.03430726       2.20592047        4       1.00000000      -0.02623608       0.00817944       0.33107733
Ni       5.27381693       3.02991669       2.22736817        4       1.00000000       0.06668203       0.02764790       0.24516522
Pt       7.80509032       3.04225335       2.31833009        5       0.00000000      -0.01752901       0.05121299       0.20801896
Pt      10.40458750       3.09029953       2.18618916        4       0.00000000      -0.22439316       0.11136473       0.12899948
Pt       4.00230091       5.30887282       2.10287253        3       0.00000000       0.07005704       0.00600678       0.07082712
Ni       6.61123819       5.30559402       2.20761538        4       1.00000000       0.11822518      -0.04023624       0.21232343
Ni       9.14467410       5.34256785       2.23835939        4       1.00000000      -0.10724503       0.01785208       0.16766645
Pt      11.79136498       5.33806800       2.11048017        3       0.00000000       0.02739676      -0.04504784       0.04214264
Ni       5.22660034       7.56045528       2.15424056        4       1.00000000      -0.08551892       0.00765752       0.17561319
Ni       7.90156228       7.50701971       2.18638363        4       1.00000000       0.08647772      -0.10107038       0.18685953
Pt      10.50092560       7.55320160       2.09469442        3       0.00000000      -0.06065556       0.02286222       0.01063939
Ni      13.13206166       7.64261906       2.12239672        3       1.00000000      -0.04718823       0.05780318      -0.03325462
Pt      -0.10564509       1.52741748       4.36635009        7       0.00000000      -0.10559168       0.03359896      -0.21130927
Pt       2.64121157       1.49919838       4.36144839        7       0.00000000      -0.08899549      -0.11484506      -0.25391353
Ni       5.29770231       1.51987858       4.37230771        7       1.00000000       0.04038215       0.05243696      -0.33548741
Ni       7.82147870       1.55166988       4.38165964        7       1.00000000      -0.04854615       0.02044487      -0.22752620
Pt       1.23500482       3.82520916       4.39643546        7       0.00000000      -0.10717047       0.05146077      -0.17011203
Pt       4.01648382       3.73412188       4.31439460        6       0.00000000       0.05942460       0.04919609      -0.23622222
Ni       6.62053193       3.77158152       4.40667368        7       1.00000000       0.05850061       0.04397738      -0.15989032
Ni       9.11643404       3.85852057       4.43075628        7       1.00000000      -0.04946863       0.02400135      -0.16424517
Pt       2.59773166       6.05522257       4.37677672        7       0.00000000       0.03280291      -0.00289049      -0.10309857
Pt       5.35262139       5.98619972       4.31223876        6       0.00000000       0.00412299      -0.10179378      -0.17794089
Ni       7.93995827       5.96676498       4.37187093        7       1.00000000       0.06236001      -0.09408338      -0.23487057
Ni      10.43333859       6.03239393       4.44065397        7       1.00000000      -0.01257045      -0.00185130      -0.09778478
Pt       3.93234988       8.32358310       4.28538721        6       0.00000000       0.01227222       0.00496561      -0.14562673
Pt       6.59982050       8.25603169       4.31810151        6       0.00000000      -0.03261518       0.12623954      -0.19907126
Pt       9.21242695       8.21133753       4.37345163        7       0.00000000      -0.00516135      -0.03153892      -0.10022070
Pt      11.80989578       8.39824318       4.34733838        6       0.00000000      -0.04581279       0.03775914      -0.04188938
Pt      -0.04948578      -0.02308041       6.71117074       10       0.00000000       0.16493414       0.05324561       0.11943026
Pt       2.65313640      -0.07201641       6.71551473       10       0.00000000      -0.01423317      -0.01918167       0.33203932
Pt       5.29606194      -0.11054641       6.70581526       10       0.00000000      -0.08069752       0.18881690       0.02299489
Ni       7.84256411       0.00769756       6.63202972        9       1.00000000       0.04731668       0.04529510      -0.28138251
Pt       1.28286396       2.27957758       6.57247229        9       0.00000000      -0.00654169      -0.07494848       0.99206117
Pt       3.96029318       2.24183643       6.56623970        9       0.00000000       0.12624811      -0.06889679       0.79198714
Pt       6.58691210       2.23836768       6.49282221        8       0.00000000      -0.06265017       0.01008668       0.38567651
Pt       9.13838663       2.36745563       6.65000738       10       0.00000000      -0.08269801       0.14410139      -0.07137184
Pt       2.55070319       4.57112308       6.68577430       10       0.00000000       0.07051256      -0.04359995       0.18527754
Pt       5.29721547       4.52872588       6.63969825        9       0.00000000       0.01065436       0.00275992       0.17496494
Ni       7.92774611       4.55684019       6.49266492        8       1.00000000      -0.03152543       0.03334035      -0.04815167
Ni      10.42443510       4.62058529       6.58765297        9       1.00000000      -0.05483667       0.01444629      -0.30306252
Pt       3.87512215       6.82826742       6.68614245       10       0.00000000       0.10946139      -0.09983393      -0.02353777
Pt       6.67137767       6.73196674       6.56255591        9       0.00000000       0.01109394      -0.02315002       0.37240236
Ni       9.23935427       6.72560153       6.57756411        9       1.00000000      -0.03873971      -0.00028124      -0.29941434
Ni      11.75308667       6.79549397       6.60443728        9       1.00000000      -0.03991870      -0.10304327      -0.28812458
