64
Lattice="10.256301597820658 0.016233316571844906 -0.04751836020003872 5.142209263449222 8.844219374427611 -0.07103434824705677 -0.03879857863462389 -0.04457145597133938 8.753270319563562" Properties=species:S:1:pos:R:3:tags:I:1:initial_magmoms:R:1:forces:R:3 unique_id=2cde787a4b6845579075f6f090929185 stress="0.00016550678365652438 -4.077848896497674e-06 1.5362978314330435e-05 -4.077848896497674e-06 0.00018200254163170532 5.9130997890773826e-06 1.5362978314330435e-05 5.9130997890773826e-06 0.00017106568642116793" energy=-395.70421224718274 pbc="T T T"
Ni       0.00875986      -0.00681688       0.18128786        4       1.00000000       0.03431151       0.03376520       0.28183942
Ni       2.55332335       0.00059256       0.18829826        4       1.00000000      -0.04142174       0.00149779       0.33468754
Ni       5.12306891      -0.02375905       0.14415306        4       1.00000000      -0.05857075      -0.01461481       0.24279005
Ni       7.67910594      -0.05087793       0.14097115        4       1.00000000      -0.04670406      -0.10170859       0.30031403
Ni       1.27971441       2.21656333       0.09372596        4       1.00000000      -0.01122042       0.02109389       0.24550577
Pt       3.75951888       2.17640213       0.15692236        4       0.00000000      -0.12256378      -0.03516648       0.20115190
Pt       6.42241007       2.17226070       0.06295949        4       0.00000000       0.00673537      -0.06533206      -0.04807985
Pt       9.04668293       2.26710545       0.06824458        4       0.00000000       0.04575873       0.07050758       0.14884744
Ni       2.52848820       4.44564490       0.03187996        4       1.00000000      -0.10040104       0.02419591       0.01361327
Pt       5.08429472       4.46538123       0.04785930        4       0.00000000      -0.11851176       0.05315883      -0.09702546
Ni       7.71186640       4.44715626       0.01430805        4       1.00000000      -0.06750434       0.03525366       0.10854871
Ni      10.29010925       4.45865636      -0.00958481        4       1.00000000       0.08631652       0.13125580       0.03090726
Ni       3.80315941       6.65736148       0.05116229        4       1.00000000      -0.09918384       0.05687947       0.18440025
Pt       6.44177914       6.69150692       0.03649132        4       0.00000000      -0.03857819      -0.01540383      -0.15279762
Ni       8.99767493       6.63873617       0.07005042        4       1.00000000      -0.00873125       0.01171161       0.18652609
Ni      11.56667919       6.63987441      -0.02033933        4       1.00000000       0.04327681      -0.04147073       0.00171615
Ni       1.30306250       0.73909894       2.20503671        3       1.00000000       0.01703251       0.03800707       0.13298036
Ni       3.78934013       0.73635780       2.18934012        3       1.00000000      -0.14288392      -0.01171253       0.04145199
Ni       6.41274561       0.74386022       2.17754974        3       1.00000000       0.09517515      -0.00253818       0.06231096
Pt       8.98071326       0.74136040       2.17716806        3       0.00000000       0.07764124       0.20822817      -0.07190992
Ni       2.54480017       2.90943416       2.23642577        3       1.00000000       0.01988009      -0.11079191       0.17987511
Ni       5.10850250       2.96267279       2.19102604        3       1.00000000      -0.11015267       0.11581606      -0.04683563
Ni       7.66852378       2.94475736       2.18371506        3       1.00000000       0.03416724      -0.06158335      -0.04484512
Ni      10.30480750       2.92958753       2.19251159        3       1.00000000       0.13238749      -0.07396902       0.15894421
Ni       3.85037048       5.15001209       2.16808172        3       1.00000000      -0.02784481      -0.03126489       0.01588402
Ni       6.39468840       5.15898816       2.15538191        3       1.00000000      -0.00197431       0.03663296      -0.07343272
Pt       8.92432445       5.11880255       2.15053927        3       0.00000000       0.00069558      -0.03458838       0.00058955
Pt      11.60455704       5.11505179       2.13707750        3       0.00000000       0.07657295      -0.11509636       0.06783877
Ni       5.14074400       7.34461365       2.13385865        3       1.00000000       0.01308795      -0.03124652      -0.00975049
Ni       7.64884446       7.39664313       2.13487824        3       1.00000000      -0.12122105      -0.01652481       0.06907138
Pt      10.29790015       7.40698193       2.08296826        3       0.00000000       0.08472455      -0.03604214       0.08524289
Ni      12.84379789       7.35316751       2.07418017        3       1.00000000       0.08258053      -0.11347459       0.01177959
Ni       0.03986892       1.49145096       4.31598578        2       1.00000000       0.11455771       0.04523000      -0.05803183
Ni       2.48106834       1.49506663       4.28123417        2       1.00000000      -0.04959237       0.05612165      -0.07897241
Pt       5.12036000       1.46138941       4.21897884        2       0.00000000      -0.11139988       0.01237039       0.06408812
Ni       7.68531746       1.46935983       4.28120224        2       1.00000000       0.04296120      -0.03771799      -0.07274573
Ni       1.27121418       3.65256799       4.35041121        2       1.00000000       0.03253167      -0.02609843      -0.02237869
Ni       3.76672701       3.69924640       4.26919637        2       1.00000000      -0.13048261       0.02014368      -0.21470516
Pt       6.47167005       3.67881706       4.28427593        2       0.00000000       0.06774310      -0.05730220      -0.09379824
Ni       9.01404941       3.69974787       4.26152183        2       1.00000000       0.20946836       0.00498977      -0.12419044
Ni       2.52077578       5.83794123       4.34562130        2       1.00000000      -0.04148725      -0.06125233      -0.00763492
Pt       5.10693200       5.86837794       4.27649019        2       0.00000000       0.00215392      -0.04863491      -0.13416362
Ni       7.68531144       5.86742886       4.27850293        2       1.00000000      -0.00393800       0.01940539      -0.10246749
Ni      10.28849359       5.83576799       4.30020033        2       1.00000000       0.10525895      -0.07229296      -0.01285174
Pt       3.80739250       8.07112027       4.23985592        2       0.00000000      -0.09439605      -0.00098098       0.14903150
Ni       6.39714000       8.10356171       4.22388810        2       1.00000000      -0.10415367       0.09111342      -0.15221606
Pt       8.91333840       8.05489687       4.19823399        2       0.00000000      -0.07516231      -0.05099675       0.14464842
Ni      11.53767327       8.04964422       4.23322504        2       1.00000000      -0.02945026      -0.11078217      -0.01275704
Pt      -0.01715964      -0.06187041       6.51737758        1       0.00000000       0.10552320      -0.05601399       0.11107748
Pt       2.51646794      -0.01647470       6.50198102        1       0.00000000      -0.09036217       0.04715403       0.16065894
Pt       5.12084344      -0.04102398       6.51358576        1       0.00000000       0.07786290       0.01198278       0.04865309
Pt       7.65858212      -0.06298914       6.48882930        1       0.00000000      -0.08372633      -0.03985524       0.16014445
Ni       1.25386371       2.24445164       6.43799758        1       1.00000000       0.02048818       0.12424449      -0.19684248
Pt       3.79262227       2.30721972       6.38800222        1       0.00000000       0.01240085       0.23482872      -0.25396337
Ni       6.39457337       2.22967425       6.38153054        1       1.00000000      -0.00856242       0.04048517      -0.22608061
Pt       8.96749864       2.28931635       6.31481773        1       0.00000000       0.02094609       0.10946149      -0.36220215
Ni       2.51006579       4.43813643       6.42131583        1       1.00000000      -0.04745705       0.12982899      -0.23638996
Ni       5.11470480       4.43009537       6.37144413        1       1.00000000       0.01908163       0.10545394      -0.23451422
Ni       7.64354051       4.40378462       6.42334256        1       1.00000000      -0.11453492      -0.00295574      -0.11998291
Ni      10.30082432       4.40109785       6.38558218        1       1.00000000       0.27444931      -0.03111632      -0.23570191
Ni       3.81240553       6.53423150       6.44000880        1       1.00000000      -0.01907128      -0.15520260      -0.07262999
Ni       6.38737632       6.55805161       6.34859653        1       1.00000000       0.04635122      -0.02484775      -0.26367769
Pt       8.97025184       6.47707183       6.42869755        1       0.00000000       0.07227047      -0.13926081       0.08309036
Ni      11.55378062       6.54369090       6.37902306        1       1.00000000       0.04685155      -0.06297758      -0.19463361
