64
Lattice="10.290852375818474 -0.011336608693399235 0.05349509742530288 5.135608396787993 8.869796559451625 0.012385811683215769 0.0 0.0 21.570343466547875" Properties=species:S:1:pos:R:3:tags:I:1:initial_magmoms:R:1:forces:R:3 unique_id=20372204e76c4d1796978929f9909263 energy=-375.2916154561542 stress="0.005690653269996973 2.18834902565294e-05 0.000306822439942926 2.18834902565294e-05 0.0057059093093520296 -2.8540882797652465e-05 0.000306822439942926 -2.8540882797652465e-05 -0.001433637879539722" pbc="T T T"
Ni       0.01657889      -0.00136899       0.11149522        1       1.00000000       0.10870508       0.05651076      -0.06896658
Ni       2.54927488       0.01264534       0.14577658        1       1.00000000      -0.06037860       0.08413961       0.00971778
Pt       5.14225608      -0.05389273       0.09421455        1       0.00000000      -0.02428203       0.17183609      -0.94041451
Ni       7.74776593      -0.06481299       0.16048771        2       1.00000000      -0.07424163      -0.05636605      -0.18196835
Ni       1.28924301       2.22354214       0.04545759        0       1.00000000      -0.00365611       0.01652971       0.40912473
Pt       3.75287044       2.21745776       0.13172681        1       0.00000000       0.04692240       0.00147810      -0.30184149
Pt       6.45229046       2.18817378       0.07295601        1       0.00000000       0.01174140      -0.04203997      -0.12962232
Pt       9.10927372       2.20788097       0.09889975        1       0.00000000       0.02719258       0.12918370      -0.50033636
Ni       2.53083326       4.46352269       0.00400703        0       1.00000000      -0.01916898      -0.01749025       0.23429689
Pt       5.06119905       4.49285030       0.05337268        1       0.00000000      -0.00528197       0.07856665      -0.05487817
Pt       7.76762901       4.47600054       0.00000000        0       0.00000000      -0.10055370       0.02526057      -0.23281923
Ni      10.35302752       4.45231802       0.04324494        0       1.00000000       0.09263289      -0.01675813       0.27941994
Ni       3.80106877       6.68416076       0.04978807        0       1.00000000      -0.02075621       0.06192738       0.35841913
Pt       6.42548989       6.74867879       0.14796374        1       0.00000000      -0.03192179       0.00951748      -0.48028336
Ni       9.03088088       6.64460090       0.04346697        0       1.00000000       0.00746537       0.01514940       0.13886019
Ni      11.60874949       6.61208991       0.05284796        1       1.00000000       0.07675712       0.05372636       0.28577149
Ni       1.32844951       0.74726193       2.17488061        3       1.00000000       0.07141126       0.07723625       0.23967177
Ni       3.82809860       0.76449276       2.21733334        3       1.00000000      -0.06082817       0.11802805       0.30736482
Ni       6.44237036       0.76540506       2.22512710        3       1.00000000      -0.05626660       0.14325067       0.29816330
Pt       9.03383397       0.72538602       2.22867553        3       0.00000000       0.05943428       0.16897869       0.00362702
Ni       2.56897389       2.92393679       2.23164045        3       1.00000000       0.02314512      -0.14358715       0.29156001
Ni       5.13107678       2.94405769       2.22766298        3       1.00000000      -0.09847952      -0.05816141       0.19578192
Ni       7.70769009       2.92931015       2.22896833        3       1.00000000      -0.02386901      -0.05794381       0.12488414
Ni      10.34843242       2.92118659       2.24858627        3       1.00000000       0.16118930      -0.11212612       0.27450521
Ni       3.86862146       5.16846627       2.18143524        3       1.00000000       0.02579904      -0.12131690       0.05506903
Ni       6.41560198       5.16205760       2.19532167        3       1.00000000       0.05129890      -0.11817281       0.04622146
Pt       8.97695023       5.12072206       2.26977175        4       0.00000000      -0.08561985      -0.22505837      -0.03747819
Pt      11.66200177       5.10075219       2.21556445        3       0.00000000       0.08016790      -0.16602189       0.10520412
Ni       5.14829686       7.38390247       2.17771978        3       1.00000000       0.03091201      -0.01384335       0.12204138
Ni       7.68382366       7.42256496       2.20529648        3       1.00000000      -0.10793845       0.05809075       0.21711283
Pt      10.29796750       7.35820836       2.19594550        3       0.00000000       0.02271632      -0.06261880      -0.21042972
Ni      12.90395655       7.35244207       2.16615922        3       1.00000000       0.09479468      -0.08433595       0.04709738
Ni       0.07995937       1.52467865       4.27860811        5       1.00000000       0.19469832       0.07980867      -0.17374929
Ni       2.55340945       1.51508274       4.27146900        5       1.00000000      -0.08412482       0.05603481      -0.24075437
Ni       5.15038399       1.49129785       4.28395913        5       1.00000000      -0.12855045      -0.04090714      -0.41184473
Ni       7.73926058       1.48621126       4.32926773        5       1.00000000       0.01768697      -0.08456465      -0.26138546
Ni       1.30616107       3.67760706       4.34033681        5       1.00000000       0.01752368      -0.06500214      -0.02555894
Ni       3.82383565       3.68637643       4.27524767        5       1.00000000      -0.19484179      -0.08738599      -0.33205036
Pt       6.47566976       3.63614463       4.31365933        5       0.00000000      -0.00329091      -0.02547803      -0.17260586
Ni       9.06462226       3.70109466       4.33545578        5       1.00000000       0.17766526      -0.08371029      -0.14962953
Ni       2.56414869       5.84384337       4.35157059        6       1.00000000      -0.06795979      -0.18133526      -0.00369266
Pt       5.12822658       5.85647049       4.25680388        5       0.00000000       0.00265526      -0.11218613      -0.05546350
Ni       7.75992565       5.87567035       4.34185577        5       1.00000000      -0.06488439      -0.04592822      -0.13117703
Ni      10.31058922       5.83807457       4.41810799        6       1.00000000       0.04454141      -0.06403962       0.06704683
Pt       3.91039072       8.12257994       4.28872030        5       0.00000000       0.06444218       0.03917447       0.06696484
Ni       6.44574693       8.15092559       4.27524825        5       1.00000000      -0.09008958       0.09112030      -0.30022497
Pt       8.93034042       8.11342280       4.29086786        5       0.00000000      -0.10130986       0.05931867       0.05138025
Pt      11.61182056       8.08622572       4.30068480        5       0.00000000      -0.00113835      -0.07279138       0.01937800
Pt       0.03530164       0.00488174       6.49406438        8       0.00000000       0.08815672       0.05831028       0.31070257
Pt       2.58675725       0.01053875       6.51274280        8       0.00000000      -0.04187155       0.07368443       0.24828023
Pt       5.16752559      -0.04087986       6.43931482        7       0.00000000      -0.01009876       0.20987972       0.99994506
Pt       7.73461588      -0.05511368       6.57034347        9       0.00000000      -0.07629402       0.16255678       0.38685840
Ni       1.30975077       2.27906964       6.43480877        7       1.00000000      -0.01850212       0.21968403      -0.36152948
Pt       3.86576799       2.31280095       6.37464984        7       0.00000000      -0.01279509       0.02209699       0.26342862
Ni       6.45807346       2.23497099       6.41696492        7       1.00000000      -0.01749838      -0.04530522       0.13381721
Pt       9.04372772       2.30234690       6.38759967        7       0.00000000       0.00672389      -0.00232507       0.45040106
Ni       2.55592799       4.46150946       6.44012920        7       1.00000000      -0.04328689       0.01286421      -0.45757396
Ni       5.15228177       4.42149831       6.41439766        7       1.00000000      -0.05729985       0.01697429       0.02795063
Ni       7.76289652       4.42635785       6.39297187        7       1.00000000       0.09640768       0.04164561       0.08588091
Ni      10.34577548       4.45690752       6.47716476        8       1.00000000       0.05112331      -0.01113084      -0.45133974
Ni       3.83993556       6.57474494       6.47991788        8       1.00000000      -0.05832779      -0.16494084      -0.27727594
Pt       6.47446754       6.55391789       6.43109734        7       0.00000000       0.07752200       0.08618531       0.42725297
Ni       9.05858270       6.55996610       6.48600744        8       1.00000000       0.03273089      -0.11389318      -0.29794678
Ni      11.59532199       6.55403224       6.50957244        8       1.00000000      -0.01875619      -0.00198382      -0.34036124
