64
Lattice="10.184694985562354 0.013614062376949204 -0.015264990636748625 5.104137616648377 8.766782107456164 -0.006956379273991393 -0.012463812662799093 0.0006374483198030269 8.679375174859873" Properties=species:S:1:pos:R:3:tags:I:1:initial_magmoms:R:1:forces:R:3 unique_id=4e2d4e6f87694cd1a73118781e6af7b7 stress="9.273173375407007e-05 -2.8673856620533586e-06 1.2409194504982474e-05 -2.8673856620533586e-06 0.00010507898879966865 6.8838764992746935e-06 1.2409194504982474e-05 6.8838764992746935e-06 0.00010830149820228313" energy=-391.3209573945176 pbc="T T T"
Ni       0.01027987       0.02121967       0.18097785        4       1.00000000       0.07257606       0.05671683       0.35152286
Ni       2.53562167       0.00276257       0.20476857        4       1.00000000      -0.01583526       0.00280703       0.37575921
Ni       5.09183385      -0.00291133       0.15395570        4       1.00000000      -0.01817379       0.09845100       0.26018428
Ni       7.64286392      -0.00110729       0.14069203        4       1.00000000       0.00747516       0.06317293       0.25301662
Ni       1.23562996       2.20251852       0.11281393        4       1.00000000      -0.08967781       0.04208858       0.19948922
Pt       3.76411193       2.21216510       0.16813104        4       0.00000000      -0.11955813       0.04298409       0.18130672
Pt       6.41957126       2.21842439       0.09352070        4       0.00000000       0.06632254       0.06531977      -0.03401263
Ni       8.95432692       2.24285210       0.13274506        4       1.00000000       0.08023326       0.13078815       0.17270897
Ni       2.53911089       4.41208636       0.06234789        4       1.00000000      -0.04865153       0.05452285       0.01462659
Ni       5.07878850       4.40939652       0.09734966        4       1.00000000      -0.04489815       0.00089763       0.16815705
Ni       7.68570890       4.39655281       0.10001807        4       1.00000000       0.10948725       0.02692334       0.17636830
Ni      10.17680347       4.38145939       0.06123518        4       1.00000000      -0.05857186      -0.00971695       0.03358590
Ni       3.81649177       6.55449683       0.06128159        4       1.00000000       0.01888349      -0.06206109      -0.01441606
Pt       6.36834236       6.57008870       0.08233045        4       0.00000000      -0.03457932      -0.01432920      -0.24277752
Ni       8.92012829       6.55841473       0.14294617        4       1.00000000      -0.08269317      -0.08129658       0.18571290
Ni      11.46354056       6.56944304       0.02678918        4       1.00000000      -0.06469713      -0.06654950      -0.10963208
Ni       1.30848142       0.74779878       2.19563169        3       1.00000000       0.03490761       0.05103585       0.15866282
Ni       3.78754883       0.76845677       2.20815419        3       1.00000000      -0.00092149       0.10510530       0.07088993
Ni       6.33977419       0.78407834       2.21880053        3       1.00000000      -0.01612184       0.09582170       0.15337157
Pt       8.94790162       0.82347056       2.17009749        3       0.00000000      -0.04298636       0.05079448       0.07144520
Ni       2.53907687       2.89245829       2.24446899        3       1.00000000       0.02187898      -0.08231526       0.10273537
Ni       5.08682986       2.94693290       2.21873353        3       1.00000000      -0.07216791      -0.01623435      -0.04695469
Ni       7.65044050       2.98358252       2.19243064        3       1.00000000       0.03528612       0.08451751       0.04058394
Ni      10.19045907       2.93447582       2.17771896        3       1.00000000       0.03293545       0.00638357       0.12753890
Ni       3.87541466       5.07196363       2.17878918        3       1.00000000       0.07601648      -0.08545399       0.00457202
Ni       6.37097073       5.11310411       2.18295472        3       1.00000000      -0.00710804       0.04944591      -0.06148353
Ni       8.86656819       5.08350998       2.17738979        3       1.00000000      -0.05296928      -0.02566569       0.09940824
Pt      11.45612814       5.02563395       2.17789649        3       0.00000000       0.04294023      -0.12911388       0.01279647
Ni       5.14829097       7.28127089       2.19354006        3       1.00000000       0.08091885      -0.08769089       0.01768063
Ni       7.59530349       7.30394160       2.18393258        3       1.00000000      -0.09074196      -0.09006139       0.04390582
Pt      10.15019145       7.31402444       2.13569221        3       0.00000000      -0.07305281      -0.03949670       0.03715811
Pt      12.76961437       7.27827327       2.12593616        3       0.00000000       0.10545861      -0.09501696      -0.04839993
Ni       0.04367630       1.50853365       4.29757608        2       1.00000000       0.08974282       0.06538224       0.01337450
Ni       2.49815883       1.51073509       4.25014094        2       1.00000000      -0.03135377       0.05834734      -0.03756683
Ni       5.09867933       1.48228988       4.24690721        2       1.00000000      -0.07063427       0.02354414      -0.12060268
Ni       7.62109549       1.48346988       4.28215380        2       1.00000000       0.01136439      -0.00173060      -0.02199839
Ni       1.27522034       3.63861354       4.34413221        2       1.00000000       0.02801046      -0.04816963      -0.02269642
Ni       3.78537563       3.70124016       4.24718559        2       1.00000000      -0.05265641       0.05254964      -0.19709506
Pt       6.36028194       3.67872061       4.27960118        2       0.00000000      -0.00673324      -0.02282527      -0.03422989
Ni       8.94333182       3.69384632       4.26086503        2       1.00000000       0.06624865       0.05415395      -0.16450590
Ni       2.54042284       5.78947803       4.35508508        2       1.00000000      -0.01014630      -0.07933126      -0.10117327
Ni       5.09422135       5.82657903       4.30191619        2       1.00000000      -0.02744191      -0.06830633      -0.22160927
Ni       7.62371212       5.83458408       4.26783764        2       1.00000000       0.02465452      -0.00044498      -0.21156342
Ni      10.21114720       5.79778085       4.31192598        2       1.00000000       0.00800862      -0.06776412      -0.05721431
Pt       3.85543145       7.98299914       4.28743712        2       0.00000000       0.05097579      -0.02501270       0.22035037
Ni       6.36848611       8.01839513       4.24639828        2       1.00000000      -0.02603712       0.01179909      -0.10828575
Pt       8.87389346       8.05218035       4.23697302        2       0.00000000      -0.06030599      -0.00412251       0.15095193
Ni      11.46214515       8.02870532       4.27511745        2       1.00000000      -0.00448117      -0.04579244      -0.05411025
Pt       0.00304463      -0.03350639       6.47538504        1       0.00000000       0.10408291      -0.07351072       0.14604748
Pt       2.51428174       0.01287540       6.45993026        1       0.00000000      -0.11218922       0.02589872       0.20871313
Pt       5.10513078       0.00633590       6.44137480        1       0.00000000       0.13093190      -0.01449958       0.01283172
Pt       7.62285116      -0.03328930       6.45038328        1       0.00000000      -0.09173007      -0.09472982       0.03880979
Ni       1.26587934       2.25972385       6.39948739        1       1.00000000       0.04807553       0.06801013      -0.14639819
Pt       3.80544398       2.31649332       6.31998332        1       0.00000000       0.01826249       0.22273325      -0.34940353
Ni       6.36127581       2.24227430       6.34130488        1       1.00000000      -0.02482715       0.01005372      -0.24688859
Pt       8.91606558       2.30336138       6.39903705        1       0.00000000       0.00685152       0.11894223      -0.04166043
Ni       2.51928831       4.43186420       6.39501577        1       1.00000000      -0.00121086       0.05766494      -0.19855693
Ni       5.09361368       4.44205254       6.41096010        1       1.00000000      -0.02149819       0.10667839      -0.12520787
Ni       7.58696865       4.39143772       6.41452904        1       1.00000000      -0.18739070      -0.02026433      -0.09261899
Ni      10.25260790       4.38742090       6.38887271        1       1.00000000       0.23968610      -0.02832703      -0.19632221
Ni       3.81398700       6.48398107       6.41342746        1       1.00000000       0.00211382      -0.16598758      -0.18239288
Ni       6.33650695       6.51314392       6.31762201        1       1.00000000      -0.00768468      -0.02712593      -0.38878122
Pt       8.91934271       6.44612931       6.43573261        1       0.00000000       0.02054701      -0.18742470       0.04183566
Ni      11.49168537       6.51264812       6.38549699        1       1.00000000       0.03485029      -0.04316234      -0.26754353
