64
Lattice="10.316170505931456 -0.03849718466804553 0.04984694418779422 5.1247457130690215 8.894644929738815 -0.005194701034497012 0.0 0.0 21.601712431516397" Properties=species:S:1:pos:R:3:tags:I:1:initial_magmoms:R:1:forces:R:3 unique_id=3b55af953571464496184315c48308a3 stress="0.0055970812801691815 -0.00018802838458896977 0.00019038084070957797 -0.00018802838458896977 0.0049167211716545905 -0.00012571415216584893 0.00019038084070957797 -0.00012571415216584893 -0.0011153728380215513" energy=-375.9188035586911 pbc="T T T"
Ni       0.05240890      -0.00083253       0.10344664        1       1.00000000       0.14403829       0.01852971      -0.10540301
Ni       2.53961029      -0.00039280       0.14795829        1       1.00000000      -0.09616326       0.06483841      -0.01465811
Pt       5.08011150      -0.06794990       0.08426658        1       0.00000000      -0.10470714       0.19351211      -1.01959489
Pt       7.78887034      -0.15232927       0.13623393        1       0.00000000      -0.03318066      -0.06403666      -0.87953051
Ni       1.29329348       2.23080569       0.04237447        0       1.00000000      -0.01981469       0.04108371       0.45043927
Pt       3.76720552       2.27370251       0.06229870        1       0.00000000       0.06656998      -0.04115741       0.12616851
Pt       6.41836247       2.26895897       0.12375457        1       0.00000000       0.04130203       0.00899236      -0.78737639
Pt       9.12743929       2.22767516       0.12941905        1       0.00000000      -0.09612427       0.05658156      -0.53570908
Ni       2.56306278       4.46920673       0.00000000        0       1.00000000       0.06226778       0.03207805       0.30679039
Ni       5.09732359       4.47298189       0.04592023        0       1.00000000      -0.08302033       0.12601440       0.40222144
Pt       7.76889847       4.50115310       0.06287155        1       0.00000000       0.04806599       0.04261353       0.06110412
Ni      10.35056487       4.44282252       0.04794451        0       1.00000000       0.06119384      -0.01735674       0.26122495
Ni       3.83897605       6.61059771       0.03394373        0       1.00000000      -0.03762183      -0.14844179       0.45357806
Pt       6.38680479       6.70797523       0.05801529        1       0.00000000      -0.01083957       0.04994693       0.22492504
Ni       9.01116453       6.62866224       0.03133889        0       1.00000000      -0.04685270       0.03791594       0.11763583
Ni      11.59159829       6.57708467       0.03998884        0       1.00000000       0.06885624       0.02711178       0.17780130
Ni       1.33794817       0.72491837       2.16323170        3       1.00000000       0.17254360      -0.00126787       0.06750248
Ni       3.81524457       0.75107917       2.19403189        3       1.00000000      -0.09461221       0.03466471       0.17988231
Pt       6.40317073       0.77064012       2.26472620        4       0.00000000      -0.10467432       0.16815023       0.09476611
Pt       9.16067389       0.68652518       2.25087432        4       0.00000000       0.15590960       0.01613562       0.02309324
Ni       2.58220718       2.94110232       2.18543035        3       1.00000000       0.02403010      -0.02474057       0.16030865
Ni       5.10253208       3.00985612       2.22879387        3       1.00000000      -0.19134899       0.20419139       0.16372526
Ni       7.75705767       3.00974190       2.22835188        3       1.00000000       0.06306360       0.16069308       0.21092157
Ni      10.34788656       2.93542896       2.24809506        3       1.00000000       0.11988924      -0.02383240       0.23561370
Ni       3.89660499       5.17398303       2.17447603        3       1.00000000       0.15562827      -0.04429916       0.06907114
Ni       6.41790064       5.18976551       2.20523813        3       1.00000000      -0.08735882       0.07639743       0.09900507
Ni       8.98095419       5.12396528       2.22105324        3       1.00000000      -0.13683830      -0.19299806       0.23067702
Pt      11.65507929       5.09169381       2.14722950        2       0.00000000       0.16426265      -0.15988793       0.05449940
Ni       5.16990177       7.35695766       2.18004475        3       1.00000000       0.08791395      -0.20329292       0.14659784
Ni       7.66142682       7.38683658       2.18920271        3       1.00000000      -0.18488751      -0.06462613       0.15768526
Pt      10.23303150       7.29569088       2.16736254        3       0.00000000      -0.06533041      -0.18556001      -0.21023223
Ni      12.92722702       7.30456147       2.21439558        3       1.00000000       0.20580374      -0.21078174       0.10003211
Ni       0.05195086       1.46867175       4.33706524        5       1.00000000       0.08714028      -0.10604854      -0.17947864
Pt       2.59028680       1.48241781       4.31246538        5       0.00000000      -0.02904904      -0.04974243      -0.08892031
Ni       5.13239559       1.49831110       4.36565483        6       1.00000000      -0.10136006       0.11493056      -0.24431957
Pt       7.79263468       1.51413342       4.35034188        6       0.00000000       0.03890560       0.00100608      -0.09299700
Pt       1.30865237       3.68968261       4.39358724        6       0.00000000      -0.01089230       0.01797310       0.00441520
Ni       3.88465995       3.72716646       4.37179843        6       1.00000000       0.00605741       0.13348372      -0.12580268
Pt       6.40709546       3.78861854       4.29931336        5       0.00000000      -0.06267210       0.02010740      -0.19118485
Ni       9.01867854       3.69574604       4.35210156        6       1.00000000      -0.10609953       0.02734612      -0.34215221
Ni       2.63089193       5.87174077       4.37941785        6       1.00000000       0.14703945      -0.20542281      -0.06359275
Ni       5.15838573       5.89579814       4.36684437        6       1.00000000      -0.00398245      -0.05066769      -0.19466692
Ni       7.68947578       5.90054627       4.37901854        6       1.00000000      -0.17603789       0.07558403      -0.24674322
Pt      10.25234030       5.82474248       4.45633078        7       0.00000000      -0.11858292      -0.01665577      -0.05560383
Pt       3.95497216       8.02878232       4.29135545        5       0.00000000       0.08382698      -0.11646167      -0.03043418
Ni       6.43432350       8.08409085       4.32455893        5       1.00000000      -0.03061681      -0.10952116      -0.29935842
Pt       8.91945889       8.08907387       4.30254862        5       0.00000000      -0.12446602      -0.02875106      -0.15734361
Pt      11.62092671       8.04504005       4.33765684        5       0.00000000       0.07791694      -0.17294885      -0.15968486
Pt       0.05310218      -0.06251734       6.54914606        8       0.00000000       0.11238439       0.02672496       0.16237994
Pt       2.59033452      -0.03971515       6.60171243        9       0.00000000      -0.06726666      -0.07255231       0.19097482
Pt       5.15823493      -0.07357153       6.49269926        8       0.00000000       0.01626806       0.14001142       0.97033831
Pt       7.77802296      -0.12730882       6.54312722        8       0.00000000       0.00916081       0.13604254       1.04624525
Ni       1.34087804       2.25095448       6.53667782        8       1.00000000       0.07271013       0.03816688      -0.16717974
Ni       3.85340121       2.25804222       6.46412256        8       1.00000000      -0.03569052       0.15019219      -0.08863402
Pt       6.39734801       2.28774512       6.50281282        8       0.00000000      -0.01081007       0.03619089       0.76662803
Pt       9.12522134       2.28795213       6.49829665        8       0.00000000      -0.00191625       0.10116773       0.70734574
Ni       2.60584724       4.44539212       6.52490317        8       1.00000000       0.11728642       0.03257815      -0.42339145
Ni       5.12825601       4.47082305       6.52305185        8       1.00000000      -0.12831789       0.10471122      -0.44196952
Ni       7.75286670       4.47852888       6.46694574        8       1.00000000       0.04010707       0.12686752      -0.17267581
Ni      10.35128297       4.44203656       6.58645828        9       1.00000000       0.03790210       0.02253415      -0.10581323
Ni       3.87514088       6.56902534       6.51617968        8       1.00000000      -0.00210814      -0.15919493      -0.39566606
Ni       6.44465933       6.58445829       6.45013941        8       1.00000000      -0.02751517      -0.07349835      -0.21741944
Ni       9.01435443       6.57786389       6.56116318        9       1.00000000      -0.16628120      -0.02539935      -0.17889971
Ni      11.61714647       6.54748913       6.57680763        9       1.00000000       0.10899547      -0.09592529      -0.20716110
