64
Lattice="10.108190718719142 0.005732073723365964 0.004993627166665003 5.059059480820372 8.73508126914811 -0.017401673093668295 0.004077279508009785 -0.018760473152876572 8.659960159414616" Properties=species:S:1:pos:R:3:tags:I:1:initial_magmoms:R:1:forces:R:3 unique_id=acf9c99d40f04564adc6f5e7f1bd8c78 stress="0.0008382924703352612 1.8879009514971134e-07 5.6546289046595065e-06 1.8879009514971134e-07 0.0008383210327344431 -4.795625372286302e-06 5.6546289046595065e-06 -4.795625372286302e-06 0.0007581226984858178" energy=-389.3558530563462 pbc="T T T"
Ni       0.03787815      -0.03763697       0.18037283        4       1.00000000       0.11247468      -0.01868767       0.33215107
Ni       2.51135855      -0.02995190       0.19154959        4       1.00000000      -0.00039814      -0.06252668       0.24035804
Ni       5.06687531      -0.01420567       0.08791263        4       1.00000000      -0.00938573      -0.04583008       0.08148176
Ni       7.55350338      -0.00982983       0.15940873        4       1.00000000       0.00268850       0.03033877       0.24498012
Ni       1.26780863       2.19417573       0.10932572        4       1.00000000       0.00964205       0.02301110       0.23653741
Pt       3.78646473       2.18897881       0.18194112        4       0.00000000      -0.01954157      -0.02993414       0.29160320
Ni       6.31444794       2.19393781       0.10231360        4       1.00000000      -0.00164302       0.06824136       0.21275344
Pt       8.85002343       2.24035160       0.02064902        4       0.00000000       0.04152948       0.01954169      -0.27473669
Ni       2.50756367       4.39624416       0.09109612        4       1.00000000      -0.02525141       0.03687408       0.16230900
Ni       5.05781031       4.39145678       0.06485071        4       1.00000000      -0.01947183       0.01398676       0.06192354
Ni       7.57704875       4.40013546       0.06651692        4       1.00000000       0.00695555       0.10176969       0.07240711
Ni      10.13656215       4.40544227       0.09553862        4       1.00000000       0.04466527       0.11990374       0.14917831
Ni       3.81834505       6.52341058       0.05322727        4       1.00000000       0.12901072      -0.09868831       0.01511681
Ni       6.31651046       6.56691406       0.06528389        4       1.00000000       0.00516973       0.07458038      -0.02110559
Ni       8.82259546       6.53468858       0.14055447        4       1.00000000      -0.16372797      -0.06612316       0.22380648
Ni      11.36819189       6.52902580       0.04036275        4       1.00000000      -0.06702523      -0.06060969      -0.07817781
Ni       1.31051083       0.72975538       2.18599456        3       1.00000000       0.02480935       0.09787682       0.13580170
Ni       3.74829924       0.71931212       2.19761693        3       1.00000000      -0.12157419      -0.00020307       0.02532092
Ni       6.30192937       0.76440436       2.14371536        3       1.00000000       0.02438037       0.00841853      -0.07396153
Pt       8.88371078       0.78178497       2.20535960        3       0.00000000       0.00977740       0.17063434      -0.07974573
Ni       2.50818934       2.91678804       2.20060997        3       1.00000000       0.03954931      -0.03023998       0.05390960
Ni       5.05904277       2.91489601       2.18750127        3       1.00000000      -0.03006633       0.03812160       0.01328570
Ni       7.57976615       2.92640578       2.18242345        3       1.00000000       0.05257186       0.03272951       0.01097631
Ni      10.13961637       2.95145596       2.17716811        3       1.00000000      -0.01361767       0.02958296      -0.03588590
Ni       3.78433656       5.03773571       2.16281090        3       1.00000000      -0.00583116      -0.16032017       0.03236924
Pt       6.32556499       5.12239356       2.13443479        3       0.00000000       0.01183867       0.06654036       0.00413107
Ni       8.86292701       5.05554247       2.17282638        3       1.00000000       0.01283293      -0.11446704       0.09149315
Ni      11.36661204       5.04524048       2.14528022        3       1.00000000      -0.04441928      -0.04934002      -0.01687395
Ni       5.10456027       7.27717295       2.14483866        3       1.00000000       0.01896367       0.02673652       0.05342020
Ni       7.55451197       7.30840851       2.17277730        3       1.00000000      -0.06824188       0.03840658       0.11098238
Pt      10.05072600       7.26963362       2.17625408        3       0.00000000      -0.04775499      -0.04702489      -0.00292130
Pt      12.64478944       7.19643818       2.12658999        3       0.00000000       0.05010466      -0.13204678      -0.01452629
Ni       0.02228169       1.46583098       4.30793574        2       1.00000000       0.09459431      -0.04400331      -0.02808346
Ni       2.49356554       1.42596148       4.24742937        2       1.00000000      -0.00640314      -0.05364610      -0.08048009
Pt       5.05801385       1.38736731       4.23311895        2       0.00000000      -0.06700805      -0.03585253       0.06789821
Ni       7.60875874       1.47131561       4.31107478        2       1.00000000       0.02192068      -0.03048024      -0.07157304
Pt       1.26360217       3.63874085       4.29127606        2       0.00000000       0.04224252      -0.00729437      -0.00241301
Ni       3.78535060       3.68913134       4.26087075        2       1.00000000       0.03609795       0.06177061      -0.16472002
Pt       6.35090065       3.66313238       4.34055395        2       0.00000000       0.02205824      -0.00817929       0.00385031
Ni       8.85998788       3.65077197       4.30150371        2       1.00000000       0.02899475       0.12337551      -0.20752043
Ni       2.53092157       5.79063083       4.32633185        2       1.00000000       0.00554459      -0.05717828      -0.07964396
Ni       5.05770756       5.80845382       4.32315972        2       1.00000000       0.03239788      -0.02554228      -0.09292839
Ni       7.60102870       5.84484211       4.28818956        2       1.00000000       0.07574405       0.05166102      -0.12176863
Ni      10.11145462       5.81372861       4.28823803        2       1.00000000      -0.02814252      -0.07755619      -0.11821068
Pt       3.81833733       7.94569106       4.28059316        2       0.00000000       0.04884200       0.00331850       0.18078151
Ni       6.36210672       7.97883694       4.23905504        2       1.00000000       0.03325036      -0.01727602      -0.09164831
Ni       8.82827673       7.96911287       4.26937702        2       1.00000000      -0.11163757      -0.09011353      -0.01766928
Ni      11.35162382       7.94850747       4.30695622        2       1.00000000      -0.00100049      -0.16554419      -0.02833121
Pt      -0.00074642      -0.00179131       6.46472804        1       0.00000000      -0.02669606       0.01416191       0.19648614
Pt       2.55151561      -0.01651615       6.41279898        1       0.00000000      -0.02804698       0.02083386       0.08897709
Ni       5.06201431      -0.02638133       6.41568800        1       1.00000000      -0.09192769      -0.02635565      -0.18383668
Pt       7.50047165      -0.00375258       6.45770951        1       0.00000000      -0.12153552       0.00164265       0.10550123
Ni       1.23802367       2.21926892       6.41147755        1       1.00000000      -0.02298571       0.04187916      -0.05864456
Pt       3.80036275       2.26978521       6.36008998        1       0.00000000       0.00627070       0.21051990      -0.32770769
Ni       6.34568107       2.21037669       6.43142594        1       1.00000000       0.00466395       0.10674438      -0.02338414
Ni       8.84525723       2.23637460       6.29195312        1       1.00000000      -0.02246511       0.09070071      -0.47343788
Ni       2.51972535       4.41238803       6.41107899        1       1.00000000      -0.03671129       0.14427386      -0.05668095
Ni       5.06721447       4.41388476       6.41478379        1       1.00000000      -0.00118968       0.17324811      -0.08158583
Ni       7.58629594       4.33707669       6.42012909        1       1.00000000       0.04343610      -0.04502491      -0.05449522
Ni      10.12712306       4.33000146       6.41561146        1       1.00000000       0.03141108      -0.10892322      -0.04250966
Ni       3.79494944       6.47021973       6.40327027        1       1.00000000      -0.01932504      -0.05556632      -0.11883830
Ni       6.30123171       6.47758123       6.38738719        1       1.00000000       0.01797501      -0.03460628      -0.22442501
Pt       8.88902224       6.46051267       6.40436289        1       0.00000000       0.04763661      -0.12631753       0.09949396
Ni      11.39795616       6.49800432       6.38637975        1       1.00000000       0.03298028      -0.11592307      -0.25081378
