64
Lattice="10.1872914507607 -0.015930184867251618 0.014273658692643331 5.079849780598324 8.763125761061668 -0.038521162764934204 0.0 0.0 21.409984560613392" Properties=species:S:1:pos:R:3:tags:I:1:initial_magmoms:R:1:forces:R:3 unique_id=e9d03d360c244698a2b7461b7ca9f55f energy=-369.1593983521844 stress="0.0043058327438978 4.480829100806427e-05 2.4363852452658237e-05 4.480829100806427e-05 0.003926990667523231 -2.4415904946503965e-05 2.4363852452658237e-05 -2.4415904946503965e-05 -0.0022967559311483504" pbc="T T T"
Ni       0.03673213      -0.05964954       0.04154722        0       1.00000000       0.03518119       0.00321708       0.25335262
Ni       2.54299903      -0.01418598       0.04333357        0       1.00000000       0.01051519      -0.00008327       0.29985286
Ni       5.06079852      -0.06364260       0.13866430        1       1.00000000      -0.04217982      -0.02248394      -0.23538567
Ni       7.64132339      -0.08913147       0.13709347        1       1.00000000       0.00820315       0.03683595      -0.23023342
Ni       1.32758468       2.14556761       0.11572389        1       1.00000000      -0.00574013      -0.08408928      -0.23430481
Ni       3.76028425       2.14476989       0.03639406        0       1.00000000      -0.04034733      -0.05467696       0.15806009
Pt       6.30390590       2.09036602       0.02157335        0       0.00000000      -0.01856172      -0.08510210      -0.26955816
Pt       8.97046694       2.08238922       0.02329174        0       0.00000000       0.05593931      -0.02409965      -0.22922456
Ni       2.53938658       4.38269374       0.13384914        1       1.00000000      -0.00612375       0.04771417      -0.38667726
Pt       5.00351282       4.42527342       0.00017892        0       0.00000000      -0.05166284       0.02262821      -0.13631882
Pt       7.63208670       4.45576295       0.00000000        0       0.00000000       0.04052724      -0.06841747      -0.18129035
Pt      10.26209482       4.41813596       0.01050658        0       0.00000000       0.02862183      -0.03318855      -0.12530471
Ni       3.78930367       6.61178441       0.01148696        0       1.00000000       0.00901197       0.02572668       0.29151559
Ni       6.35146682       6.63856017       0.00366215        0       1.00000000      -0.01185247       0.03488075       0.25010837
Ni       8.91051205       6.63341451       0.01210009        0       1.00000000       0.00284609       0.07404590       0.24285584
Ni      11.47543365       6.59645985       0.02909826        0       1.00000000       0.00710106       0.03574156       0.28459257
Ni       1.28097135       0.70976513       2.07581627        3       1.00000000       0.01276477      -0.06482884       0.05322811
Ni       3.78647511       0.69319981       2.06159948        3       1.00000000      -0.17679379      -0.06739623       0.03459546
Ni       6.37038636       0.65148913       2.09393067        3       1.00000000       0.03273444      -0.12031667       0.01041736
Ni       8.94898076       0.65267645       2.10972532        3       1.00000000       0.20033860      -0.13258133       0.00201150
Ni       2.54813285       2.87851700       2.04025530        2       1.00000000       0.02388258      -0.11524080       0.07391110
Ni       5.06738688       2.89191947       2.07788306        3       1.00000000       0.00094642      -0.02089234      -0.04438747
Ni       7.65909489       2.91015873       2.10212657        3       1.00000000       0.09106775       0.06703105      -0.07106410
Ni      10.18676167       2.87144259       2.10555122        3       1.00000000      -0.11482781      -0.08633332       0.06311861
Ni       3.80649845       5.14313177       2.07141312        3       1.00000000       0.10131988       0.15362659       0.04727718
Ni       6.35497402       5.15273052       2.10635571        3       1.00000000      -0.00958334       0.17486134       0.02060417
Ni       8.89695590       5.11929032       2.11015045        3       1.00000000      -0.10766924       0.00833493       0.03374117
Ni      11.47773662       5.12159185       2.08118334        3       1.00000000      -0.06609092       0.10576709       0.06521798
Ni       5.07806085       7.29137209       2.03935135        2       1.00000000       0.01453769      -0.01658920       0.02564961
Ni       7.64141838       7.29165178       2.04142839        2       1.00000000       0.03636885       0.02001481       0.01086315
Ni      10.17404632       7.29492869       2.05170857        3       1.00000000      -0.05903846      -0.03003250       0.11146829
Ni      12.72764983       7.29226820       2.04761993        2       1.00000000       0.01950142       0.01710488       0.13247565
Ni       0.00073231       1.40386455       4.17674025        5       1.00000000       0.08815303      -0.05072862      -0.24394180
Ni       2.54294613       1.39533468       4.19011153        5       1.00000000      -0.02878028      -0.02142860      -0.19685254
Pt       5.06565837       1.36265299       4.14983620        4       0.00000000      -0.07380974      -0.05156425      -0.09413987
Pt       7.71440368       1.40575651       4.15336824        5       0.00000000       0.04130971      -0.04404534      -0.16049860
Pt       1.21403065       3.57734267       4.12278544        4       0.00000000      -0.01799764      -0.04145485      -0.12801593
Pt       3.82223953       3.62957205       4.15183440        5       0.00000000      -0.04867748      -0.01397736      -0.07729218
Pt       6.42673527       3.70224330       4.17812300        5       0.00000000       0.01277200       0.02171389      -0.27114786
Ni       8.91017002       3.62742634       4.20362387        5       1.00000000      -0.00348093       0.02310857      -0.28215630
Pt       2.57606186       5.92671553       4.14604781        4       0.00000000      -0.00083064       0.11730690       0.07910389
Ni       5.11142354       5.85736350       4.19694024        5       1.00000000      -0.00993929       0.05802935      -0.17810992
Ni       7.62976810       5.84482719       4.19818042        5       1.00000000      -0.02301695       0.09071242      -0.22964982
Pt      10.10616803       5.86379011       4.18729890        5       0.00000000       0.01605315       0.12194025      -0.00499492
Ni       3.85985507       8.02103548       4.14970935        4       1.00000000       0.08025372       0.05304957      -0.23139724
Pt       6.36239016       8.00287030       4.16991334        5       0.00000000       0.01981683       0.08986919      -0.08066097
Ni       8.86477072       7.99437647       4.16121285        5       1.00000000      -0.07097067       0.06224817      -0.21558130
Ni      11.44881895       8.00318075       4.15095162        5       1.00000000      -0.03119739       0.05950893      -0.23923177
Ni       0.02071325      -0.07296371       6.33450260        7       1.00000000       0.00481995      -0.04974293      -0.09850639
Ni       2.54167695      -0.07608830       6.34534021        7       1.00000000      -0.00452289      -0.08988023      -0.09375328
Pt       5.04088669      -0.07697564       6.39516498        8       0.00000000       0.11839730      -0.10359565       0.24719377
Pt       7.70555958      -0.07359897       6.38203936        8       0.00000000      -0.11389270       0.01827785       0.22454238
Pt       1.25555584       2.08185305       6.36122251        8       0.00000000       0.00559778       0.04413945       0.29176037
Ni       3.83883383       2.15832407       6.33875951        7       1.00000000      -0.02937579       0.05797696      -0.00730374
Ni       6.37533169       2.19605321       6.25904491        7       1.00000000       0.03077509      -0.04655901       0.27431475
Ni       8.91196953       2.19264630       6.24724819        6       1.00000000       0.01566279       0.10532735       0.24055821
Pt       2.56590652       4.40581988       6.40998456        8       0.00000000      -0.02394134      -0.13219909       0.54239413
Ni       5.13869200       4.37787594       6.24916520        6       1.00000000       0.02141817       0.14721964       0.35756505
Ni       7.66259529       4.37345629       6.24106591        6       1.00000000       0.07786318       0.09246508       0.26722786
Ni      10.13345601       4.36031764       6.24945335        6       1.00000000      -0.05871240      -0.08410513       0.32524973
Ni       3.89122180       6.55460467       6.31174667        7       1.00000000       0.17919526      -0.07854570      -0.07534355
Ni       6.37257655       6.53298241       6.30129358        7       1.00000000       0.04612827      -0.14244467      -0.22473534
Ni       8.85555321       6.50733762       6.31790145        7       1.00000000      -0.15262267      -0.02874580      -0.09291603
Ni      11.43037078       6.52737589       6.33746936        7       1.00000000      -0.08738522       0.01494513       0.05515129
