64
Lattice="10.32158576235032 -0.01651364259379927 0.047494538393311 5.146491647179916 8.869520527034268 0.022909070336503867 0.038779128210879185 -0.0007902614639944451 8.825928975396677" Properties=species:S:1:pos:R:3:tags:I:1:initial_magmoms:R:1:forces:R:3 unique_id=e1cf917803ac4ac185adffa3ae1dca29 stress="0.0002505614338823431 5.267355891233085e-06 -2.9734725530716073e-05 5.267355891233085e-06 0.0002626224581552053 9.270790060585474e-06 -2.9734725530716073e-05 9.270790060585474e-06 0.00024143720235389465" energy=-398.3335338629755 pbc="T T T"
Ni       0.01452315       0.00611305       0.17504193        4       1.00000000       0.07775655       0.08631989       0.33142429
Ni       2.58275013       0.00834954       0.20753001        4       1.00000000       0.00028073       0.04200542       0.40202700
Ni       5.15865233      -0.02971908       0.18466797        4       1.00000000      -0.03943449       0.07446200       0.20521860
Ni       7.74089323      -0.06843486       0.22198449        4       1.00000000       0.01230478      -0.09792417       0.37000777
Ni       1.29412056       2.22652941       0.11169287        4       1.00000000       0.02728176       0.02817580       0.25313518
Pt       3.77770758       2.17749299       0.20536712        4       0.00000000      -0.05352978       0.04084479       0.20168438
Pt       6.44924182       2.12607451       0.13444355        4       0.00000000       0.05844614      -0.09703154      -0.08418045
Pt       9.12608715       2.20566199       0.15987933        4       0.00000000       0.13278977       0.00555561       0.10029034
Ni       2.52823314       4.45965411       0.06770032        4       1.00000000      -0.05741299       0.05248800       0.03056224
Pt       5.09976376       4.46634410       0.06090737        4       0.00000000      -0.09895835       0.08065314      -0.15117218
Pt       7.78003630       4.46775867       0.16362623        4       0.00000000       0.12853142       0.10393692       0.29163037
Ni      10.37597626       4.45185758       0.11026573        4       1.00000000       0.12144870       0.10352679       0.06080363
Ni       3.81312866       6.69427510       0.10024386        4       1.00000000      -0.06975766       0.10214975       0.17151234
Pt       6.44246642       6.75880432       0.13291479        4       0.00000000       0.00070927       0.05591898      -0.12014214
Ni       9.06118692       6.68173410       0.10804266        4       1.00000000       0.04659997       0.05295880       0.02023949
Ni      11.62132735       6.64382622       0.11362943        4       1.00000000       0.11741259      -0.01361644       0.00603592
Ni       1.33091158       0.74856242       2.23763168        3       1.00000000       0.04233466       0.04549358       0.13969313
Ni       3.82867296       0.73863173       2.24880519        3       1.00000000      -0.20447688       0.02515767       0.06833509
Ni       6.46716464       0.73959342       2.25444329        3       1.00000000       0.07354676      -0.00074865       0.08514056
Pt       9.06024135       0.72262684       2.28999026        3       0.00000000       0.07123941       0.21510975      -0.06512401
Ni       2.55185602       2.90700050       2.28851855        3       1.00000000      -0.06641824      -0.10632012       0.25899717
Ni       5.16539452       2.94191757       2.25423780        3       1.00000000      -0.07603542       0.03999422      -0.11284985
Ni       7.73589591       2.92159833       2.29202302        3       1.00000000       0.11610629      -0.08475779      -0.12295765
Ni      10.36881574       2.91528658       2.31390366        3       1.00000000       0.10055797      -0.09854058       0.16217299
Pt       3.87789722       5.17737559       2.27402908        3       0.00000000       0.00340442      -0.05182596      -0.09488207
Ni       6.44910744       5.18908392       2.26446154        3       1.00000000       0.00230061       0.12425069      -0.10920365
Pt       9.00773394       5.14560269       2.36276758        3       0.00000000      -0.14997235      -0.09653269      -0.04988289
Pt      11.62135505       5.10857104       2.28295874        3       0.00000000       0.01007050      -0.06544129       0.11981444
Ni       5.18993196       7.40803354       2.24258118        3       1.00000000       0.08860182       0.03734924       0.07463644
Ni       7.69707205       7.42027761       2.26264393        3       1.00000000      -0.12165741       0.02781822       0.05332760
Pt      10.31574311       7.42346577       2.18777999        3       0.00000000       0.01348446      -0.05288345      -0.05068437
Ni      12.91405790       7.37801224       2.23877227        3       1.00000000       0.03678328      -0.07862326       0.00506377
Ni       0.08087966       1.52173999       4.35248354        2       1.00000000       0.19222199       0.05642660      -0.11904512
Ni       2.52913478       1.51070612       4.35986752        2       1.00000000      -0.10154592       0.04388191      -0.08277837
Pt       5.14664665       1.48669709       4.31532823        2       0.00000000      -0.16142350       0.00914655       0.03867310
Ni       7.77743520       1.48876195       4.40232229        2       1.00000000       0.01958440      -0.05329910      -0.06180029
Ni       1.30282754       3.68198809       4.42032208        2       1.00000000       0.00276846      -0.04399314      -0.02043886
Ni       3.81512797       3.71529130       4.38712900        2       1.00000000      -0.16336599      -0.05337181      -0.10874785
Pt       6.50878076       3.68209484       4.33823273        2       0.00000000       0.10217404      -0.05714581      -0.08541934
Ni       9.10587524       3.68782509       4.39606943        2       1.00000000       0.17918272      -0.12796422      -0.05950160
Ni       2.56568056       5.85323007       4.45052994        2       1.00000000      -0.05945407      -0.14012871       0.06391650
Pt       5.19422114       5.91234327       4.44603791        2       0.00000000       0.07168122       0.00657880      -0.06008959
Ni       7.75642331       5.91962549       4.41033679        2       1.00000000      -0.09532350       0.01627371      -0.04364570
Ni      10.33530220       5.83683887       4.49621252        2       1.00000000       0.04090742      -0.13621677       0.11889814
Pt       3.91554069       8.13396466       4.37251593        2       0.00000000      -0.05519343       0.00731512       0.14382472
Ni       6.46116176       8.14996488       4.37158317        2       1.00000000      -0.03486425       0.15046054      -0.17157925
Pt       8.95428477       8.07403897       4.37698011        2       0.00000000      -0.07218498       0.00049358       0.05664694
Pt      11.63211183       8.04624531       4.39581593        2       0.00000000       0.02773481      -0.11049278       0.06418241
Pt       0.04550558      -0.04181856       6.57663431        1       0.00000000      -0.00248332      -0.06501650       0.18872687
Pt       2.58628103      -0.03704043       6.58991703        1       0.00000000      -0.07011258      -0.00200112       0.19040845
Pt       5.17981960      -0.06697894       6.64001048        1       0.00000000       0.02356444      -0.03289070       0.07289861
Pt       7.75944139      -0.06668934       6.64915614        1       0.00000000      -0.09383737      -0.10863603       0.22474091
Ni       1.31237028       2.27202665       6.51992152        1       1.00000000      -0.01595514       0.14083351      -0.22500104
Pt       3.84936647       2.31375698       6.49880156        1       0.00000000      -0.05074422       0.13133575      -0.17299371
Ni       6.46792585       2.22179944       6.50395716        1       1.00000000      -0.01939841       0.03263381      -0.30576182
Pt       9.10289356       2.25345367       6.46095468        1       0.00000000       0.03145401       0.04274048      -0.34047495
Ni       2.56230565       4.46782120       6.52812342        1       1.00000000      -0.14429474       0.07822046      -0.22476218
Ni       5.16018274       4.44827864       6.48717238        1       1.00000000      -0.01953380       0.00927383      -0.35397812
Pt       7.77145894       4.49638688       6.49915029        1       0.00000000      -0.00310772       0.02270933      -0.34792270
Ni      10.39613978       4.45035214       6.56087362        1       1.00000000       0.12990678       0.03289520      -0.21165582
Ni       3.86364159       6.58186197       6.56921599        1       1.00000000      -0.12414220      -0.19366981      -0.07060241
Ni       6.46092669       6.62469212       6.50042739        1       1.00000000       0.00860269       0.04356191      -0.18836519
Ni       9.07474721       6.59976594       6.57782531        1       1.00000000       0.13823562      -0.03609557      -0.20349954
Ni      11.62813691       6.55029517       6.59622449        1       1.00000000      -0.02539171      -0.16378233      -0.15552670
