64
Lattice="10.225421456206437 -0.013086890473434944 -0.007025717138738293 5.101377148496679 8.85542350436104 0.03255401310448067 -0.0057364740223451414 0.03400417271568577 8.777183260614262" Properties=species:S:1:pos:R:3:tags:I:1:initial_magmoms:R:1:forces:R:3 unique_id=fd1d4a8de053474083a45d0df518d2bc stress="0.0001290938097535388 6.690282860802312e-07 -2.1356439758942198e-06 6.690282860802312e-07 0.00012763816483602614 -4.499980310591935e-06 -2.1356439758942198e-06 -4.499980310591935e-06 0.00013585010767605543" energy=-394.5408235731797 pbc="T T T"
Ni       0.06159457       0.02712393       0.14779102        4       1.00000000       0.22580611       0.17290917       0.18456675
Ni       2.54003774      -0.02768351       0.20006599        4       1.00000000      -0.00881820      -0.07807087       0.30388897
Ni       5.07284539      -0.03641933       0.06417286        4       1.00000000      -0.14453951      -0.04370164       0.08688570
Pt       7.69250782      -0.05996609      -0.01975851        4       0.00000000       0.06911813      -0.04104665      -0.20056317
Ni       1.23608366       2.23535278       0.11528411        4       1.00000000      -0.11879366       0.14839114       0.17279598
Pt       3.75984458       2.22647462       0.21063627        4       0.00000000      -0.10446435       0.02281749       0.35333766
Pt       6.42369142       2.30851190       0.04146890        4       0.00000000       0.06583762       0.21901968      -0.05208002
Ni       8.99693636       2.26881446       0.06928103        4       1.00000000       0.12425502       0.22429226       0.07803795
Ni       2.51644063       4.45654202       0.11973158        4       1.00000000      -0.14874633       0.06216779       0.17995655
Ni       5.08392695       4.47008619       0.17716697        4       1.00000000      -0.16273970       0.07097413       0.28798274
Ni       7.71860938       4.45893581       0.08628274        4       1.00000000       0.28800156       0.15562562       0.02600281
Ni      10.22590291       4.41474157       0.10712090        4       1.00000000       0.01955682       0.04905738       0.13291322
Ni       3.83901694       6.58791515       0.07790869        4       1.00000000       0.00788332      -0.19809500       0.02746509
Ni       6.40914614       6.64120484       0.07643597        4       1.00000000       0.13598056       0.01356651      -0.07812706
Ni       8.91614493       6.61879382       0.16347207        4       1.00000000      -0.11746469      -0.07267672       0.17332139
Ni      11.47165828       6.57686649       0.07292096        4       1.00000000      -0.15192816      -0.16799260      -0.01216114
Ni       1.32445973       0.78626758       2.15724801        3       1.00000000       0.04198489       0.13335913      -0.05484648
Ni       3.77795871       0.71710598       2.20510702        3       1.00000000      -0.01935204      -0.09660986       0.07393456
Pt       6.34523933       0.76299617       2.19604464        3       0.00000000       0.03578592       0.03773254      -0.19159459
Pt       9.02797683       0.84204723       2.17811179        3       0.00000000       0.08278378       0.04703609      -0.06175111
Ni       2.51471090       3.00354457       2.22137074        3       1.00000000      -0.11264390       0.17977314       0.01442321
Ni       5.06332796       2.99450564       2.24084602        3       1.00000000      -0.09084190      -0.01134705       0.13153327
Ni       7.71706542       2.99795709       2.20575698        3       1.00000000       0.16752370       0.02961435       0.01364515
Ni      10.24678984       3.00732327       2.18361075        3       1.00000000       0.05718939       0.10864244      -0.01057068
Ni       3.80380460       5.10329875       2.22267170        3       1.00000000      -0.04621369      -0.12860886       0.08857241
Pt       6.44053406       5.14440176       2.16993478        3       0.00000000       0.13253093       0.04547230      -0.03393812
Ni       8.96174629       5.11686377       2.21489020        3       1.00000000       0.13755829      -0.16024349       0.06560900
Ni      11.47665829       5.10052761       2.18590292        3       1.00000000      -0.09930247      -0.07065371      -0.09285487
Pt       5.14497935       7.36405294       2.15615059        3       0.00000000      -0.05580640      -0.07023309      -0.07200089
Ni       7.67149265       7.39240190       2.20607877        3       1.00000000      -0.02629744      -0.06808652       0.04664242
Pt      10.12810168       7.31253466       2.23994938        3       0.00000000      -0.02515559      -0.10078835       0.03334855
Pt      12.74452933       7.25345942       2.22900585        3       0.00000000      -0.06471536      -0.16508045      -0.11316940
Ni      -0.00092746       1.53111603       4.38548651        2       1.00000000       0.06771912       0.02612081      -0.00625832
Pt       2.50730976       1.51408160       4.26904829        2       0.00000000       0.02783928       0.00571885       0.10445362
Pt       5.09645952       1.43979963       4.37166999        2       0.00000000      -0.07501283       0.00993683       0.05747212
Pt       7.73559558       1.52204732       4.43033228        2       0.00000000       0.09134114       0.03806824      -0.11788628
Pt       1.22834607       3.78161040       4.37709036        2       0.00000000      -0.03071419       0.01339738      -0.02953417
Ni       3.81211385       3.77008419       4.33849726        2       1.00000000      -0.02976583       0.07876389      -0.07877300
Pt       6.41011222       3.76463421       4.37706184        2       0.00000000      -0.06277675       0.04637395       0.04388214
Ni       8.96043871       3.74495605       4.38374943        2       1.00000000       0.02980048       0.16731730      -0.07825720
Ni       2.53037409       5.89295612       4.42929577        2       1.00000000      -0.05962322      -0.07664380       0.00101672
Ni       5.07197551       5.89688020       4.38812699        2       1.00000000      -0.06904146      -0.11326677      -0.14534882
Ni       7.71337819       5.90139294       4.38144593        2       1.00000000       0.23067638      -0.04432343      -0.12677207
Ni      10.21026724       5.91727870       4.38741948        2       1.00000000      -0.01453300      -0.00528126      -0.06956214
Pt       3.77768840       8.05137594       4.43563058        2       0.00000000       0.04320662      -0.02781897      -0.03946018
Pt       6.42084479       8.05006528       4.36345777        2       0.00000000       0.05909094      -0.04983722       0.07777730
Ni       8.96285905       8.08134614       4.38593144        2       1.00000000      -0.01197318      -0.09006625       0.02725726
Ni      11.45309561       8.05769952       4.44054055        2       1.00000000      -0.10052480      -0.17904878      -0.06894196
Pt      -0.06461620       0.05418595       6.57564074        1       0.00000000      -0.16285212       0.02658019       0.07494439
Pt       2.57484399      -0.00487767       6.57926752        1       0.00000000       0.07151597      -0.02109342       0.19726569
Ni       5.16450579      -0.01634179       6.50151994        1       1.00000000       0.07828747      -0.13524045      -0.10103804
Ni       7.60570608      -0.01260114       6.41447106        1       1.00000000      -0.20710710      -0.10891225      -0.32761290
Ni       1.22428871       2.28264818       6.53081843        1       1.00000000      -0.08672793       0.05906025      -0.06841323
Pt       3.81030068       2.28524007       6.50089624        1       0.00000000      -0.10372785       0.08959601      -0.20797029
Ni       6.42167717       2.22139855       6.45297542        1       1.00000000       0.02961453      -0.00020811      -0.21960311
Ni       8.94672499       2.28024261       6.52299940        1       1.00000000       0.04569429       0.18825968      -0.06399829
Ni       2.50465646       4.49817931       6.52539631        1       1.00000000      -0.11072621       0.12461663      -0.05574327
Pt       5.10290064       4.53406494       6.56232536        1       0.00000000       0.02879769       0.11836349       0.14472527
Ni       7.69033587       4.41960787       6.52767518        1       1.00000000       0.07945332      -0.11495351      -0.08901754
Ni      10.22522582       4.41478079       6.52612820        1       1.00000000       0.05784009      -0.09660574      -0.00924650
Ni       3.77409017       6.64769146       6.54186626        1       1.00000000      -0.18431310       0.01852078      -0.08433653
Ni       6.37703214       6.64200532       6.53675000        1       1.00000000       0.07670587       0.02230827      -0.19462788
Pt       8.98757479       6.57632586       6.52351348        1       0.00000000       0.11534132      -0.13282006       0.13903884
Ni      11.52205882       6.64741533       6.50560368        1       1.00000000       0.08252238      -0.08409886      -0.18663747
