64
Lattice="10.362904651110464 -0.04219124957054159 0.008080599954091239 5.144913631609739 8.944913975063699 -0.010550298379848883 0.0 0.0 21.600520062459278" Properties=species:S:1:pos:R:3:tags:I:1:initial_magmoms:R:1:forces:R:3 unique_id=52fb8f53b0b648788563be46fd3d3e3f energy=-377.96145990877295 stress="0.005781332253982814 -0.0002751047643933717 0.00010027408865627837 -0.0002751047643933717 0.005850847925717172 -0.0002327761402232747 0.00010027408865627837 -0.0002327761402232747 -0.0014350193087298516" pbc="T T T"
Ni       0.03795309       0.01948201       0.10341798        1       1.00000000       0.16669418      -0.03786356      -0.12234598
Ni       2.58421259      -0.00653729       0.13645066        1       1.00000000      -0.06198084       0.00450664       0.01724862
Ni       5.14720763      -0.03568965       0.09157979        1       1.00000000      -0.09406430       0.14571893      -0.32071960
Pt       7.79010835      -0.12244140       0.09570584        1       0.00000000      -0.01425307      -0.18877132      -0.96009746
Ni       1.25646888       2.24240519       0.03676697        0       1.00000000      -0.09027931       0.01530723       0.56297853
Pt       3.79429017       2.23595949       0.05510711        1       0.00000000      -0.02212377       0.01504559       0.13496986
Pt       6.45810185       2.24880760       0.08870335        1       0.00000000      -0.01727997       0.10054091      -0.75243641
Ni       9.10629076       2.22086066       0.10088205        1       1.00000000       0.03663421       0.12734225      -0.04746778
Ni       2.56628926       4.48162856       0.00619696        0       1.00000000       0.06073689      -0.01875447       0.33782629
Ni       5.12659978       4.48064712       0.10958702        1       1.00000000      -0.06257007       0.06471206       0.16764794
Pt       7.83697311       4.48152213       0.04625686        0       0.00000000       0.06097734       0.07396415       0.05214336
Ni      10.37260639       4.42959333       0.00862690        0       1.00000000       0.06080881      -0.08173168       0.36524447
Ni       3.84585105       6.67005161       0.11334746        1       1.00000000      -0.02921881      -0.12894890       0.16796022
Pt       6.42904192       6.73479362       0.12466558        1       0.00000000      -0.01962275       0.03583369      -0.40646206
Ni       9.05599823       6.69537807       0.00071261        0       1.00000000      -0.12925376       0.00516640       0.15307002
Ni      11.62665818       6.63651783       0.00000000        0       1.00000000       0.09795750      -0.09036100       0.19760400
Ni       1.32886150       0.75505999       2.12353862        2       1.00000000       0.18888862       0.12185371      -0.05496401
Ni       3.83927491       0.74673253       2.15153697        3       1.00000000      -0.13449838       0.04314500       0.16268042
Pt       6.40790685       0.76067310       2.21501231        3       0.00000000      -0.13424336       0.19987581       0.10271146
Pt       9.17863828       0.74854570       2.15142025        3       0.00000000       0.14226920       0.12062520       0.06574894
Ni       2.58524098       2.96754442       2.15839479        3       1.00000000       0.00936916       0.02192740       0.13319856
Ni       5.12124439       3.01652798       2.18838103        3       1.00000000      -0.22762803       0.15890554       0.18798146
Ni       7.79537400       3.01167613       2.17429095        3       1.00000000       0.10519435       0.15221374       0.17091303
Ni      10.36316439       2.94951849       2.14889074        2       1.00000000       0.16358020       0.09585653       0.04163207
Ni       3.89795604       5.20613591       2.16231255        3       1.00000000       0.11609854      -0.08139449       0.14477147
Ni       6.44233247       5.20773522       2.17943135        3       1.00000000      -0.07827006       0.07349558       0.15057976
Ni       9.02167534       5.16193144       2.18651004        3       1.00000000      -0.06297567      -0.13941163       0.21855820
Pt      11.68479871       5.12979866       2.09725817        2       0.00000000       0.06692960      -0.12927284       0.01346244
Ni       5.14560409       7.40587180       2.14710205        2       1.00000000      -0.10559586      -0.18830549       0.10531854
Ni       7.72613286       7.43241711       2.14908661        2       1.00000000      -0.00657423      -0.07873396       0.05628954
Pt      10.27056716       7.38154899       2.05750372        2       0.00000000       0.00606164      -0.16217917      -0.08779871
Ni      12.96073107       7.35674845       2.15367737        3       1.00000000       0.08018664      -0.19944879       0.13632776
Ni       0.01668487       1.51393444       4.32874289        5       1.00000000       0.09155399      -0.05666946      -0.18849876
Pt       2.61674475       1.53204926       4.28689108        5       0.00000000      -0.00007272      -0.03912588      -0.15794170
Ni       5.15133425       1.50593289       4.33649041        5       1.00000000      -0.01054135       0.13583372      -0.20030749
Pt       7.82548591       1.53153629       4.29645862        5       0.00000000       0.14965084       0.00773104      -0.04966232
Pt       1.28607429       3.71725129       4.37713494        6       0.00000000      -0.03723110      -0.02782309      -0.08597448
Ni       3.87838348       3.74261493       4.31323928        5       1.00000000       0.03868772       0.12376766      -0.31066559
Pt       6.44390032       3.78726413       4.23209790        4       0.00000000      -0.07631895       0.06943892      -0.16239560
Ni       9.05018220       3.71276842       4.31984399        5       1.00000000      -0.03658846       0.01910470      -0.31974996
Ni       2.59496469       5.90789344       4.32642608        5       1.00000000       0.09208459      -0.20353355      -0.22644044
Ni       5.13719136       5.91339624       4.28254044        5       1.00000000      -0.11026329      -0.05869056      -0.41067275
Ni       7.75675994       5.90300850       4.30652551        5       1.00000000      -0.04631826      -0.00241093      -0.36151529
Pt      10.29038007       5.86106134       4.40301725        6       0.00000000      -0.04593354      -0.04440768      -0.11262915
Pt       3.87714227       8.11711810       4.24789146        4       0.00000000       0.04059158      -0.11910874      -0.11568201
Pt       6.43761912       8.15140385       4.20599687        4       0.00000000      -0.08050585       0.00382465      -0.22981326
Pt       9.01103751       8.16105426       4.28500071        5       0.00000000      -0.04945546      -0.01428666      -0.11178417
Pt      11.63195774       8.10854024       4.30583213        5       0.00000000       0.06981101      -0.11304910      -0.10726649
Pt       0.03037024       0.03725548       6.55972311        9       0.00000000       0.02287008       0.06071834       0.15674814
Pt       2.60740330       0.03445405       6.60052006        9       0.00000000       0.01275687       0.03903798       0.19269504
Pt       5.16571186      -0.08373106       6.57654734        9       0.00000000       0.00781550       0.10776593       0.37941899
Pt       7.77203819      -0.06024965       6.50449358        8       0.00000000       0.05212616       0.16999541       1.07796797
Ni       1.31872938       2.28415379       6.52560959        8       1.00000000       0.06420376       0.04539330      -0.18456476
Ni       3.84573848       2.24577312       6.45085830        8       1.00000000      -0.02342616      -0.03254200       0.01657743
Pt       6.44732692       2.23873517       6.45939297        8       0.00000000      -0.04282320      -0.06174249       0.74923753
Pt       9.14434269       2.32414621       6.54528729        8       0.00000000       0.02271354       0.09840703       0.12657811
Ni       2.52769950       4.43746726       6.51558135        8       1.00000000      -0.07161865      -0.03303828      -0.27034374
Pt       5.09458869       4.41669136       6.52026624        8       0.00000000      -0.12927071       0.06710384       0.01001236
Ni       7.80563116       4.46703713       6.43995648        7       1.00000000       0.09865362       0.08578006      -0.11218944
Ni      10.37221623       4.46742905       6.53854353        8       1.00000000       0.05198472       0.05539707      -0.17513347
Pt       3.78707839       6.62695518       6.53162032        8       0.00000000       0.06016090      -0.08555387       0.05019875
Pt       6.52063797       6.63143865       6.44869945        7       0.00000000      -0.13507388      -0.08848052       0.31280889
Ni       9.07199931       6.62546277       6.52813541        8       1.00000000      -0.07722939      -0.06790988      -0.13821555
Ni      11.60413075       6.60356284       6.53268624        8       1.00000000       0.02505143      -0.09178601      -0.13537175
