64
Lattice="10.107690231866382 0.028009147313246125 -0.051359322282054365 5.078101749044808 8.748997013419903 -0.06407610265839542 0.0 0.0 21.470195681355293" Properties=species:S:1:pos:R:3:tags:I:1:initial_magmoms:R:1:forces:R:3 unique_id=51d3c81b2945472c8eb3569aa2bd5611 energy=-367.3198259397971 stress="0.004418437426247595 5.6079132908006056e-05 -0.00033484382363183177 5.6079132908006056e-05 0.004172621496349085 -0.00010733155601190377 -0.00033484382363183177 -0.00010733155601190377 -0.0018316051247035782" pbc="T T T"
Ni       0.03251260      -0.04507467       0.19261981        2       1.00000000       0.06287949       0.01651173      -0.32406248
Ni       2.49600294      -0.03561479       0.11442739        1       1.00000000       0.03601998       0.01115788       0.23117987
Ni       5.06467351      -0.01057284       0.17187858        2       1.00000000      -0.05471818       0.03249630      -0.51496323
Ni       7.54631616      -0.02211412       0.15252778        2       1.00000000      -0.05912892      -0.01968963      -0.34311171
Ni       1.26040466       2.19183497       0.10688664        1       1.00000000      -0.05531484      -0.00687663       0.29430228
Pt       3.75365836       2.15302774       0.16537123        2       0.00000000      -0.01110844       0.02763826      -0.62816977
Ni       6.32369153       2.17888302       0.08374747        1       1.00000000      -0.04460357      -0.02386457       0.10779679
Pt       8.85303502       2.25652925       0.07636495        1       0.00000000       0.05981895       0.07688756      -0.77174864
Ni       2.48614026       4.40472529       0.08226046        1       1.00000000       0.04616403      -0.02527455       0.34073988
Pt       5.08384666       4.43875935       0.05525441        1       0.00000000      -0.09307906       0.02083209      -0.00530801
Ni       7.60900633       4.43342816       0.06357415        1       1.00000000       0.05303470       0.10097527       0.21276105
Ni      10.14368156       4.43215250       0.04609784        0       1.00000000      -0.03543006       0.06648362       0.34685385
Ni       3.77846812       6.58776602       0.06933317        1       1.00000000      -0.00108413       0.01989522       0.24349620
Ni       6.35157187       6.60223983       0.05445147        1       1.00000000      -0.03364468      -0.02181680       0.26173975
Ni       8.83173609       6.55235581       0.10371196        1       1.00000000      -0.07904773      -0.06154737      -0.33629225
Ni      11.40846366       6.55775249       0.00000000        0       1.00000000      -0.00107732      -0.00361256       0.20102497
Ni       1.29286955       0.72921194       2.18223228        4       1.00000000       0.01983896       0.08721436       0.10509527
Ni       3.72921941       0.71455132       2.17071282        4       1.00000000      -0.17787267      -0.05760589       0.02557577
Ni       6.31028036       0.75947276       2.12478740        3       1.00000000       0.02427981       0.08279904       0.07485959
Pt       8.85334034       0.74015386       2.16839046        4       0.00000000       0.07612129       0.05121100      -0.01095183
Ni       2.48945463       2.93471299       2.21505832        4       1.00000000       0.00640635       0.02625692       0.11231378
Ni       5.05948328       2.94687748       2.16038075        4       1.00000000      -0.05154705       0.13325162       0.03314186
Ni       7.56107922       2.96924098       2.14951044        3       1.00000000       0.03309229       0.05693502       0.01220530
Ni      10.15303227       2.97701534       2.16860173        4       1.00000000       0.06730472       0.02036625       0.13349804
Ni       3.77040633       5.10156373       2.17741231        4       1.00000000      -0.01005281      -0.06813816       0.11628679
Ni       6.34402008       5.14219249       2.14129024        3       1.00000000       0.02191948       0.07124808       0.03238474
Ni       8.83647055       5.07716037       2.12580095        3       1.00000000       0.01484268      -0.11345122       0.09935847
Ni      11.39643147       5.07691278       2.11451839        3       1.00000000       0.06207894      -0.12832803       0.17083967
Ni       5.09890176       7.23187976       2.10478582        3       1.00000000      -0.02449922      -0.10036290       0.04954482
Ni       7.53526496       7.27656729       2.08444153        3       1.00000000      -0.06675863      -0.02334602       0.05500846
Pt      10.15173501       7.24913523       2.08268323        3       0.00000000       0.06773933      -0.14456834       0.03462305
Ni      12.65568584       7.24626875       2.06469703        3       1.00000000       0.07944391      -0.13592789       0.07793877
Ni       0.04102922       1.47630194       4.27247155        6       1.00000000       0.07674105       0.03195343      -0.15042677
Ni       2.43478314       1.47678740       4.24861557        5       1.00000000      -0.05356033       0.04261704      -0.16541493
Pt       5.05200297       1.46455825       4.18026127        5       0.00000000       0.00885661      -0.04058392      -0.06175211
Ni       7.57599215       1.46972860       4.23483748        5       1.00000000       0.04299170      -0.04945131      -0.19373257
Ni       1.25615396       3.63261951       4.28730467        6       1.00000000       0.04143912      -0.02532662      -0.12549956
Ni       3.72143516       3.70167382       4.23104881        5       1.00000000      -0.06477181       0.06447064      -0.25500416
Pt       6.34486903       3.70397489       4.24309280        5       0.00000000       0.06761092      -0.06941601       0.00866949
Ni       8.88857324       3.69735548       4.18745831        5       1.00000000       0.11370411       0.06873715      -0.21479481
Ni       2.50120522       5.76070966       4.27355657        6       1.00000000      -0.08269080      -0.07835420      -0.18340053
Ni       5.04813513       5.81345467       4.25408840        6       1.00000000       0.05662550      -0.05096674      -0.20601816
Ni       7.56123406       5.81999641       4.21247966        5       1.00000000       0.01516449       0.03772392      -0.24381265
Ni      10.13909079       5.77238364       4.23164565        5       1.00000000       0.04845730      -0.04453160      -0.09703615
Pt       3.80235941       7.91712155       4.21953468        5       0.00000000      -0.03844130      -0.01982445       0.08464900
Ni       6.31266373       7.98840724       4.20276645        5       1.00000000      -0.11719408      -0.03079356      -0.22057512
Pt       8.76812106       7.98091247       4.18439169        5       0.00000000      -0.02781882       0.05975193       0.08341999
Ni      11.37926089       7.95986796       4.19799871        5       1.00000000      -0.01911905      -0.11287902      -0.03332765
Pt       0.07416314      -0.05457952       6.46414464       10       0.00000000      -0.06562700       0.13303848       0.18806802
Ni       2.49579791      -0.01699467       6.41254517        9       1.00000000       0.07789180       0.02627043      -0.03624220
Pt       5.00669277      -0.02056413       6.47019568       10       0.00000000       0.07531791      -0.00873719       0.54239526
Pt       7.56146678      -0.04763028       6.42795668        9       0.00000000       0.03795368       0.10891356       0.41971367
Ni       1.24317848       2.20894501       6.37835864        9       1.00000000       0.00632634       0.10143250      -0.17058959
Pt       3.70640633       2.26321154       6.32545245        8       0.00000000      -0.08847290       0.15872915       0.65677345
Ni       6.29144162       2.22829654       6.38966520        9       1.00000000      -0.03541815      -0.00752356       0.01516171
Pt       8.84040575       2.27985198       6.24954822        7       0.00000000       0.03087436      -0.09446478       0.74784109
Ni       2.47989946       4.40288662       6.36011248        9       1.00000000       0.06676942      -0.02526960      -0.29520413
Ni       5.03528299       4.41024364       6.29199787        8       1.00000000      -0.12660136       0.03940621       0.18303891
Ni       7.52216966       4.37346501       6.37574660        9       1.00000000      -0.03596850      -0.00143627      -0.02962356
Ni      10.15806561       4.37758724       6.32673821        8       1.00000000       0.06639637      -0.01755737      -0.25408107
Ni       3.78328199       6.45716175       6.37272952        9       1.00000000       0.05105306      -0.07305610      -0.18044867
Ni       6.28850540       6.49299109       6.34429325        8       1.00000000      -0.05972797      -0.07551728      -0.26038118
Pt       8.80149563       6.44921234       6.39049175        9       0.00000000       0.04925613      -0.13222380       0.19863617
Ni      11.38893437       6.48639088       6.31721058        8       1.00000000      -0.05003543       0.11711924      -0.18896226
