64
Lattice="10.294097216843804 0.0034696365734517573 -0.014317143595230111 5.15005340183641 8.910888030460727 -0.01642406499418788 -0.011689898794156686 -0.008735590760446046 8.817932758639948" Properties=species:S:1:pos:R:3:tags:I:1:initial_magmoms:R:1:forces:R:3 unique_id=637c5ef76a394bda821a18c09b1c1f1d stress="0.00029682801275271453 4.511379803717163e-06 -1.73871143890161e-05 4.511379803717163e-06 0.00029996072226998183 -4.190539115010623e-06 -1.73871143890161e-05 -4.190539115010623e-06 0.0002846027172578522" energy=-398.2473633834614 pbc="T T T"
Ni       0.00916803      -0.00741385       0.17772209        4       1.00000000      -0.00780706       0.00849406       0.34206193
Ni       2.53717387       0.01073740       0.20141396        4       1.00000000      -0.07813958       0.05982330       0.41417391
Pt       5.13823981      -0.03530453       0.13213953        4       0.00000000      -0.04585646      -0.08146393       0.27823503
Ni       7.74273980      -0.05412743       0.16992967        4       1.00000000       0.03047256      -0.08565095       0.36164433
Ni       1.29082544       2.23486941       0.10204548        4       1.00000000       0.01578124       0.04897103       0.25285196
Pt       3.77670292       2.28246682       0.18732601        4       0.00000000      -0.02310116       0.10775248       0.13282410
Pt       6.43450791       2.23844172       0.10963649        4       0.00000000       0.04799958       0.09110048       0.00631078
Pt       9.09757292       2.22766141       0.10924971        4       0.00000000       0.09758720      -0.01345947       0.09970517
Ni       2.56544996       4.48754000       0.06430431        4       1.00000000       0.06979781       0.09807930      -0.01249720
Ni       5.10767913       4.48830542       0.17477772        4       1.00000000      -0.06340795       0.09909322       0.36496744
Pt       7.75873054       4.50875112       0.09795424        4       0.00000000       0.02531766       0.07678396      -0.05254433
Ni      10.34232385       4.47649777       0.05788309        4       1.00000000       0.12002010       0.05501291       0.12347097
Ni       3.82181737       6.67421771       0.10020787        4       1.00000000      -0.09975143      -0.04527541       0.24258319
Pt       6.38689496       6.73392769       0.17317285        4       0.00000000      -0.11582923       0.01665721       0.02700318
Ni       9.01838612       6.67082925       0.15029733        4       1.00000000      -0.07094835       0.00069138       0.32340317
Ni      11.61841557       6.65314111       0.05375698        4       1.00000000       0.09290296      -0.02730181       0.06876462
Ni       1.29430167       0.73764155       2.19368541        3       1.00000000      -0.06389528      -0.01776338      -0.02718047
Ni       3.83434580       0.76589290       2.22534789        3       1.00000000       0.05361965       0.01882723       0.00147480
Ni       6.43148850       0.78423561       2.24327340        3       1.00000000      -0.06352893       0.13027163       0.06482551
Pt       9.02094574       0.73401869       2.24090911        3       0.00000000       0.00603067       0.14933839      -0.02833371
Ni       2.56339862       2.97238149       2.23816038        3       1.00000000       0.03178866       0.05999574      -0.00803419
Ni       5.13045864       2.99211494       2.24782740        3       1.00000000      -0.13252291       0.03487360       0.05118816
Ni       7.72262694       2.99090738       2.24946351        3       1.00000000       0.12481294      -0.00271648      -0.03562254
Ni      10.31448003       2.97051136       2.24381115        3       1.00000000       0.05396932      -0.05038142       0.14840110
Ni       3.89471387       5.19281896       2.21485966        3       1.00000000       0.11360368      -0.01220101       0.10289734
Ni       6.41452366       5.20284609       2.23969494        3       1.00000000      -0.03687243       0.08921591      -0.00463157
Ni       8.97529353       5.16702061       2.22529494        3       1.00000000      -0.07145734      -0.17145012       0.14708945
Pt      11.64406367       5.12971755       2.15817937        3       0.00000000       0.15936013      -0.09714756       0.04250139
Ni       5.14893693       7.39383456       2.23061122        3       1.00000000       0.02079410      -0.14472266       0.05727672
Ni       7.67600409       7.42524890       2.21425265        3       1.00000000      -0.18676566      -0.06965120       0.03946893
Pt      10.27607087       7.37645264       2.18293557        3       0.00000000       0.00647898      -0.03473223      -0.24157378
Ni      12.90246127       7.39278526       2.14822558        3       1.00000000       0.11063013      -0.18928780      -0.02559216
Ni      -0.00231370       1.52271490       4.35203174        2       1.00000000      -0.05426144       0.07483278      -0.11315624
Pt       2.50013330       1.55303644       4.26423950        2       0.00000000       0.02217044      -0.05423327       0.06544236
Ni       5.15372328       1.52256138       4.32566526        2       1.00000000      -0.09616924       0.05575046      -0.20902327
Ni       7.71665281       1.51091987       4.34145241        2       1.00000000       0.02312453      -0.01251839      -0.11888633
Ni       1.28538888       3.69569742       4.40115477        2       1.00000000       0.01868025      -0.03590265      -0.03590379
Ni       3.83709797       3.76013011       4.31879572        2       1.00000000      -0.03548527       0.09299619      -0.23473872
Pt       6.44372627       3.70963952       4.29781341        2       0.00000000      -0.07193171       0.01873077       0.00989721
Ni       9.00776283       3.69818268       4.31105865        2       1.00000000      -0.01124742      -0.08467158      -0.35451869
Ni       2.61011629       5.87960927       4.39628935        2       1.00000000       0.09113020      -0.13697769      -0.09291738
Ni       5.12911724       5.91119867       4.30520396        2       1.00000000       0.04851032      -0.17900659      -0.24323412
Ni       7.69112864       5.91138691       4.31096135        2       1.00000000      -0.03567156      -0.03284534      -0.24608927
Pt      10.31143532       5.82062178       4.37022086        2       0.00000000       0.00266922      -0.02974040       0.09531410
Pt       3.92661510       8.09546581       4.32736521        2       0.00000000       0.05055920      -0.15221222       0.22516698
Ni       6.41888576       8.14746179       4.29707291        2       1.00000000      -0.04087763      -0.01705499      -0.23225574
Pt       8.92073134       8.15922393       4.28665246        2       0.00000000      -0.04783791      -0.03209411       0.11618021
Pt      11.62277923       8.17580409       4.28000981        2       0.00000000       0.07716562      -0.00040847       0.04718188
Pt      -0.00859730       0.02806738       6.56904299        1       0.00000000       0.06084220       0.13057591       0.12128784
Pt       2.54645604       0.02628141       6.58960323        1       0.00000000      -0.00898056       0.03039373       0.21087552
Pt       5.15894104       0.01193584       6.47222801        1       0.00000000       0.07967952       0.02333645      -0.41563578
Pt       7.71893235      -0.03467551       6.58482963        1       0.00000000      -0.07567557      -0.03133909       0.14201251
Ni       1.26699687       2.29307547       6.52013093        1       1.00000000      -0.01793419       0.17051541      -0.17906296
Pt       3.81315692       2.29414814       6.46099862        1       0.00000000      -0.14384862       0.10917927      -0.24834224
Ni       6.44369924       2.24638734       6.44336233        1       1.00000000      -0.01004751       0.04320457      -0.26360268
Pt       9.01020360       2.32497501       6.40239335        1       0.00000000      -0.04339169       0.12550565      -0.32779007
Ni       2.51440266       4.48831685       6.50792848        1       1.00000000      -0.10575444       0.07506655      -0.25846757
Pt       5.10244298       4.46960955       6.53338866        1       0.00000000      -0.06604667       0.06432339       0.10460276
Ni       7.71729602       4.43459766       6.43998699        1       1.00000000      -0.08310469       0.02244002      -0.30562722
Ni      10.34771996       4.43026128       6.51860055        1       1.00000000       0.22125766      -0.06581467      -0.11800283
Ni       3.80520893       6.63792673       6.52199555        1       1.00000000      -0.08739183      -0.08180899      -0.11670621
Pt       6.40964618       6.64904906       6.41808743        1       0.00000000      -0.01898958       0.06006827      -0.27463073
Pt       9.04818752       6.56854357       6.57222006        1       0.00000000       0.12833029      -0.16270893       0.14810270
Ni      11.62085525       6.61735810       6.52776722        1       1.00000000       0.10944448      -0.08935844      -0.15458546
