64
Lattice="10.150405214105149 -0.026190834587837167 0.020564568780596936 5.052520678953188 8.786488627161074 0.06695849413301262 0.0 0.0 21.49175432670841" Properties=species:S:1:pos:R:3:tags:I:1:initial_magmoms:R:1:forces:R:3 unique_id=001e4c97ab9548d4a3ec256e81b87a68 energy=-369.2871287661162 stress="0.0014855116884243038 -5.4656347401313486e-05 0.00012299617347692713 -5.4656347401313486e-05 0.0014388857136592385 0.0006200404765910809 0.00012299617347692713 0.0006200404765910809 -0.00525982099167995" pbc="T T T"
Ni       0.04682810       0.01700874       0.12713344        1       1.00000000       0.09180571       0.14514232      -0.87317060
Ni       2.52855566      -0.02676630       0.18762781        2       1.00000000       0.07093307       0.02027390      -0.32981241
Ni       5.06514846      -0.03878970       0.02612810        0       1.00000000      -0.17279582      -0.01167232      -0.01436030
Ni       7.60290936      -0.03766072       0.02156654        0       1.00000000       0.08844541       0.01660212      -0.16006495
Ni       1.26758111       2.22512447       0.10356196        1       1.00000000       0.02293593       0.00962107       0.21208408
Pt       3.79042520       2.20702350       0.19461572        2       0.00000000      -0.04191328       0.00016114      -0.82285143
Ni       6.33566586       2.24220486       0.05418173        1       1.00000000      -0.01777227       0.18102400      -0.13423934
Pt       8.88632603       2.25585684       0.00000000        0       0.00000000       0.03104969       0.10151177      -0.30457766
Ni       2.50138778       4.42923180       0.10482579        1       1.00000000       0.05602602       0.00777793       0.24416639
Ni       5.06410204       4.41787698       0.07581638        1       1.00000000      -0.11527101      -0.02785864       0.10100457
Ni       7.60935476       4.41807238       0.07278177        1       1.00000000       0.14214101       0.02519424      -0.03140175
Ni      10.17250560       4.42284582       0.11966278        1       1.00000000      -0.06354561       0.08019050       0.17492121
Ni       3.79336746       6.55573018       0.05316822        1       1.00000000      -0.00310732      -0.04014393      -0.01718277
Ni       6.35643565       6.58716852       0.05565818        1       1.00000000       0.06246286       0.06374629       0.00560896
Ni       8.83489890       6.55906192       0.18014324        2       1.00000000      -0.09882675      -0.06685291      -0.29268451
Ni      11.38960626       6.54634782       0.06730647        1       1.00000000      -0.06484252      -0.03983627       0.11461218
Ni       1.33876422       0.80868399       2.14804555        3       1.00000000       0.04059391       0.15938319       0.15890302
Ni       3.73266954       0.72546124       2.19778083        4       1.00000000      -0.04610653      -0.08260762       0.25585889
Pt       6.30132507       0.78224767       2.08132838        3       0.00000000      -0.05690009       0.06316955       0.00332078
Pt       8.95870008       0.79686473       2.17373411        4       0.00000000       0.02113503      -0.04869585       0.12090196
Ni       2.51054190       2.95886139       2.20568160        4       1.00000000      -0.04479247       0.03166278       0.13934876
Ni       5.03306662       2.97361410       2.20456082        4       1.00000000       0.01036763       0.06625850       0.16158036
Ni       7.64329504       2.96491379       2.18175513        4       1.00000000       0.07150817       0.00238565       0.08246312
Ni      10.18535293       2.97605257       2.18939614        4       1.00000000       0.04373924       0.02090717       0.05062222
Ni       3.77149040       5.05814794       2.18649867        4       1.00000000      -0.01117526      -0.08687296       0.02076671
Pt       6.38487889       5.09107008       2.14461402        3       0.00000000       0.07995823      -0.05809496       0.00808447
Ni       8.90009956       5.06423281       2.20645742        4       1.00000000       0.07221452      -0.11928941       0.06821077
Ni      11.39561618       5.05122277       2.17547325        4       1.00000000      -0.02490563      -0.05641055       0.02198341
Pt       5.10781075       7.29626244       2.14056467        3       0.00000000       0.01182421       0.00579986       0.06576006
Ni       7.61087507       7.33183253       2.19460555        4       1.00000000      -0.02685481      -0.05392712       0.15070688
Pt      10.05313115       7.25870103       2.22985873        4       0.00000000       0.02753009       0.00738303       0.06266855
Pt      12.64438684       7.20697043       2.17479615        4       0.00000000       0.00211349       0.00162969      -0.02196291
Ni       0.04750233       1.52316173       4.30968389        5       1.00000000       0.06473873      -0.04963087      -0.12567765
Ni       2.51321206       1.51241355       4.26037799        5       1.00000000      -0.07961806      -0.03302304      -0.15968114
Pt       5.00461775       1.43623279       4.29051154        5       0.00000000       0.03638667      -0.13653823      -0.10685850
Pt       7.64737395       1.50140434       4.38232425        6       0.00000000      -0.05086878      -0.06657086      -0.09157162
Pt       1.26406447       3.70538126       4.31222856        5       0.00000000      -0.01758316      -0.04360863       0.01582887
Ni       3.78100955       3.74792225       4.28035704        5       1.00000000      -0.04040073       0.05636008      -0.14598989
Pt       6.33347644       3.74484466       4.39446585        6       0.00000000      -0.02091753       0.00027447       0.02154529
Ni       8.90527007       3.72852734       4.33141895        5       1.00000000      -0.02215879       0.07820475      -0.11746556
Ni       2.51267863       5.84462945       4.37078134        6       1.00000000      -0.06103608      -0.04361633      -0.06849757
Ni       5.03382261       5.85147546       4.37995677        6       1.00000000       0.02987319       0.02320438      -0.07578914
Ni       7.66156947       5.86542705       4.33433112        5       1.00000000       0.10045956      -0.00894255      -0.13585372
Ni      10.15074555       5.85407197       4.35096427        6       1.00000000      -0.01505521      -0.04409800      -0.04403737
Pt       3.74381823       7.99564976       4.40386975        6       0.00000000      -0.03568485      -0.05907225      -0.07460420
Pt       6.40073189       8.05865619       4.32423572        5       0.00000000       0.02693628      -0.07172647      -0.01202796
Ni       8.89497544       8.02249406       4.35343182        6       1.00000000      -0.00590520      -0.08609910      -0.05451202
Ni      11.36441202       7.99677299       4.41880141        6       1.00000000      -0.11130394      -0.06547226      -0.07031061
Pt      -0.05924846       0.05284203       6.49175433        9       0.00000000      -0.00265770       0.13974964       0.50241363
Pt       2.58692785       0.03186923       6.48256922        9       0.00000000       0.05243847       0.05627721       0.27554974
Ni       5.15261643      -0.00194863       6.41580520        8       1.00000000      -0.10253529      -0.03240256       0.02093006
Ni       7.55454188      -0.01687396       6.44983773        8       1.00000000       0.05823161      -0.03200868       0.11646364
Ni       1.23925130       2.27462377       6.43072712        8       1.00000000       0.02084471      -0.10959673      -0.02944808
Pt       3.81074131       2.34341887       6.39188500        8       0.00000000      -0.11000417       0.11183119       0.94522634
Ni       6.37574365       2.21813919       6.47453654        9       1.00000000      -0.05547210       0.04890404       0.11512170
Ni       8.90024741       2.27782760       6.33905476        7       1.00000000       0.11726075       0.10907476       0.64414597
Ni       2.51817462       4.49220687       6.44670268        8       1.00000000       0.02017955      -0.02074996      -0.19984493
Ni       5.07460556       4.49070158       6.46420436        9       1.00000000      -0.10050501      -0.03815545       0.00789756
Ni       7.61310233       4.39107471       6.46691125        9       1.00000000       0.13419551      -0.02834685      -0.02109448
Ni      10.17165330       4.38050314       6.46221569        9       1.00000000      -0.03520335       0.03115964      -0.19911513
Ni       3.77400887       6.55513947       6.47176409        9       1.00000000       0.01172607      -0.00315491       0.01614348
Ni       6.31213323       6.55043159       6.45274479        9       1.00000000       0.06248755       0.06153836      -0.04068061
Pt       8.92593797       6.52803493       6.48130636        9       0.00000000      -0.00466373       0.01016026       0.03837094
Ni      11.45646557       6.59300590       6.44870669        8       1.00000000      -0.02215983      -0.07148719      -0.16784577
