64
Lattice="10.208778094323549 -0.03901643094802399 0.02608097435015505 5.070599826795784 8.808946359888518 0.02796735063016314 0.0 0.0 21.51955864762542" Properties=species:S:1:pos:R:3:tags:I:1:initial_magmoms:R:1:forces:R:3 unique_id=b9ecb45e366c45e89d7c005d18193a2a stress="0.005008452229829963 -3.362620974650569e-05 9.058347595155612e-05 -3.362620974650569e-05 0.004563284402377472 0.00026833042938651766 9.058347595155612e-05 0.00026833042938651766 -0.0017531369155292208" energy=-372.5446012178809 pbc="T T T"
Ni       0.03912575      -0.01178995       0.11973843        1       1.00000000       0.17193648       0.08472121      -0.49135913
Ni       2.51627313      -0.02395932       0.16699915        2       1.00000000      -0.09116955      -0.11767430       0.05382426
Ni       5.11575392      -0.04674874       0.09887763        1       1.00000000      -0.03892605      -0.02383042       0.30085645
Ni       7.64700151      -0.06632968       0.14540523        1       1.00000000      -0.04306050       0.07083457      -0.35430432
Ni       1.26973494       2.18643861       0.09342095        1       1.00000000       0.01551334      -0.07542872       0.24425831
Pt       3.76534568       2.14416949       0.17401373        2       0.00000000       0.03057385      -0.01275177      -0.38393569
Pt       6.35963737       2.16307689       0.04270644        0       0.00000000      -0.08917156      -0.11443620      -0.32272593
Pt       9.01247866       2.20333583       0.00000000        0       0.00000000       0.02370037      -0.08419065      -0.46799202
Pt       2.49846053       4.46071101       0.08373520        1       0.00000000       0.09775099       0.00554808       0.10465390
Ni       5.08656247       4.43538613       0.16027753        2       1.00000000      -0.19083566      -0.04405178      -0.30833876
Ni       7.63908520       4.41553002       0.06014922        1       1.00000000       0.07391033       0.02984783      -0.04403335
Ni      10.19534793       4.39867335       0.10908901        1       1.00000000      -0.04437336       0.14065699       0.21292794
Ni       3.81828747       6.62459737       0.06046426        1       1.00000000       0.01914906       0.01096435       0.12508861
Ni       6.34277348       6.60724210       0.05630128        1       1.00000000       0.09595506       0.09477371       0.05030186
Pt       8.90978244       6.59620139       0.18214903        2       0.00000000      -0.10087518       0.08373045      -0.32162679
Ni      11.45061500       6.60029715       0.08160830        1       1.00000000      -0.09436587       0.00134780       0.15629654
Ni       1.34887633       0.76935948       2.19241444        3       1.00000000       0.19689312       0.15295212       0.20211980
Ni       3.83000973       0.69277744       2.24592043        3       1.00000000       0.05720749      -0.04870742       0.17997089
Ni       6.30678672       0.69296629       2.22522640        3       1.00000000      -0.21855279      -0.00391397       0.21968783
Pt       8.97297582       0.73315060       2.21902759        3       0.00000000       0.04118110       0.10296655       0.11959869
Ni       2.53811381       2.92513647       2.23372799        3       1.00000000       0.07753290      -0.06952628       0.18708391
Ni       5.03989723       2.90459575       2.23729604        3       1.00000000      -0.14804846      -0.09905237       0.23656328
Pt       7.65693893       2.92381961       2.21648689        3       0.00000000       0.02698574       0.01748507      -0.04655826
Ni      10.27542772       2.93414015       2.19749561        3       1.00000000       0.14398412       0.01992946       0.02607620
Ni       3.79023002       5.09534709       2.22766307        3       1.00000000      -0.07932128      -0.11385011       0.27465788
Pt       6.38427802       5.15217079       2.17705108        3       0.00000000       0.16479805       0.05312158      -0.00885520
Ni       8.97325843       5.14286001       2.23746291        3       1.00000000       0.13734071       0.06470609       0.19991754
Ni      11.42616145       5.09013184       2.22291146        3       1.00000000      -0.14291961      -0.03307592       0.08627659
Pt       5.13756322       7.34671692       2.18157532        3       0.00000000       0.02777176      -0.01186892       0.06262334
Ni       7.67833674       7.38146931       2.25765471        4       1.00000000       0.09023763       0.12803361       0.36727125
Ni      10.15087008       7.33819333       2.26645031        4       1.00000000      -0.10773186       0.07464700       0.28666105
Pt      12.64115519       7.24675596       2.20743227        3       0.00000000      -0.05924834      -0.11430269       0.04008412
Ni       0.04830520       1.47387971       4.32951339        5       1.00000000       0.16335572      -0.08129891      -0.13355218
Ni       2.56349096       1.43918330       4.26378202        5       1.00000000       0.07085563      -0.11393002      -0.27707536
Ni       5.09727684       1.39730367       4.29383757        5       1.00000000      -0.09365937      -0.20518937      -0.21197327
Ni       7.62959280       1.42445486       4.36230876        6       1.00000000      -0.07055123      -0.11459668      -0.17788752
Pt       1.33495482       3.68065827       4.31699697        5       0.00000000       0.05428045      -0.06552470      -0.00837960
Ni       3.81594537       3.68725570       4.28118690        5       1.00000000       0.03916769       0.00580817      -0.35036923
Pt       6.31915830       3.64042273       4.36449494        6       0.00000000      -0.07311467      -0.00141131       0.05706661
Pt       8.95767779       3.68818876       4.39084642        6       0.00000000       0.00007627       0.16456114      -0.07246232
Ni       2.53418129       5.87064543       4.36664267        6       1.00000000      -0.02661789      -0.02334243      -0.04827892
Ni       5.08280961       5.88034436       4.35881993        6       1.00000000       0.02721882      -0.00472559      -0.10088945
Ni       7.63552267       5.91294498       4.33421466        5       1.00000000      -0.03326957       0.16231110      -0.16456802
Ni      10.23284053       5.89616016       4.31666983        5       1.00000000       0.14550055       0.10486491      -0.30173777
Pt       3.79396247       8.04371361       4.36119697        6       0.00000000      -0.05481464      -0.01026992       0.13162071
Ni       6.40948608       8.06785025       4.32660196        5       1.00000000       0.14865595      -0.00515094      -0.17923512
Ni       8.92940775       8.07644825       4.30303998        5       1.00000000      -0.00640689       0.05477054      -0.23442344
Ni      11.39676395       8.05093294       4.36021963        6       1.00000000      -0.17685662      -0.00276676      -0.12719026
Pt       0.01265910       0.02173926       6.48915858        8       0.00000000      -0.05548485       0.13267168       0.29415021
Pt       2.58376478      -0.02214400       6.44134754        7       0.00000000       0.05064367       0.00901620      -0.01151559
Ni       5.12759042      -0.02010275       6.43526381        7       1.00000000      -0.09146689      -0.03937188      -0.27272968
Pt       7.58227813      -0.02168090       6.50159041        8       0.00000000      -0.03062480       0.05879629       0.25290162
Ni       1.25786988       2.24884124       6.45850571        8       1.00000000       0.02854688      -0.01711886      -0.17601634
Pt       3.84244381       2.21973868       6.35780742        7       0.00000000       0.02022952       0.12286976       0.36506364
Ni       6.40971410       2.18640493       6.38612465        7       1.00000000      -0.07526251      -0.01005913       0.34381639
Ni       8.93849334       2.20550733       6.38097643        7       1.00000000      -0.00292541      -0.15744517       0.43414189
Ni       2.52261112       4.45219691       6.39450839        7       1.00000000       0.05804217       0.07459716       0.14200613
Pt       5.09753537       4.48611047       6.51955865        8       0.00000000      -0.18973306      -0.07274730       0.34326734
Ni       7.66713897       4.37596619       6.49441634        8       1.00000000       0.00688247       0.00282103      -0.00770718
Ni      10.23673575       4.36391179       6.50520836        8       1.00000000       0.07107880       0.03656502      -0.18557254
Ni       3.78870372       6.59429796       6.47276427        8       1.00000000      -0.16468961       0.03273253      -0.07106721
Ni       6.37201442       6.59459607       6.46093119        8       1.00000000       0.10817811       0.05260979      -0.20145544
Pt       8.96869828       6.53272346       6.39135253        7       0.00000000       0.09558106      -0.11633156       0.28086191
Ni      11.49177755       6.54694383       6.46783343        8       1.00000000       0.01336220      -0.14331977      -0.31788077
