64
Lattice="10.226505636098045 0.014275329345586937 0.01690591755918179 5.125615615909692 8.787771135304789 -0.04176699867285068 0.0 0.0 21.492957706840457" Properties=species:S:1:pos:R:3:tags:I:1:initial_magmoms:R:1:forces:R:3 unique_id=1faec4e4a61442e29f3535195d1be434 energy=-370.85380583485414 stress="0.005110612926321626 2.5112947678194358e-05 0.00024293054677041226 2.5112947678194358e-05 0.004354051169298186 -1.6201585873350566e-06 0.00024293054677041226 -1.6201585873350566e-06 -0.0012601802400651185" pbc="T T T"
Ni       0.03626902      -0.04894644       0.13163320        1       1.00000000       0.09894428      -0.06310759      -0.24347474
Ni       2.50515367      -0.00192562       0.11831875        1       1.00000000      -0.02454123       0.15400310      -0.36578885
Pt       5.11427623      -0.04895447       0.10758947        1       0.00000000      -0.06006674       0.14283724      -0.80410991
Ni       7.69273228      -0.05059634       0.12992772        1       1.00000000      -0.05760138      -0.08535535      -0.27608610
Ni       1.28175827       2.21057240       0.05195550        1       1.00000000      -0.00088922       0.09170073       0.32076064
Pt       3.75817122       2.26232768       0.12210399        1       0.00000000       0.04360707       0.01534093      -0.37352695
Pt       6.41000605       2.27045078       0.05687584        1       0.00000000      -0.00729651      -0.01010637      -0.08772189
Pt       9.02684317       2.26481012       0.09450116        1       0.00000000       0.00116031       0.15695434      -0.68984893
Ni       2.53928980       4.43711918       0.02826541        0       1.00000000       0.01572984       0.07849927       0.48635769
Ni       5.11529689       4.46869805       0.03488779        0       1.00000000      -0.11261529       0.09813117       0.37681965
Ni       7.67609726       4.46127835       0.04095444        0       1.00000000       0.06314077       0.06684822       0.31285308
Ni      10.26994089       4.43702900       0.04644298        0       1.00000000       0.09565723       0.09473200       0.45175076
Ni       3.84699532       6.56916415       0.02121325        0       1.00000000       0.00171247      -0.03737704       0.40308653
Ni       6.36717422       6.56739459       0.00000000        0       1.00000000      -0.12796083      -0.01271124       0.18670106
Ni       8.95082981       6.53218948       0.09002281        1       1.00000000       0.08804408      -0.11839419      -0.42151061
Ni      11.55823491       6.54271973       0.01187247        0       1.00000000       0.08490460      -0.02289148       0.28830363
Ni       1.30613412       0.76706674       2.12615059        2       1.00000000       0.05579034       0.20113585       0.06987644
Ni       3.82190582       0.78271966       2.18929264        3       1.00000000       0.00021734       0.17104930       0.19410934
Ni       6.39058295       0.76018617       2.21345309        3       1.00000000      -0.11387457       0.08721957       0.30433106
Pt       8.93357586       0.70264136       2.16342405        3       0.00000000      -0.05844819       0.05294328      -0.09511633
Ni       2.53350530       2.95351360       2.20196370        3       1.00000000       0.00895997       0.10668708       0.17698858
Ni       5.09825339       2.94755841       2.18196635        3       1.00000000      -0.15839572       0.02926742       0.09529635
Ni       7.67632668       2.96993963       2.18832084        3       1.00000000       0.04184074       0.02024970       0.15512819
Ni      10.28409495       2.99045376       2.17020084        3       1.00000000       0.10175618       0.11752617       0.11316077
Ni       3.83706033       5.10816757       2.12564683        2       1.00000000      -0.04373169      -0.11423319       0.07806055
Ni       6.36127986       5.09076131       2.09008686        2       1.00000000      -0.15410082      -0.13768368      -0.04255566
Ni       8.97219283       5.05843614       2.11774287        2       1.00000000       0.01721806      -0.22234453       0.06177298
Ni      11.55339203       5.07493695       2.14394312        2       1.00000000       0.20015076      -0.18802643       0.15922228
Ni       5.10526822       7.25336204       2.08491935        2       1.00000000      -0.13347797      -0.24749135       0.01928385
Pt       7.60339532       7.30714346       2.05666977        2       0.00000000      -0.02545448      -0.04661301      -0.06896241
Pt      10.32897758       7.22239235       2.16685496        3       0.00000000       0.10093463      -0.22027583      -0.09108147
Ni      12.81646217       7.25671253       2.10067102        2       1.00000000       0.10604926      -0.26196854       0.01261784
Pt       0.09367290       1.50255318       4.23556766        4       0.00000000       0.08558709       0.01430301       0.08781062
Ni       2.57823049       1.50422165       4.23584477        4       1.00000000       0.14493332       0.18792441      -0.30225311
Ni       5.13060399       1.46276608       4.23348280        4       1.00000000      -0.05790513      -0.04888723      -0.35502172
Ni       7.64051592       1.44140545       4.27957977        5       1.00000000      -0.04857449      -0.10803874      -0.23120627
Ni       1.32317749       3.68635958       4.28100932        5       1.00000000       0.10529507       0.07616106      -0.11741947
Ni       3.80230234       3.68851095       4.22884264        4       1.00000000      -0.12396649       0.12124150      -0.29375312
Pt       6.35028845       3.60040683       4.26712146        5       0.00000000      -0.07635831      -0.05983189      -0.03978811
Ni       8.99364630       3.68440726       4.24594124        4       1.00000000       0.11972698       0.03830385      -0.29036473
Ni       2.55148433       5.77677762       4.27518392        5       1.00000000      -0.05308743      -0.10012599      -0.18318139
Ni       5.09026614       5.80160691       4.27878748        5       1.00000000      -0.08062136      -0.16314440      -0.17362077
Pt       7.66142610       5.80767409       4.25583195        5       0.00000000      -0.03032446       0.01118616      -0.03690490
Ni      10.30678997       5.79022588       4.28945299        5       1.00000000       0.08542003      -0.07366510      -0.05633372
Pt       3.83569604       7.92349555       4.20697043        4       0.00000000       0.02321733      -0.12303074       0.05369005
Ni       6.39342985       8.02109150       4.23767261        4       1.00000000      -0.05099819      -0.03617550      -0.16913809
Pt       8.96411262       8.08941575       4.19842029        4       0.00000000      -0.04130304       0.07521177       0.00549581
Ni      11.54561141       8.01402266       4.23623358        4       1.00000000       0.02583139      -0.11035018      -0.15818473
Pt       0.00831822      -0.09261772       6.49295771        8       0.00000000       0.00657020       0.03266698       0.32182418
Pt       2.54166070      -0.01797011       6.47038293        8       0.00000000       0.01025765       0.08162731       0.36560853
Pt       5.15525181      -0.00704986       6.37341968        7       0.00000000       0.02306566       0.10533052       0.93852497
Pt       7.67708357      -0.06892033       6.47465168        8       0.00000000      -0.04463054       0.10928899       0.32906863
Ni       1.29470254       2.23366547       6.42109318        7       1.00000000       0.01270368       0.10973678      -0.14557448
Pt       3.83610616       2.29683729       6.32441406        6       0.00000000       0.00262481       0.08409346       0.37191582
Ni       6.39938596       2.21647170       6.35881071        7       1.00000000      -0.00915173       0.00456979       0.26337660
Pt       8.94256206       2.28507325       6.35983223        7       0.00000000      -0.11427346      -0.02671484       0.71882207
Ni       2.54688174       4.41443676       6.38870670        7       1.00000000       0.01845894       0.02856496      -0.43030192
Ni       5.13086010       4.42221120       6.41694947        7       1.00000000      -0.08958896       0.04956601      -0.28948902
Ni       7.62771782       4.37465587       6.43616155        7       1.00000000      -0.10679598      -0.03231710      -0.11559047
Ni      10.31199296       4.37217457       6.40885444        7       1.00000000       0.12415023      -0.02944195      -0.32673166
Ni       3.84690075       6.47019643       6.40868192        7       1.00000000      -0.01768718      -0.13429929      -0.29347168
Ni       6.37432610       6.50014502       6.41931733        7       1.00000000      -0.05350556       0.02874275      -0.15747175
Pt       8.99799434       6.45107422       6.47338994        8       0.00000000       0.13354528      -0.02665819       0.28627103
Ni      11.56018392       6.49920475       6.39751497        7       1.00000000       0.03002139       0.01761629      -0.28330462
