64
Lattice="10.745120606576164 0.0003515677582893294 -0.007050000880756104 5.3728647698979115 9.320947432547323 0.0016681007679112663 -0.005756301614674812 0.004896102773025894 9.405880260867532" Properties=species:S:1:pos:R:3:tags:I:1:initial_magmoms:R:1:forces:R:3 unique_id=df75996e9c3841868389d111fa2c18e9 stress="-9.421873912943135e-05 -8.57218304881879e-07 -1.73573909595766e-06 -8.57218304881879e-07 -9.615098945953832e-05 -1.3538367030012167e-06 -1.73573909595766e-06 -1.3538367030012167e-06 -4.7468487598775755e-05" energy=-429.0851148010429 pbc="T T T"
Pt       0.03962583       0.00570307       0.09629428        4       0.00000000       0.12009066       0.03166207       0.10617223
Ni       2.69927522       0.01467857       0.08567638        4       1.00000000       0.04589885       0.05511138       0.34343175
Pt       5.31004903       0.02804730       0.03770692        4       0.00000000      -0.20907702       0.11978088      -0.05012562
Pt       8.04809220       0.00839087       0.08604726        4       0.00000000      -0.04949268       0.04294831       0.10165622
Pt       1.41485185       2.30648202       0.11264808        4       0.00000000       0.26178168      -0.08863278       0.10584977
Ni       4.02219916       2.31987161       0.04384227        4       1.00000000      -0.01702192      -0.04774323       0.19063979
Pt       6.68680366       2.34597920       0.09038089        4       0.00000000      -0.10462354      -0.03784106       0.11116207
Pt       9.39214250       2.35758550       0.09280640        4       0.00000000       0.01869974       0.03941769       0.10432716
Pt       2.70199342       4.61168569       0.11586119        4       0.00000000       0.04972487      -0.12826941       0.14564502
Pt       5.38452253       4.63102120       0.09368231        4       0.00000000       0.03294782      -0.02271412       0.07488533
Ni       8.05803608       4.66246470       0.08583011        4       1.00000000      -0.01341806       0.01793580       0.36219234
Pt      10.71725517       4.65962701       0.09594135        4       0.00000000      -0.03769447      -0.02295520       0.07539752
Pt       4.03460457       6.98392506       0.09958974        4       0.00000000      -0.00391993      -0.03800952       0.14111097
Pt       6.74803594       6.98949443       0.09754299        4       0.00000000       0.05889654      -0.01615842       0.09520637
Pt       9.38651170       7.00487236       0.10760792        4       0.00000000       0.00709510       0.08116102       0.08187368
Pt      12.06614054       6.99896770       0.10949714        4       0.00000000      -0.08358803       0.04358033       0.14021967
Pt       1.38125055       0.79813169       2.34588715        3       0.00000000       0.07814938       0.01752422       0.08431160
Pt       4.01887883       0.78963677       2.31887112        3       0.00000000      -0.01313763       0.06032741      -0.07293598
Pt       6.67969559       0.75213568       2.36550492        3       0.00000000      -0.15434691      -0.04393794       0.08086561
Pt       9.40120814       0.78229307       2.36660580        3       0.00000000      -0.01408541       0.02936105       0.07904777
Ni       2.69149621       3.10139229       2.34907172        3       1.00000000       0.03876905      -0.03609932       0.02691801
Pt       5.31786627       3.08959745       2.34584576        3       0.00000000      -0.16114470      -0.09285077       0.04838686
Pt       8.05213601       3.12241037       2.33793067        3       0.00000000      -0.05333788      -0.00003687       0.00261480
Pt      10.78362378       3.11099995       2.36272444        3       0.00000000       0.10927481      -0.01611586       0.04419206
Pt       4.00935221       5.40755877       2.37178336        3       0.00000000      -0.03265015      -0.05907012       0.11809408
Pt       6.72673291       5.43085408       2.34186364        3       0.00000000       0.00575056      -0.01679676       0.02588700
Pt       9.40957495       5.46236078       2.34375503        3       0.00000000       0.02061555       0.05890442       0.02573876
Pt      12.08382700       5.43741065       2.36492849        3       0.00000000      -0.02083828      -0.00320304       0.04640871
Pt       5.37626514       7.76643464       2.37590598        3       0.00000000       0.02376171      -0.02345164       0.11982927
Pt       8.09647401       7.79186155       2.34480021        3       0.00000000       0.11841970       0.09424218       0.06832917
Ni      10.74138336       7.77229511       2.35326734        3       1.00000000      -0.02875398       0.04553520       0.02572873
Pt      13.39378090       7.76336161       2.37179312        3       0.00000000      -0.08525362      -0.00802694       0.10768261
Pt       0.00323904       1.55785732       4.68191555        2       0.00000000       0.03246614       0.00391689      -0.09001853
Pt       2.70003011       1.56311845       4.67298010        2       0.00000000       0.02217668      -0.00780665      -0.17524600
Pt       5.35104349       1.54783376       4.72952168        2       0.00000000      -0.07015841      -0.01313418       0.03516004
Pt       8.04591975       1.55325021       4.67499905        2       0.00000000      -0.05839833       0.01832834      -0.15204670
Pt       1.35069528       3.88113744       4.65780562        2       0.00000000       0.04535260      -0.02517893      -0.16471514
Pt       4.02123933       3.86174827       4.67758769        2       0.00000000      -0.00583169      -0.08257481      -0.11848050
Pt       6.71057318       3.88311773       4.67470503        2       0.00000000      -0.00669748      -0.02682351      -0.14996161
Pt       9.39952867       3.89169173       4.66001026        2       0.00000000      -0.00615872       0.02628099      -0.17963663
Pt       2.68066706       6.21361291       4.68102917        2       0.00000000      -0.00587734      -0.01915067      -0.05131594
Pt       5.36725694       6.21008406       4.68120145        2       0.00000000       0.01060239      -0.03610719      -0.10640705
Pt       8.05984434       6.21589067       4.67261687        2       0.00000000       0.00095808      -0.00156324      -0.12168901
Pt      10.74347653       6.23042108       4.64759628        2       0.00000000      -0.01347837       0.05734080      -0.21931135
Pt       4.02070142       8.54687313       4.67989289        2       0.00000000      -0.01424195       0.00120906      -0.10081220
Pt       6.72983415       8.55479786       4.67644830        2       0.00000000       0.10145345       0.03781602      -0.10102236
Pt       9.41271941       8.55507222       4.68092191        2       0.00000000      -0.01511750       0.01070866      -0.15767783
Pt      12.06115011       8.55188957       4.67672892        2       0.00000000      -0.08081612       0.01116374      -0.12028694
Pt       0.00575000       0.00570661       6.96678669        1       0.00000000       0.08031133       0.02040927      -0.08533384
Pt       2.74499682       0.04313853       7.04347479        1       0.00000000       0.25878009       0.14624805       0.11110207
Ni       5.35560262       0.01793335       6.97163929        1       1.00000000      -0.05759398       0.05594695      -0.27968249
Pt       8.01839954       0.00760238       6.95891718        1       0.00000000      -0.10358704       0.02987448      -0.08553062
Pt       1.38770237       2.32778941       6.97445296        1       0.00000000       0.13998005      -0.02492540      -0.03760668
Ni       4.02840484       2.31927440       7.01908953        1       1.00000000       0.01596355      -0.06734971      -0.14080158
Pt       6.65100926       2.30361727       6.96693586        1       0.00000000      -0.19265611      -0.09928811      -0.01338578
Pt       9.39101179       2.33506632       6.96360582        1       0.00000000      -0.03517299       0.00444223      -0.08095830
Pt       2.70069954       4.62936671       6.96999911        1       0.00000000       0.02987666      -0.07384956      -0.03145444
Pt       5.35538197       4.62728808       6.97179051        1       0.00000000      -0.01728726      -0.10969807      -0.08139795
Pt       8.05020874       4.66045553       7.03660411        1       0.00000000      -0.02429845      -0.02721407       0.07221515
Pt      10.74306020       4.66683249       6.96831024        1       0.00000000       0.02552437       0.01163023      -0.09975063
Pt       4.02121215       6.99125785       6.96639176        1       0.00000000      -0.01831367      -0.02268431      -0.06131105
Pt       6.72074473       6.99842425       6.97038950        1       0.00000000       0.06660895       0.03816245      -0.08301091
Pt       9.41270310       7.03054177       6.97084990        1       0.00000000       0.03433553       0.09601595      -0.05272090
Pt      12.06646517       7.02225012       6.96194106        1       0.00000000      -0.04619626       0.03227536      -0.03764764
