64
Lattice="10.335961583006476 -0.00014326815064414012 0.01269741850801249 5.1678567176452255 8.900937939675714 -0.017583492104350208 0.010367398798400648 -0.022563495825621026 8.809592234080252" Properties=species:S:1:pos:R:3:tags:I:1:initial_magmoms:R:1:forces:R:3 unique_id=1a98f4927dc4408c8f057c65547464c4 stress="0.00022224796462738672 4.6383107767552834e-06 -1.466857759501299e-05 4.6383107767552834e-06 0.00022949819687342193 7.434213692719114e-06 -1.466857759501299e-05 7.434213692719114e-06 0.00022167490057773548" energy=-397.72131531681407 pbc="T T T"
Ni       0.00313789       0.01904129       0.17952614        4       1.00000000       0.02667317       0.05043925       0.22770606
Ni       2.58349987       0.00444508       0.21412508        4       1.00000000       0.02552560       0.01125681       0.38870758
Ni       5.16688321      -0.01172526       0.17447857        4       1.00000000      -0.02784069       0.13312345       0.28421570
Ni       7.75907895      -0.04651401       0.19666890        4       1.00000000      -0.03661348      -0.15438999       0.37282201
Ni       1.26254493       2.23111602       0.10353644        4       1.00000000      -0.11357012       0.03060646       0.20219730
Pt       3.81546798       2.23654751       0.19577159        4       0.00000000      -0.05976944       0.04383531       0.16119995
Pt       6.48569930       2.17882730       0.20225232        4       0.00000000       0.05980432      -0.03261617       0.23693484
Ni       9.08866498       2.22629672       0.15341600        4       1.00000000       0.12598658       0.04810863       0.13259459
Ni       2.58096160       4.47393833       0.06650403        4       1.00000000       0.05480512       0.04620060       0.00581006
Ni       5.13931690       4.46763568       0.19035105        4       1.00000000       0.01118416      -0.01186982       0.35812378
Pt       7.83105423       4.46092546       0.10821544        4       0.00000000       0.13755530      -0.00034311      -0.11740352
Ni      10.36971868       4.44369832       0.07745997        4       1.00000000       0.13152301      -0.05076325       0.12005491
Ni       3.84156996       6.67243752       0.09842655        4       1.00000000      -0.08361567      -0.03374559       0.18636472
Pt       6.43415237       6.71961335       0.18726686        4       0.00000000      -0.05882513       0.00652267       0.07443702
Ni       9.06840701       6.68801780       0.07049961        4       1.00000000      -0.00734307       0.01561343       0.01596219
Ni      11.65228594       6.67094965       0.06160505        4       1.00000000       0.12756388      -0.04422685      -0.00931408
Ni       1.30396229       0.76134462       2.16163503        3       1.00000000      -0.03267280       0.14048875      -0.14687503
Ni       3.87054267       0.74915876       2.21751934        3       1.00000000       0.05519781       0.04971219       0.04408991
Ni       6.45453387       0.75190287       2.25138848        3       1.00000000      -0.02354482       0.11530333       0.15940891
Pt       9.05399121       0.77906002       2.19079368        3       0.00000000      -0.00813888       0.12206574       0.11814575
Ni       2.57507374       2.96905962       2.22240516        3       1.00000000      -0.03563599       0.10548908      -0.07448401
Ni       5.14929364       2.97482913       2.25036058        3       1.00000000      -0.15000258      -0.01799367       0.03719209
Ni       7.78463296       2.97826418       2.24458707        3       1.00000000       0.19476122       0.06035457      -0.05802783
Ni      10.34322148       2.95850928       2.21774591        3       1.00000000       0.06484048       0.05938741       0.06089983
Ni       3.88607996       5.17396177       2.17262177        3       1.00000000      -0.07290515      -0.08084699      -0.13313336
Ni       6.46672598       5.17621604       2.20665785        3       1.00000000       0.10726455       0.01029499      -0.12777128
Ni       9.02876097       5.16459165       2.23615208        3       1.00000000       0.01065496      -0.08496566       0.13347595
Pt      11.67268508       5.12875088       2.17732143        3       0.00000000       0.03528127      -0.03438629       0.02477802
Ni       5.13898654       7.40258408       2.17802213        3       1.00000000      -0.18340569      -0.02546846      -0.15700728
Ni       7.75526240       7.40895447       2.19267345        3       1.00000000       0.03820902      -0.10792076      -0.04819118
Pt      10.32272280       7.41562878       2.10680663        3       0.00000000       0.03067400      -0.16220274      -0.05386748
Ni      12.94878979       7.38878628       2.16141343        3       1.00000000       0.04433541      -0.14001292      -0.04900980
Ni      -0.00506965       1.54425336       4.34761950        2       1.00000000      -0.02165716       0.16504760      -0.14245256
Pt       2.54660939       1.57392006       4.26128113        2       0.00000000       0.00933927       0.00809426       0.00919916
Ni       5.17378715       1.49719915       4.32470054        2       1.00000000      -0.06606396       0.07060144      -0.14572214
Ni       7.78564497       1.49663600       4.34243830        2       1.00000000       0.06345130       0.02302537      -0.07323436
Ni       1.29291752       3.69503829       4.39227084        2       1.00000000      -0.03846042      -0.00385361      -0.06253291
Ni       3.84746846       3.71876535       4.32420669        2       1.00000000      -0.09200873      -0.00306837      -0.20116436
Pt       6.51447030       3.67601861       4.26083952        2       0.00000000      -0.01759561      -0.10236148       0.09920559
Ni       9.06459890       3.67654778       4.34415438        2       1.00000000       0.06074198      -0.11276191      -0.29666246
Ni       2.57736037       5.86758113       4.39123177        2       1.00000000      -0.05868699      -0.10317053      -0.07574204
Pt       5.11736732       5.86986889       4.25628117        2       0.00000000       0.01648149      -0.04663432      -0.04989388
Ni       7.78286764       5.87802243       4.34010942        2       1.00000000       0.01456668      -0.06013432      -0.25412486
Pt      10.33816752       5.81716320       4.43350225        2       0.00000000      -0.02256494      -0.00703258      -0.09312927
Pt       3.86724593       8.15262529       4.30787402        2       0.00000000      -0.09122659       0.00170786       0.10508396
Pt       6.45644799       8.16229402       4.23072641        2       0.00000000      -0.07092562       0.00183369      -0.06099610
Pt       9.03482241       8.13841853       4.31470785        2       0.00000000      -0.06394964       0.04563165       0.06424816
Pt      11.64649696       8.15827489       4.30164385        2       0.00000000       0.03247179       0.01358549       0.04683354
Pt       0.01322244       0.00004116       6.59258441        1       0.00000000       0.00843759       0.02848056       0.09722192
Pt       2.58371240      -0.01119981       6.62255565        1       0.00000000       0.00028882       0.05144184       0.20922171
Pt       5.17020496      -0.10483844       6.60728622        1       0.00000000       0.00973876      -0.18380345       0.08472647
Pt       7.76356287      -0.09418124       6.62634652        1       0.00000000       0.00181718      -0.10217058       0.18361883
Ni       1.28733511       2.27969887       6.51980451        1       1.00000000       0.00445009       0.20233916      -0.17374938
Pt       3.81326086       2.26884641       6.47654937        1       0.00000000      -0.11811063       0.04358015      -0.25916138
Pt       6.49237932       2.22240347       6.47435009        1       0.00000000      -0.00685347       0.05455132      -0.21508233
Pt       9.11991154       2.31540370       6.51986784        1       0.00000000       0.03920986       0.09171616       0.02026212
Ni       2.52354717       4.47250794       6.50458925        1       1.00000000      -0.18164371       0.07891429      -0.23752165
Pt       5.10623450       4.47522450       6.57385891        1       0.00000000      -0.10570919       0.10210508       0.13050736
Ni       7.81006687       4.46146372       6.44902966        1       1.00000000       0.10751973       0.04871760      -0.31669644
Ni      10.37630305       4.45254362       6.54209525        1       1.00000000       0.13913399       0.05882020      -0.03054862
Ni       3.83185582       6.62330483       6.52882289        1       1.00000000      -0.11067482      -0.06509167      -0.15651971
Pt       6.51731417       6.61082296       6.47960931        1       0.00000000       0.05944568      -0.01318627      -0.30810217
Ni       9.07904571       6.58685714       6.53847052        1       1.00000000       0.06723150      -0.19799726      -0.13758510
Ni      11.64501453       6.58292098       6.54499822        1       1.00000000       0.04384936      -0.15597778      -0.12954342
