64
Lattice="10.127866093473193 0.012233451321738064 -0.004601570596419673 5.07452752635718 8.727956743407486 -0.012501136290813418 0.0 0.0 21.33971500244205" Properties=species:S:1:pos:R:3:tags:I:1:initial_magmoms:R:1:forces:R:3 unique_id=536f10b9c6b6413998a659f29dba0c18 stress="0.0024854263065108573 -8.504252477761746e-05 6.063499909630873e-05 -8.504252477761746e-05 0.0016301245631688398 0.00014714551913152501 6.063499909630873e-05 0.00014714551913152501 -0.004997164867783248" energy=-367.20340532073067 pbc="T T T"
Ni       0.03843578      -0.05079278       0.08879868        1       1.00000000       0.05894250      -0.05086729      -0.41212802
Ni       2.48772045      -0.03079663       0.08934684        1       1.00000000       0.05207598      -0.00240780      -0.25182257
Pt       5.08192087      -0.06356952       0.10211545        1       0.00000000      -0.10063197       0.00042400      -0.90217982
Ni       7.60912275      -0.04396097       0.05528040        1       1.00000000      -0.05028438      -0.09785880      -0.38388008
Ni       1.26298222       2.19998205       0.02390037        0       1.00000000      -0.03201508       0.02279047       0.18034616
Pt       3.76399181       2.24484874       0.09218031        1       0.00000000       0.01962755      -0.07177866      -0.79871348
Ni       6.33618098       2.23301228       0.01791440        0       1.00000000      -0.04522635      -0.02412744       0.08219193
Pt       8.86746163       2.24707412       0.04792838        0       0.00000000       0.03344853       0.16715271      -1.05215730
Ni       2.51159184       4.41089568       0.00136348        0       1.00000000       0.05742621       0.00119211       0.36166111
Ni       5.09155072       4.41960820       0.00014489        0       1.00000000      -0.10634454       0.03396714       0.21499122
Ni       7.57036459       4.41689289       0.00845278        0       1.00000000       0.08733280       0.00747640       0.17390319
Ni      10.16450333       4.41769301       0.00258363        0       1.00000000      -0.05355437      -0.01535869       0.29376741
Ni       3.81214482       6.52569074       0.00000000        0       1.00000000       0.01646541       0.03379970       0.34302203
Ni       6.32978203       6.54010605       0.00609045        0       1.00000000      -0.00021104       0.05682138       0.22491938
Ni       8.84665226       6.50353660       0.11278529        1       1.00000000       0.00676967       0.03018430      -0.31455437
Ni      11.42922382       6.50135355       0.00535269        0       1.00000000      -0.00977119       0.06427245       0.30247322
Ni       1.30929225       0.72038055       2.04508977        2       1.00000000      -0.03056867       0.08230151       0.09632149
Ni       3.73339493       0.69353316       2.08406159        3       1.00000000      -0.13771693      -0.08899192       0.16610698
Ni       6.34359399       0.72688808       2.06690003        3       1.00000000       0.03601662       0.04060847       0.09176458
Pt       8.84199737       0.65840087       2.08630137        3       0.00000000       0.03532463      -0.18608066       0.15483842
Ni       2.49825416       2.95035535       2.12459139        3       1.00000000      -0.01800996       0.05792597       0.09140120
Ni       5.07429118       2.97208486       2.04548418        2       1.00000000       0.02453565       0.08953591       0.04623547
Ni       7.57653687       2.95950312       2.07693016        3       1.00000000      -0.01883332       0.01459045       0.13001987
Ni      10.17875361       2.98742204       2.06853328        3       1.00000000       0.08197539       0.06244032       0.10688831
Ni       3.79170351       5.09514663       2.05391779        3       1.00000000      -0.04047401      -0.00470681       0.04502275
Ni       6.31735049       5.11371227       1.99965620        2       1.00000000       0.00704268       0.03261924       0.03882384
Ni       8.89376913       5.08185332       2.03077293        2       1.00000000       0.05071386      -0.07147621       0.04583329
Ni      11.40604671       5.10250291       2.06398668        3       1.00000000       0.02433261      -0.00360030       0.13289060
Ni       5.09028269       7.20769372       2.05849015        3       1.00000000      -0.03676163      -0.07664872       0.10641181
Ni       7.59178018       7.28203276       2.02454198        2       1.00000000      -0.04833687       0.00106189       0.05757551
Ni      10.14298430       7.21556462       2.11740771        3       1.00000000       0.02399921      -0.08258175       0.15864126
Ni      12.64634046       7.20308202       2.05660045        3       1.00000000      -0.00079933      -0.10822862       0.08793489
Pt       0.07340016       1.48311113       4.13010103        5       0.00000000       0.11233817      -0.02282805       0.02026440
Ni       2.53473925       1.47085304       4.10702607        5       1.00000000       0.04449380      -0.03668940      -0.21310450
Pt       5.04696983       1.42299485       4.04729910        4       0.00000000       0.07709132      -0.01143262      -0.15827514
Ni       7.58799417       1.43174418       4.14740748        5       1.00000000      -0.03685141      -0.07345634      -0.19830194
Ni       1.30155664       3.69198253       4.16414697        6       1.00000000       0.07423182       0.04471992      -0.10595471
Ni       3.74268602       3.72028228       4.10717966        5       1.00000000      -0.02533599       0.10240805      -0.16158710
Pt       6.31534045       3.65707815       4.16148604        6       0.00000000      -0.00970250       0.00598839      -0.00304960
Ni       8.91649533       3.70045595       4.10161387        5       1.00000000       0.08439252       0.09519712      -0.18343158
Ni       2.53676137       5.80573618       4.15121166        6       1.00000000      -0.00436887       0.03240833      -0.14903440
Ni       5.00711601       5.84235224       4.15312016        6       1.00000000       0.00744511       0.03247702      -0.14006674
Pt       7.61221269       5.86494382       4.08781458        5       0.00000000      -0.00174113       0.03191288       0.03820031
Ni      10.19884733       5.80633557       4.12973525        5       1.00000000       0.01925066       0.04117198      -0.09450693
Ni       3.79446517       7.91063218       4.13634610        5       1.00000000       0.01444888      -0.05024658      -0.07691129
Ni       6.32228890       7.98277015       4.08701742        5       1.00000000      -0.02039468       0.02844687      -0.19123368
Ni       8.87007749       7.98505771       4.08333985        5       1.00000000      -0.02295633       0.02237090      -0.23936728
Ni      11.43058960       7.91982553       4.08178229        5       1.00000000       0.03756798      -0.08261337      -0.17250365
Pt      -0.00428391      -0.09295020       6.32218406        8       0.00000000      -0.26585844       0.04569402       0.23287673
Pt       2.50788262      -0.00777521       6.26949369        8       0.00000000       0.27323844       0.01313884       0.16630468
Pt       5.08302762      -0.02491191       6.20663828        7       0.00000000      -0.22874280      -0.18454394       0.95714475
Pt       7.59300072      -0.06655671       6.26398908        8       0.00000000       0.18390473       0.08957937       0.24501879
Ni       1.26506051       2.24600136       6.27323125        8       1.00000000       0.04125859       0.03559603       0.00708291
Pt       3.77475945       2.32544534       6.20022493        7       0.00000000      -0.13285408      -0.04630937       0.74350675
Ni       6.32042034       2.22680623       6.28487706        8       1.00000000       0.00586152      -0.01586529       0.10100757
Pt       8.84109984       2.30017720       6.19005029        7       0.00000000      -0.14765487      -0.11056325       1.10508264
Ni       2.50738753       4.42481453       6.24046973        7       1.00000000       0.07085794      -0.04819407      -0.27916981
Ni       5.06427256       4.43110984       6.27696680        8       1.00000000      -0.09697663       0.01417175      -0.15444702
Ni       7.53088301       4.37511593       6.29551343        8       1.00000000      -0.02939395      -0.03914695       0.00371086
Ni      10.21672366       4.36440886       6.24326510        7       1.00000000       0.02759401      -0.03033176      -0.19923885
Ni       3.79399853       6.44503317       6.24209212        7       1.00000000       0.00072537       0.00119362      -0.27427427
Ni       6.29819301       6.47257387       6.26918306        8       1.00000000       0.00711370       0.02096607      -0.18573970
Pt       8.89617037       6.41742938       6.33971500        8       0.00000000       0.11328182       0.14221458       0.18160321
Ni      11.44524696       6.47097659       6.23486178        7       1.00000000      -0.05875438       0.03811449      -0.24015571
