64
Lattice="10.764904081999086 -0.00098623346069197 0.0001743974535283875 5.381597937768521 9.319859386699372 -0.0011450488873072288 0.0 0.0 22.018538850529033" Properties=species:S:1:pos:R:3:tags:I:1:initial_magmoms:R:1:forces:R:3 unique_id=f97e75a8cf4b4243867355a6418945fa energy=-403.76740069118165 stress="0.002929845075866005 4.9359338465076224e-05 5.118084818308791e-06 4.9359338465076224e-05 0.003030743784810209 2.9904965976556902e-05 5.118084818308791e-06 2.9904965976556902e-05 -0.001407035482039954" pbc="T T T"
Pt       0.00463113       0.00497048       0.07315265        1       0.00000000       0.06706879       0.08968565      -0.36304140
Pt       2.70770352       0.03032318       0.06858290        1       0.00000000       0.01894597       0.03548999      -0.36775159
Pt       5.36643305       0.02418746       0.06692601        1       0.00000000       0.01005349      -0.03175820      -0.26985697
Pt       8.06832261      -0.00041223       0.07010665        1       0.00000000      -0.09421472       0.02562110      -0.34994457
Pt       1.36681823       2.36225484       0.07023405        1       0.00000000       0.03401556      -0.02394796      -0.26715907
Ni       4.03370808       2.33512752       0.05750212        1       1.00000000      -0.02048102      -0.00380179       0.37129088
Pt       6.69770925       2.33561137       0.06631799        1       0.00000000      -0.00682700       0.00063584      -0.19875137
Pt       9.43320947       2.36148850       0.06602400        1       0.00000000       0.01294726      -0.00221469      -0.35243869
Pt       2.68463882       4.63903089       0.01791420        0       0.00000000       0.11812623       0.03642221       0.14276245
Pt       5.35472810       4.63865541       0.07990247        1       0.00000000      -0.15057795       0.02180522      -0.18574396
Pt       8.09938939       4.65782085       0.00000000        0       0.00000000      -0.07004050      -0.03911232       0.04962573
Ni      10.76562491       4.65794634       0.05480542        1       1.00000000       0.01679947       0.00252285       0.35045904
Pt       4.03053382       6.96674337       0.08485384        1       0.00000000      -0.04523512      -0.23811239      -0.29342104
Pt       6.73230738       6.98249209       0.06772152        1       0.00000000       0.06811163      -0.00464390      -0.38060219
Pt       9.43494319       6.96176150       0.06445516        1       0.00000000       0.03322022       0.09782373      -0.38141648
Pt      12.09577101       6.95375159       0.06835058        1       0.00000000      -0.07054113       0.02192919      -0.33473335
Pt       1.34856288       0.78262270       2.35601280        3       0.00000000       0.00723284       0.05909221       0.55659173
Pt       4.04608480       0.80283909       2.35569465        3       0.00000000       0.00139118       0.18455796       0.39510766
Pt       6.71452888       0.78470609       2.38065035        3       0.00000000      -0.02543660       0.04773949       0.55239827
Pt       9.41787004       0.77456560       2.35706054        3       0.00000000      -0.01552119       0.01606198       0.50817487
Pt       2.72105554       3.13681030       2.33136621        2       0.00000000       0.11697209       0.08403888       0.29752233
Pt       5.35469613       3.11800145       2.34933978        2       0.00000000      -0.07102317       0.02585009       0.39489721
Pt       8.06464890       3.11531369       2.35637068        3       0.00000000      -0.06691493       0.08812550       0.45122013
Pt      10.77481071       3.12454863       2.32045331        2       0.00000000       0.08837241       0.14398192       0.37778807
Ni       4.03329452       5.43334413       2.33706186        2       1.00000000      -0.02227342      -0.03087699       0.42487055
Pt       6.69620149       5.42626598       2.35633463        3       0.00000000      -0.01614066      -0.08133702       0.46601755
Pt       9.42730625       5.42514843       2.32708487        2       0.00000000       0.05462471      -0.07760932       0.33150737
Pt      12.13917001       5.42229764       2.32896860        2       0.00000000       0.04779849      -0.10014949       0.33416804
Pt       5.36486661       7.73487805       2.35462178        3       0.00000000      -0.01764926      -0.08772296       0.44708909
Pt       8.07346507       7.76484839       2.35192199        3       0.00000000       0.00619384      -0.04691586       0.53654903
Pt      10.76799871       7.76565836       2.35101658        3       0.00000000       0.02553024      -0.02612513       0.48754216
Pt      13.46832556       7.73297712       2.35457985        3       0.00000000      -0.01515731      -0.11089404       0.48999591
Pt       0.00149102       1.56095457       4.66845249        5       0.00000000       0.03331152       0.10373095      -0.53932181
Pt       2.73393001       1.56221695       4.65930014        5       0.00000000       0.14163313       0.07035224      -0.45375405
Ni       5.37900338       1.55698254       4.67758060        5       1.00000000      -0.04178700       0.06393520      -0.44308991
Pt       8.03802637       1.55576449       4.66480206        5       0.00000000      -0.06760198       0.02814569      -0.46341639
Pt       1.35753067       3.89044011       4.69101067        5       0.00000000       0.06550526       0.03313935      -0.32252933
Pt       4.04645247       3.86469334       4.66210595        5       0.00000000      -0.01110810      -0.06335902      -0.38071367
Pt       6.71573432       3.86126565       4.68806185        5       0.00000000      -0.01008415      -0.01168443      -0.36387165
Pt       9.41016495       3.88879915       4.68916486        5       0.00000000      -0.03500337       0.05010975      -0.32919512
Pt       2.70054818       6.19131786       4.66505047        5       0.00000000       0.01010955      -0.16337121      -0.41964431
Pt       5.37065351       6.19583048       4.63815581        4       0.00000000      -0.04860783      -0.08921362      -0.55477705
Pt       8.06992178       6.19617517       4.68629961        5       0.00000000      -0.02033276      -0.12283056      -0.39903203
Pt      10.76838377       6.20964949       4.65757416        5       0.00000000       0.02525015      -0.00845696      -0.49498476
Pt       4.02854856       8.53987150       4.65803205        5       0.00000000      -0.05366889      -0.00871403      -0.48374626
Pt       6.73374760       8.53993087       4.65731715        5       0.00000000       0.06246431      -0.00060680      -0.51637055
Pt       9.43388625       8.56822148       4.66241157        5       0.00000000       0.01715596       0.02563520      -0.48479525
Pt      12.09562302       8.56491085       4.66044263        5       0.00000000      -0.02336890      -0.01866033      -0.48004585
Pt      -0.00014791      -0.00189990       6.94942785        6       0.00000000       0.00407389      -0.01475264       0.44031297
Pt       2.69341602       0.00474617       6.94953097        6       0.00000000      -0.05037263      -0.02975233       0.36666642
Pt       5.38110608       0.01608566       6.93093960        6       0.00000000       0.01228771       0.09810524       0.27957772
Pt       8.07274480      -0.00014502       6.94594507        6       0.00000000       0.02610611      -0.02182886       0.41427970
Pt       1.36423963       2.36247096       6.95203829        7       0.00000000      -0.02443210       0.02791519       0.28733048
Pt       4.03320866       2.35437501       7.00189380        7       0.00000000       0.13471205       0.03821941      -0.10391380
Pt       6.72633815       2.35192811       6.93236521        6       0.00000000      -0.15690879       0.01034810       0.26478411
Pt       9.40386862       2.36286596       6.94801655        6       0.00000000       0.00304408       0.01489218       0.32012530
Ni       2.68916299       4.65629530       6.96329679        7       1.00000000       0.01839768       0.02059965      -0.39336219
Pt       5.37479420       4.65516134       6.94817839        6       0.00000000      -0.01061412       0.06923713       0.19829166
Ni       8.07930326       4.65879541       6.95637221        7       1.00000000      -0.02261146       0.00340252      -0.36309656
Pt      10.76378723       4.65854458       7.01853885        7       0.00000000       0.01269482       0.01861160      -0.03091804
Pt       4.02473984       6.95298608       6.95041616        7       0.00000000       0.06646946      -0.07818600       0.29374137
Pt       6.73767310       6.95591230       6.94886484        6       0.00000000      -0.09475364      -0.07483546       0.36630568
Pt       9.41106667       6.95589126       6.94758131        6       0.00000000       0.04653736      -0.01510317       0.29518219
Pt      12.11755242       6.95689413       6.94945191        6       0.00000000      -0.02786778      -0.03118573       0.27326356
