64
Lattice="10.13166436913463 -0.015118614052235836 0.022860662166306247 5.052739080728068 8.68682554471936 -0.06667372404603092 0.018665652496532906 -0.07363720936001836 8.630531264638302" Properties=species:S:1:pos:R:3:tags:I:1:initial_magmoms:R:1:forces:R:3 unique_id=8776888a000a4f4f9a93f852612b2d10 stress="-0.0006985506725009985 4.916130972277723e-06 -1.1183027324106835e-05 4.916130972277723e-06 -0.0006756453731981416 1.3246927958310534e-05 -1.1183027324106835e-05 1.3246927958310534e-05 -0.0005636153396608792" energy=-387.7423157237585 pbc="T T T"
Ni       0.03984906      -0.05419912       0.19004869        4       1.00000000       0.10962980      -0.08518908       0.24960970
Ni       2.48745877      -0.04234738       0.20722255        4       1.00000000       0.00198152      -0.06972327       0.22023220
Pt       5.09176760      -0.03859785       0.15378854        4       0.00000000       0.02279245      -0.09998925       0.15787661
Ni       7.61808035      -0.06554870       0.20471448        4       1.00000000       0.06675470      -0.10300088       0.31432874
Ni       1.26024813       2.17824292       0.10693259        4       1.00000000      -0.01106156       0.01108897       0.20839393
Pt       3.76269731       2.22744158       0.17324216        4       0.00000000      -0.05697167       0.03388040       0.16676091
Ni       6.33637658       2.20674689       0.11514876        4       1.00000000      -0.01514534       0.09721007       0.22410013
Pt       8.86876658       2.20964967       0.12472356        4       0.00000000       0.02599232      -0.00771144       0.10916106
Ni       2.50421548       4.38086245       0.07148301        4       1.00000000       0.01178068       0.03278168       0.12291655
Ni       5.08447171       4.38259009       0.08224950        4       1.00000000       0.02600212       0.07859607       0.15719104
Ni       7.56222371       4.36976068       0.09503668        4       1.00000000      -0.06387610       0.06518301       0.16942185
Ni      10.15783252       4.36172760       0.09563627        4       1.00000000       0.07298010       0.08786189       0.16587271
Ni       3.79961921       6.48711094       0.06065778        4       1.00000000       0.08137614      -0.08576505       0.09526797
Ni       6.31640760       6.49114086       0.07296258        4       1.00000000       0.02031581      -0.04245105       0.05049009
Ni       8.81888574       6.44650214       0.13685997        4       1.00000000      -0.09474913      -0.10374563       0.18069869
Ni      11.42770301       6.44377908       0.05951411        4       1.00000000       0.06148050      -0.07763132       0.04005731
Ni       1.30702578       0.71069913       2.18900770        3       1.00000000       0.02783417       0.03638986       0.11098458
Ni       3.76178880       0.71450722       2.24354540        3       1.00000000      -0.00421179      -0.01121749      -0.02448859
Ni       6.33284358       0.74353240       2.22927946        3       1.00000000      -0.06100568       0.00087044       0.01294977
Pt       8.88546099       0.69534162       2.22311494        3       0.00000000       0.04740507       0.17214812      -0.05849119
Ni       2.49735798       2.90185808       2.22205582        3       1.00000000       0.02278666       0.02482563       0.05790459
Ni       5.07420405       2.89698813       2.18699513        3       1.00000000      -0.11788412       0.06218777      -0.04073553
Ni       7.57258582       2.91494024       2.18102547        3       1.00000000       0.05349204       0.01277780      -0.03531496
Ni      10.18106280       2.91196246       2.21647192        3       1.00000000       0.02334160       0.02764469       0.04251141
Ni       3.79611757       5.04002581       2.13320459        3       1.00000000       0.02394111      -0.04731860       0.02529828
Ni       6.32789403       5.06232423       2.11965446        3       1.00000000      -0.01253297       0.03718614       0.03054224
Ni       8.83819020       4.99784573       2.15201262        3       1.00000000      -0.05060179      -0.11117972       0.04426954
Ni      11.42093489       4.99480083       2.16059069        3       1.00000000       0.05913365      -0.08129344       0.10697679
Ni       5.10103222       7.16214855       2.09075919        3       1.00000000       0.03015890      -0.12435825       0.01588329
Ni       7.55066677       7.20291673       2.13432712        3       1.00000000      -0.01607501      -0.06932059       0.04843537
Pt      10.12169029       7.14479480       2.21007159        3       0.00000000      -0.01875791       0.00254201      -0.19450769
Ni      12.66288253       7.14062732       2.10614904        3       1.00000000       0.03302423      -0.18501240      -0.00601024
Ni       0.07446483       1.45175704       4.24102512        2       1.00000000       0.11615260       0.01403606      -0.02294942
Ni       2.51766404       1.42511427       4.21083892        2       1.00000000       0.03092085       0.06463424      -0.04148738
Ni       5.06290875       1.40084848       4.20017912        2       1.00000000      -0.12980283       0.01951895      -0.13635874
Ni       7.56857406       1.40429556       4.26525378        2       1.00000000      -0.05929121      -0.03894183       0.01011577
Ni       1.27491862       3.59164443       4.25588278        2       1.00000000       0.02196943      -0.00991346      -0.06313007
Ni       3.76096717       3.63180610       4.19784198        2       1.00000000      -0.04196376       0.06739717      -0.17183094
Pt       6.33039472       3.59576052       4.25544843        2       0.00000000      -0.00317536       0.01519045       0.02868824
Ni       8.90854098       3.62802153       4.21072529        2       1.00000000       0.01894696       0.06622862      -0.16737087
Ni       2.50942612       5.69789231       4.23998652        2       1.00000000      -0.07133432      -0.11530018      -0.19950532
Ni       5.07025548       5.73484445       4.24402255        2       1.00000000       0.03940121      -0.07503762      -0.18012925
Ni       7.59547013       5.76748610       4.20663503        2       1.00000000       0.03907636       0.05210209      -0.19219924
Ni      10.16031850       5.69933997       4.25491210        2       1.00000000       0.05278955      -0.12699818      -0.00909942
Pt       3.80402265       7.83814250       4.17386177        2       0.00000000       0.03263306      -0.09601742       0.14737411
Ni       6.36274303       7.89806391       4.15848743        2       1.00000000      -0.01256261      -0.01440013      -0.11317482
Ni       8.82274926       7.91554666       4.18030695        2       1.00000000      -0.13755444      -0.00146807      -0.02594313
Ni      11.39879196       7.88233084       4.19295055        2       1.00000000       0.08209361      -0.05857536      -0.01102971
Pt       0.02418795      -0.08828161       6.43237928        1       0.00000000       0.09229076      -0.00896833       0.14071576
Pt       2.53153144      -0.05241930       6.38096872        1       0.00000000      -0.17290249       0.04305645       0.09752626
Pt       5.08699472      -0.05275846       6.27834943        1       0.00000000       0.10010072       0.05834000      -0.41096494
Pt       7.59935403      -0.10276048       6.45013273        1       0.00000000      -0.12275740      -0.01076534       0.16284825
Ni       1.27748350       2.19205755       6.34139601        1       1.00000000       0.03535441       0.08406345      -0.14722846
Pt       3.80080259       2.25143305       6.27242705        1       0.00000000      -0.00414824       0.24714311      -0.25039389
Ni       6.34030522       2.17062921       6.37721464        1       1.00000000      -0.05158387       0.05589193      -0.07301081
Pt       8.88182156       2.21857171       6.26743125        1       0.00000000      -0.00282679       0.15957278      -0.43441969
Ni       2.51045077       4.35046901       6.33005096        1       1.00000000      -0.01438475       0.08481231      -0.14277160
Ni       5.07972347       4.35482048       6.36646192        1       1.00000000      -0.06779491       0.13154459      -0.04131231
Ni       7.54837775       4.29568331       6.37723890        1       1.00000000      -0.15545451       0.02944182      -0.03329322
Ni      10.21093504       4.28932925       6.35021729        1       1.00000000       0.16368968       0.01112102      -0.13511516
Ni       3.79871023       6.37617468       6.34254300        1       1.00000000      -0.04110206      -0.10460762      -0.07357444
Ni       6.30426991       6.39424604       6.33231225        1       1.00000000      -0.01685605       0.03507057      -0.18462769
Pt       8.86758626       6.33917242       6.34436453        1       0.00000000      -0.02369387      -0.09419965       0.09571612
Ni      11.43152837       6.38153884       6.33420925        1       1.00000000       0.00443974       0.03776049      -0.19065110
