64
Lattice="10.46609981173356 0.003845308550473573 0.09105501475115625 5.236380040756879 9.12168772854855 0.04162986310115771 0.0 0.0 21.876992027190518" Properties=species:S:1:pos:R:3:tags:I:1:initial_magmoms:R:1:forces:R:3 unique_id=6b6934de0e7142df9dcfa5ff26f73d83 stress="0.005822627067948874 -2.623145568842267e-06 0.0003097749245565042 -2.623145568842267e-06 0.006218263325859549 1.6040540724545206e-05 0.0003097749245565042 1.6040540724545206e-05 -0.002342754110025873" energy=-385.6420310772671 pbc="T T T"
Pt      -0.06248031       0.04142439       0.05025081        1       0.00000000      -0.11676516      -0.13644727       0.00623893
Ni       2.65025638      -0.02305094       0.09972084        1       1.00000000       0.08017818      -0.02872771       0.38297408
Ni       5.26410111      -0.04482923       0.20265972        2       1.00000000       0.09266009       0.05007390      -0.07285921
Ni       7.82877902      -0.00364717       0.18657008        2       1.00000000      -0.10649105      -0.08062570       0.43745677
Pt       1.26071381       2.29237666       0.00000000        0       0.00000000       0.04941123       0.11903727      -0.20417075
Pt       3.95962615       2.20784601       0.16283687        2       0.00000000       0.23032568       0.13920780      -0.91862244
Pt       6.63914740       2.19513998       0.20607780        2       0.00000000      -0.21543545      -0.08457816      -0.08951834
Ni       9.15322134       2.30150857       0.16316885        2       1.00000000       0.04592157       0.02356503       0.31648267
Pt       2.56272368       4.60310483       0.13689186        1       0.00000000       0.07114430      -0.00751777      -1.04519133
Pt       5.32672701       4.53246143       0.21482705        2       0.00000000       0.14046906      -0.18313578      -0.60109726
Ni       7.92832606       4.56206929       0.23299097        2       1.00000000       0.08497774       0.06121957       0.30999414
Ni      10.40712826       4.59628612       0.16685367        2       1.00000000      -0.04562515       0.09376957       0.37812200
Pt       3.86344907       6.91684549       0.20411557        2       0.00000000      -0.01754591       0.08582756      -0.62034978
Pt       6.62679906       6.84092071       0.21686009        2       0.00000000      -0.17773173      -0.05504199      -0.54498785
Ni       9.20640886       6.82469431       0.16064846        2       1.00000000       0.03954434      -0.07854788       0.51719751
Ni      11.74526476       6.87819924       0.24730239        2       1.00000000       0.08045109       0.00100517      -0.10841458
Pt       1.27621684       0.71004110       2.27877939        3       0.00000000       0.01033549      -0.05637656       0.14135725
Pt       4.03597451       0.75795955       2.35269918        4       0.00000000       0.04412695      -0.15353505       0.25857887
Ni       6.61491880       0.76084024       2.35784820        4       1.00000000       0.10011602      -0.00643949       0.19674992
Ni       9.11184556       0.74745304       2.34865444        3       1.00000000      -0.10802798      -0.00049956       0.03462214
Pt       2.63915902       3.04409567       2.32847033        3       0.00000000      -0.07777520       0.02351240       0.33503293
Ni       5.30333441       3.02146398       2.36533263        4       1.00000000       0.01546909      -0.01691061       0.36454773
Pt       7.81537514       3.05392225       2.43169057        4       0.00000000       0.01742625       0.00646272       0.09797668
Pt      10.39190105       3.05119823       2.34366680        3       0.00000000      -0.06026984      -0.07223044       0.09000264
Pt       4.00690642       5.37323194       2.33873049        3       0.00000000       0.07130598       0.05239512       0.30615920
Ni       6.61378227       5.28989657       2.36163990        4       1.00000000       0.08706388      -0.09573333       0.29478018
Ni       9.14524921       5.31171003       2.36547468        4       1.00000000      -0.05633840      -0.04530430       0.11976161
Pt      11.72093136       5.36464617       2.38010917        4       0.00000000      -0.08260975       0.00427418       0.22037138
Ni       5.23420033       7.61587968       2.31952427        3       1.00000000      -0.00115576       0.05931643       0.26613160
Pt       7.89029107       7.50405918       2.37659845        4       0.00000000       0.15364734       0.04554978       0.21929447
Pt      10.52809746       7.61067466       2.30295221        3       0.00000000      -0.07954424       0.09143827       0.18602094
Ni      13.10896992       7.68426677       2.39111488        4       1.00000000       0.01492767       0.15125849       0.14673679
Pt      -0.08390667       1.57766108       4.59009568        6       0.00000000      -0.19712590       0.09258364      -0.17830015
Pt       2.64794793       1.49919806       4.55981551        6       0.00000000      -0.10518063       0.00036347      -0.22734825
Ni       5.32834026       1.53703108       4.52374565        5       1.00000000       0.05624966       0.03878923      -0.32471628
Ni       7.86515997       1.55846410       4.54379247        5       1.00000000      -0.04517352       0.04385565      -0.19052400
Pt       1.22219061       3.83832835       4.55803951        6       0.00000000      -0.16566001       0.04967437      -0.18524228
Pt       4.06094680       3.75053649       4.49259389        5       0.00000000       0.08913668       0.02264331      -0.36390065
Ni       6.64589225       3.77995747       4.54672397        5       1.00000000       0.07655088       0.02438134      -0.22417686
Ni       9.13873095       3.83722568       4.58186252        6       1.00000000      -0.13068848       0.01488647      -0.16466898
Pt       2.60548606       6.11150952       4.50111458        5       0.00000000      -0.06945931       0.01895427      -0.30681929
Pt       5.38880013       6.05550972       4.48569232        5       0.00000000       0.09450586      -0.07449405      -0.35512162
Ni       7.94721981       6.00575507       4.55988905        6       1.00000000       0.11439346      -0.15523009      -0.22091279
Ni      10.43348567       6.05830524       4.63136856        6       1.00000000      -0.07147017      -0.02591327      -0.04236561
Pt       3.93703541       8.41727558       4.46352982        5       0.00000000      -0.03263680       0.08573864      -0.25992970
Pt       6.56990348       8.36341639       4.57847229        6       0.00000000      -0.06934287       0.13798601      -0.20140819
Pt       9.20687370       8.27531427       4.64697794        6       0.00000000      -0.05073996      -0.08762874      -0.05063074
Pt      11.80719510       8.45358250       4.56665729        6       0.00000000      -0.06030755       0.09850789      -0.10901720
Ni       0.04542292       0.05145146       6.66498707        7       1.00000000      -0.04213381      -0.00760818      -0.01742416
Ni       2.63892047       0.00403382       6.77038891        8       1.00000000      -0.07294303       0.08538951      -0.20199536
Pt       5.24819219      -0.03114439       6.84337282        8       0.00000000      -0.00426958       0.18803445       0.01065082
Ni       7.92688708       0.02420466       6.79757558        8       1.00000000       0.03418727       0.01886397      -0.42276598
Ni       1.29374031       2.25065339       6.65476391        7       1.00000000       0.00855199       0.01583092       0.18685348
Pt       3.93529553       2.22429881       6.71128936        7       0.00000000       0.18123967      -0.03106223       0.89861543
Pt       6.68198674       2.23037643       6.67075378        7       0.00000000      -0.10102679      -0.00655000       0.25098336
Ni       9.23889061       2.27222399       6.82698750        8       1.00000000      -0.01008907       0.00711661      -0.37417316
Pt       2.59915387       4.52081467       6.69791392        7       0.00000000       0.12164606      -0.03876982       0.91783595
Pt       5.33115131       4.55214411       6.72330996        7       0.00000000       0.10895125      -0.01183316       0.62952701
Pt       8.02766748       4.55996454       6.76931827        8       0.00000000      -0.13835871      -0.04836161      -0.33326056
Ni      10.49298009       4.54179185       6.82581975        8       1.00000000       0.07497090      -0.05481033      -0.30786884
Pt       3.97266047       6.92808501       6.72129353        7       0.00000000       0.10684670      -0.06869874       0.49069510
Pt       6.68440698       6.89942388       6.74548686        7       0.00000000      -0.01595937      -0.13440981       0.55689740
Ni       9.21370928       6.82188300       6.81239264        8       1.00000000       0.06309248      -0.02667949      -0.21091269
Pt      11.73963137       6.81938560       6.87699203        9       0.00000000      -0.03194361      -0.07781190      -0.08995414
