64
Lattice="10.273606030466725 0.005834284764535922 0.02295663149769978 5.14185565405236 8.823305986867005 -0.030348486964024778 0.018744011127489666 -0.03943468777816756 8.77077097414288" Properties=species:S:1:pos:R:3:tags:I:1:initial_magmoms:R:1:forces:R:3 unique_id=d39fad7f5c2a4914a4c74dfb6dde8f06 stress="0.00021493904091999388 2.949056166697458e-06 -1.525254133751615e-05 2.949056166697458e-06 0.0002251548794474506 2.8479332849816556e-05 -1.525254133751615e-05 2.8479332849816556e-05 0.00021307246499094323" energy=-395.10789776153894 pbc="T T T"
Ni       0.01381161      -0.00013156       0.17972988        4       1.00000000       0.04421495       0.06496410       0.37170672
Ni       2.54091009       0.01661971       0.20753048        4       1.00000000      -0.05082009       0.09737988       0.45291549
Pt       5.13058257      -0.04900117       0.14511586        4       0.00000000       0.00283326      -0.09710115       0.34925919
Ni       7.73219866      -0.05797624       0.20707131        4       1.00000000       0.01101059      -0.04392271       0.39310244
Ni       1.28713523       2.21112425       0.10234050        4       1.00000000       0.02103705       0.02986186       0.26134927
Pt       3.74575487       2.20990549       0.17712593        4       0.00000000      -0.06616241       0.07991976       0.17809912
Pt       6.44337272       2.18263899       0.11070016        4       0.00000000       0.04706606       0.03113283       0.00148529
Pt       9.09481178       2.20380182       0.13292208        4       0.00000000       0.08867854      -0.00768991       0.20207928
Ni       2.52836545       4.43950380       0.04510615        4       1.00000000      -0.03799056       0.02554104       0.00086632
Pt       5.05740665       4.47532823       0.08421925        4       0.00000000      -0.10606013       0.10129209      -0.05546728
Pt       7.75660383       4.46054911       0.01770341        4       0.00000000       0.07347691       0.08924636      -0.15986870
Ni      10.34089853       4.43992747       0.06325851        4       1.00000000       0.12694650       0.05712470       0.08088359
Ni       3.80295813       6.65108853       0.07844353        4       1.00000000      -0.07475798       0.07806133       0.15765646
Pt       6.41889207       6.72051716       0.07678385        4       0.00000000      -0.01000472       0.05618799      -0.21950185
Ni       9.02053296       6.61567949       0.05558960        4       1.00000000       0.05285604      -0.05466294       0.07455802
Ni      11.59982116       6.58503261       0.06292722        4       1.00000000       0.10205946      -0.06800447       0.05472374
Ni       1.31998277       0.73534347       2.22604579        3       1.00000000       0.03392485       0.02470326       0.19899822
Ni       3.81429613       0.76122452       2.26391327        3       1.00000000      -0.01690495       0.07308289       0.10015384
Ni       6.42907451       0.76693553       2.26439844        3       1.00000000      -0.06817125       0.05275576       0.11765926
Pt       9.01705010       0.71894976       2.27132077        3       0.00000000       0.06533181       0.16973141       0.01646595
Ni       2.56578957       2.90188013       2.27762159        3       1.00000000       0.05111918      -0.11762653       0.23859138
Ni       5.12032907       2.93644967       2.26320984        3       1.00000000      -0.16183520       0.01287167       0.00113625
Ni       7.68831773       2.92148815       2.26162503        3       1.00000000       0.01853815      -0.05659694      -0.01423445
Ni      10.33272583       2.91057393       2.27126378        3       1.00000000       0.12549927      -0.09710149       0.19265468
Ni       3.88196282       5.14422866       2.24202951        3       1.00000000       0.10091193      -0.00510295       0.20277897
Ni       6.38946659       5.15671548       2.23851846        3       1.00000000      -0.05050777       0.07659552      -0.02208889
Pt       8.95874252       5.09796104       2.28853147        3       0.00000000      -0.15501517      -0.17868010      -0.07330160
Pt      11.64992681       5.08102924       2.22695546        3       0.00000000       0.10015658      -0.14099649       0.14159928
Ni       5.16263601       7.31086429       2.19800973        3       1.00000000       0.06621700      -0.12033974       0.04162163
Ni       7.65925291       7.37292952       2.20159645        3       1.00000000      -0.13770773      -0.04368005       0.03294679
Pt      10.28406392       7.32242318       2.19790352        3       0.00000000       0.02143059       0.00989923      -0.23354212
Ni      12.89287866       7.31685711       2.16164768        3       1.00000000       0.10746127      -0.15954423       0.02234082
Ni       0.07115705       1.49002933       4.32502051        2       1.00000000       0.15151572       0.02423316      -0.01484992
Ni       2.53550192       1.49510903       4.30695846        2       1.00000000      -0.05820437       0.06607733      -0.05300483
Ni       5.13577230       1.48669550       4.30836408        2       1.00000000      -0.12652156       0.01551450      -0.15590415
Ni       7.70999141       1.48479832       4.34577476        2       1.00000000       0.01532897       0.00468519      -0.02588458
Ni       1.30082997       3.64519546       4.37464843        2       1.00000000       0.01843280      -0.02712799       0.02964015
Ni       3.83113107       3.69665050       4.30194854        2       1.00000000      -0.07918843       0.03396144      -0.18281156
Pt       6.42147395       3.67632294       4.33164290        2       0.00000000      -0.03351866      -0.04741720      -0.12017317
Ni       9.03369214       3.68454735       4.34520157        2       1.00000000       0.08735621      -0.07332103      -0.05738011
Ni       2.59895490       5.79152306       4.37390919        2       1.00000000       0.03769136      -0.14724239       0.00897117
Ni       5.15588810       5.84125225       4.34295528        2       1.00000000       0.03253559      -0.10839091      -0.15622440
Ni       7.69224035       5.85928697       4.37814835        2       1.00000000      -0.10468943       0.03956081      -0.10511584
Ni      10.28908342       5.80426979       4.42078785        2       1.00000000       0.05712908      -0.05806038       0.07088506
Pt       3.93561706       7.99139194       4.29384714        2       0.00000000       0.03529451      -0.14118860       0.20639533
Ni       6.43006171       8.05068844       4.28818541        2       1.00000000      -0.05023125      -0.00746205      -0.12541372
Pt       8.91075740       8.05680718       4.28166172        2       0.00000000      -0.03681987       0.06046452       0.11275937
Pt      11.60794275       8.04043364       4.28963683        2       0.00000000       0.04037229      -0.04701932       0.10564659
Pt       0.02865916      -0.06305542       6.53201216        1       0.00000000       0.04499938      -0.04117251       0.16505376
Pt       2.55645211      -0.05872159       6.54546889        1       0.00000000      -0.06974284      -0.03126582       0.22025748
Pt       5.14174560      -0.05152705       6.45925294        1       0.00000000       0.03858109       0.00563327      -0.40677933
Pt       7.71661496      -0.06333532       6.58056801        1       0.00000000      -0.08211713      -0.06112588       0.19949542
Ni       1.29513843       2.24135434       6.46019498        1       1.00000000      -0.01128890       0.16345169      -0.20257482
Pt       3.84424336       2.28865641       6.38930762        1       0.00000000      -0.03257173       0.21334992      -0.24097943
Ni       6.43390600       2.22397910       6.41851653        1       1.00000000      -0.02245460       0.09521210      -0.25065380
Pt       9.01873923       2.28575851       6.39027646        1       0.00000000      -0.01457668       0.15146362      -0.30710143
Ni       2.54979535       4.42669587       6.45030733        1       1.00000000      -0.10616920       0.08694232      -0.23686837
Ni       5.15176916       4.43449137       6.40193101        1       1.00000000      -0.03196553       0.13080917      -0.23850147
Ni       7.71494002       4.43723860       6.38575400        1       1.00000000      -0.00343960       0.12355000      -0.37829554
Ni      10.31793085       4.43167685       6.46847454        1       1.00000000       0.07131569       0.08375389      -0.18319941
Ni       3.86451034       6.50687614       6.46734617        1       1.00000000      -0.01381277      -0.19586130      -0.11901955
Ni       6.43556675       6.52739081       6.38084230        1       1.00000000      -0.03844319      -0.04790329      -0.30907052
Ni       9.00435601       6.51035229       6.47078428        1       1.00000000      -0.02758978      -0.13350757      -0.19853223
Ni      11.57334425       6.51286396       6.48881815        1       1.00000000      -0.01203918      -0.06989869      -0.15839328
