64
Lattice="10.560470487896046 0.011761756656656184 0.008216802920999917 5.290421224005813 9.157923827526496 -0.014462496398847047 0.006708991491153454 -0.01750881041208939 9.10521563348254" Properties=species:S:1:pos:R:3:tags:I:1:initial_magmoms:R:1:forces:R:3 unique_id=dfd694049de74063a15637ff3fddb4f9 stress="0.004880319234723263 1.8999295278530328e-05 -4.989363524092983e-06 1.8999295278530328e-05 0.00490118935447445 -3.1974868647229317e-06 -4.989363524092983e-06 -3.1974868647229317e-06 0.004003400122545936" energy=-413.9571165759125 pbc="T T T"
Pt       0.01096969       0.03441444      -0.00712914        4       0.00000000      -0.00634999      -0.00469406      -0.17701951
Ni       2.64505434       0.00897457       0.13572899        4       1.00000000      -0.02607117      -0.05755494       0.25997121
Pt       5.25595843       0.04648175       0.00798726        4       0.00000000      -0.02948094       0.06838350      -0.10517316
Pt       7.90148921       0.07885965       0.09701563        4       0.00000000       0.00935284       0.10208844      -0.02663602
Pt       1.32683894       2.27568973       0.00348106        4       0.00000000       0.03565862      -0.02283762      -0.16708636
Ni       3.96556448       2.28549071       0.14301566        4       1.00000000      -0.02428034       0.03398779       0.28408877
Ni       6.62648930       2.30690754       0.13538941        4       1.00000000       0.08137236       0.01460424       0.25079841
Ni       9.22513526       2.32946322       0.06990920        4       1.00000000      -0.03427924       0.05277209       0.08216380
Pt       2.62265404       4.58364970       0.11179918        4       0.00000000      -0.05396410       0.01353984      -0.03725216
Pt       5.35015770       4.50321678       0.10985446        4       0.00000000       0.04611547      -0.08885534      -0.02100239
Ni       7.93759875       4.55333180       0.13047257        4       1.00000000       0.02220488      -0.03014544       0.10620250
Pt      10.50601748       4.55629887       0.09908612        4       0.00000000      -0.06688513      -0.08190554      -0.01512338
Pt       3.94395024       6.86817130       0.08044879        4       0.00000000      -0.00018597      -0.00575614      -0.12013663
Pt       6.65164922       6.83924866       0.11100313        4       0.00000000       0.03324740      -0.07316755      -0.01347896
Pt       9.27124679       6.85557850       0.01623888        4       0.00000000       0.04542334      -0.00488950      -0.09994879
Ni      11.86879985       6.87418455       0.11872800        4       1.00000000      -0.05786180      -0.00261936       0.12379562
Pt       1.30361791       0.79337993       2.31365404        3       0.00000000       0.00292448       0.02737689       0.02384751
Pt       3.95391138       0.75215260       2.26681834        3       0.00000000       0.03551553      -0.06947849       0.12231991
Pt       6.61983668       0.78322515       2.35151920        3       0.00000000       0.00535117       0.00001966       0.09631578
Pt       9.26279776       0.87548404       2.34446151        3       0.00000000       0.05129545       0.13425920       0.01424573
Pt       2.59075756       3.08926672       2.32342367        3       0.00000000      -0.04104515      -0.01007785       0.05128331
Pt       5.32922840       3.07988356       2.34023289        3       0.00000000       0.03087392       0.00827408       0.18659074
Pt       7.98797713       3.16668752       2.31973259        3       0.00000000       0.02205141       0.05515398       0.06700965
Ni      10.54902555       3.11190335       2.31180853        3       1.00000000      -0.01980206       0.10506536       0.02833283
Pt       3.96545626       5.31258045       2.33796491        3       0.00000000      -0.01301211       0.03254149       0.01932247
Ni       6.66158264       5.31998722       2.30583168        3       1.00000000       0.08538327      -0.01952697       0.06461065
Ni       9.26086984       5.31489386       2.33230941        3       1.00000000       0.10016354      -0.02444934       0.16580287
Ni      11.82651094       5.31891470       2.29576113        3       1.00000000      -0.13130800      -0.08685535       0.03977453
Pt       5.29450437       7.61597276       2.30446382        3       0.00000000      -0.01451355       0.05743193      -0.01365609
Pt       7.95875595       7.52770377       2.33983105        3       0.00000000       0.02670597      -0.11273372       0.10736306
Pt      10.57785826       7.52582024       2.34041124        3       0.00000000       0.00290844      -0.05108719       0.06066816
Pt      13.16426134       7.61289951       2.29788612        3       0.00000000       0.00932107       0.00460883      -0.01332485
Ni      -0.04821375       1.56400699       4.57774133        2       1.00000000      -0.13847176       0.08458923      -0.00723955
Pt       2.62248096       1.56824231       4.55895233        2       0.00000000       0.01571007       0.05624934       0.05582801
Pt       5.35156549       1.53913408       4.56331928        2       0.00000000       0.04661489       0.03461588       0.09660896
Ni       7.96319591       1.58821344       4.54513142        2       1.00000000       0.07463864       0.21150573       0.00361643
Pt       1.16486534       3.80947063       4.51577886        2       0.00000000      -0.19124665      -0.00829786      -0.08067367
Ni       3.97149946       3.79713626       4.53439346        2       1.00000000      -0.04405720      -0.01086252       0.00248510
Ni       6.67293178       3.81113005       4.51343339        2       1.00000000       0.20982886      -0.01836261      -0.02113372
Ni       9.22629505       3.81787960       4.52082192        2       1.00000000      -0.11517728       0.00406445      -0.08685521
Pt       2.55974677       6.09145789       4.48925756        2       0.00000000      -0.13629917      -0.01721310      -0.06721789
Pt       5.36835331       6.01417597       4.47146828        2       0.00000000       0.09151441      -0.03778381      -0.10471873
Ni       7.97978806       6.03370052       4.50776270        2       1.00000000       0.12348850      -0.19657611      -0.11415732
Ni      10.52114080       6.06608518       4.52606605        2       1.00000000      -0.18654890      -0.12447741      -0.05317814
Pt       3.95210444       8.46923000       4.51269020        2       0.00000000      -0.00538704       0.01176864      -0.13483431
Pt       6.61384663       8.40906753       4.53617675        2       0.00000000       0.02876363       0.03779889      -0.01329191
Pt       9.31212037       8.30253771       4.59255218        2       0.00000000      -0.01739086       0.00447891       0.01990939
Ni      11.88565648       8.39392346       4.54574278        2       1.00000000       0.01214561      -0.00074059      -0.03053227
Ni       0.00833525       0.04419235       6.66696788        1       1.00000000      -0.00216819       0.12397452      -0.24924732
Pt       2.64275475      -0.00127948       6.81298721        1       0.00000000      -0.02691113       0.02440781       0.16622144
Ni       5.28641045      -0.01416741       6.68433738        1       1.00000000       0.05264134       0.04992127      -0.16906989
Pt       7.92570002       0.04602703       6.67588889        1       0.00000000      -0.01119469       0.01821457      -0.03208043
Ni       1.25710184       2.26713963       6.66903771        1       1.00000000      -0.19467905      -0.01111519      -0.23868530
Pt       3.95859856       2.25122333       6.80074775        1       0.00000000       0.03104308       0.01971048       0.19294283
Pt       6.67173050       2.28453073       6.77455912        1       0.00000000       0.13897193       0.08664130       0.15431561
Ni       9.29239533       2.28380837       6.72608341        1       1.00000000       0.13166310      -0.00338767      -0.20380385
Pt       2.57558667       4.52759948       6.67851638        1       0.00000000      -0.08243296      -0.04556272      -0.04862906
Pt       5.30864984       4.54159114       6.66647011        1       0.00000000       0.01959509      -0.02302354      -0.03506757
Pt       8.05138139       4.55873089       6.70426300        1       0.00000000       0.11359900      -0.02278865       0.01690786
Ni      10.55121030       4.55533655       6.68829021        1       1.00000000      -0.00829114      -0.03936775      -0.10813130
Pt       3.97401265       6.88941824       6.67453859        1       0.00000000       0.00016055      -0.01166432      -0.09244070
Pt       6.66982616       6.85809494       6.68493193        1       0.00000000       0.07688839      -0.06599271      -0.01265508
Ni       9.26403171       6.84047094       6.67123972        1       1.00000000      -0.03676082      -0.09824415      -0.18765381
Pt      11.77247359       6.87511240       6.73814150        1       0.00000000      -0.09707988       0.00404680       0.03779214
