64
Lattice="10.328334421643877 -0.011563601850640771 0.004523654869290694 5.154152837860036 8.89440899636903 -0.004902065140103676 0.003693548734072907 -0.006754182692395925 8.796421367771622" Properties=species:S:1:pos:R:3:tags:I:1:initial_magmoms:R:1:forces:R:3 unique_id=e7c1b38c2d694774bba255a722d1d449 stress="0.00024607484339319446 5.241555465275443e-06 -2.1068181336042555e-05 5.241555465275443e-06 0.000253468879377855 1.5422221548891584e-05 -2.1068181336042555e-05 1.5422221548891584e-05 0.0002437498720157319" energy=-398.1976727597539 pbc="T T T"
Ni      -0.02150413       0.03231381       0.20837010        4       1.00000000      -0.07586811       0.13603809       0.31849583
Ni       2.57739882       0.00352283       0.21424302        4       1.00000000      -0.03606524       0.03573309       0.42234709
Ni       5.16205707      -0.01585508       0.16501244        4       1.00000000      -0.01910329       0.14399129       0.29333412
Ni       7.77218054      -0.04049229       0.11946492        4       1.00000000       0.10582464      -0.06902279       0.23877428
Ni       1.25095302       2.22486245       0.19172546        4       1.00000000      -0.16636259       0.00020371       0.32337169
Pt       3.80771741       2.22375944       0.11448539        4       0.00000000      -0.06182010       0.04011686      -0.14713578
Pt       6.48511378       2.16046158       0.19911041        4       0.00000000       0.10242790      -0.08599669       0.19871122
Ni       9.07434816       2.19035475       0.18269331        4       1.00000000       0.11069802      -0.08317353       0.24174548
Ni       2.55551025       4.45885641       0.05907426        4       1.00000000      -0.06358509       0.00383224      -0.07476569
Ni       5.15305190       4.44626095       0.15825041        4       1.00000000       0.17747738      -0.08864029       0.20705656
Pt       7.81821969       4.44896981       0.11097167        4       0.00000000       0.14910986      -0.02851919      -0.10887813
Ni      10.34603177       4.43136399       0.07603166        4       1.00000000       0.06411468      -0.10172941       0.08969552
Ni       3.83156769       6.70201533       0.17240911        4       1.00000000      -0.04944544       0.15656984       0.21194991
Pt       6.42621873       6.72023184       0.19933499        4       0.00000000      -0.05663616       0.05050893       0.16452907
Ni       9.05141665       6.67672527       0.07737681        4       1.00000000      -0.00133860       0.02129651       0.05350846
Ni      11.62705910       6.66846445       0.06278133        4       1.00000000       0.11377887       0.01972729       0.00449981
Ni       1.26676980       0.76346295       2.16419428        3       1.00000000      -0.11728410       0.13287112      -0.01631186
Ni       3.86329307       0.75858785       2.20297469        3       1.00000000       0.04478836       0.05227468       0.02587370
Ni       6.48692945       0.74171328       2.24389888        3       1.00000000       0.12287603       0.05859427       0.13967061
Ni       9.03954700       0.75757785       2.18760414        3       1.00000000      -0.03905301       0.13680289      -0.00203440
Ni       2.55827954       2.93959088       2.20312184        3       1.00000000      -0.10691252       0.02148394      -0.07095524
Ni       5.15623797       2.93195798       2.23867046        3       1.00000000      -0.08386963      -0.15177229       0.02403896
Ni       7.79668495       2.93645943       2.23865090        3       1.00000000       0.26581124      -0.10362687      -0.06771849
Ni      10.30248330       2.91117907       2.21449633        3       1.00000000      -0.06656675      -0.08785010       0.10355719
Pt       3.87703154       5.16221530       2.15869819        3       0.00000000      -0.06051051      -0.07257419       0.01243994
Ni       6.48851663       5.16985020       2.21714505        3       1.00000000       0.12222109       0.00557370      -0.07295377
Ni       9.00873155       5.15452347       2.23655883        3       1.00000000      -0.04071858      -0.10151848       0.14104741
Pt      11.59022921       5.10980481       2.17367137        3       0.00000000      -0.08400430      -0.11311869      -0.03450053
Ni       5.13459125       7.45795570       2.18085649        3       1.00000000      -0.13075060       0.09562465      -0.07681535
Ni       7.74020642       7.41007418       2.20316385        3       1.00000000       0.03317301      -0.06603425      -0.01188580
Pt      10.30487415       7.42021139       2.11298221        3       0.00000000       0.03543082      -0.12038072      -0.03410187
Ni      12.91608140       7.43487860       2.16371791        3       1.00000000      -0.05327376       0.02235713      -0.06925620
Ni      -0.01922488       1.55005504       4.31449531        2       1.00000000       0.01315023       0.19941569      -0.19708680
Pt       2.59433136       1.58189171       4.27829877        2       0.00000000      -0.06138835       0.03766764      -0.02862439
Ni       5.15985294       1.50113981       4.32639897        2       1.00000000       0.01124928       0.03010171      -0.19904520
Ni       7.77485352       1.49282798       4.31522580        2       1.00000000       0.11166421       0.05410046      -0.23321874
Ni       1.28574637       3.71051584       4.35935258        2       1.00000000      -0.02257039      -0.04480487      -0.15780726
Ni       3.84567998       3.70288164       4.36380460        2       1.00000000      -0.00257421       0.07081354      -0.15883388
Pt       6.51174777       3.66191955       4.25807117        2       0.00000000      -0.00765725      -0.08376947       0.02028021
Ni       9.05089784       3.66744265       4.33594341        2       1.00000000       0.09375674      -0.12660959      -0.28767306
Ni       2.55393274       5.87344138       4.37853711        2       1.00000000      -0.03764187      -0.07033269      -0.13048796
Pt       5.13931345       5.89101726       4.30206530        2       0.00000000       0.04216696       0.05721959       0.05206896
Ni       7.77271125       5.87659132       4.33484539        2       1.00000000       0.01054635      -0.05352532      -0.23396301
Pt      10.31331817       5.82130259       4.43152175        2       0.00000000      -0.03491461      -0.01691483      -0.09813977
Pt       3.84712316       8.21347785       4.26748330        2       0.00000000      -0.01206143       0.07153894      -0.02956545
Pt       6.44129308       8.18517236       4.24451829        2       0.00000000      -0.00265949       0.09069936       0.01750085
Pt       9.02519050       8.13329063       4.31656769        2       0.00000000      -0.06291496       0.06452136       0.08638888
Pt      11.64061827       8.17025760       4.34149942        2       0.00000000       0.05259986       0.00012963      -0.04006498
Pt      -0.03241593       0.00841514       6.58570923        1       0.00000000      -0.02053679       0.02956127       0.18637737
Pt       2.62133846       0.01064672       6.60940477        1       0.00000000       0.01489964       0.05019045       0.23931347
Pt       5.20922597      -0.08073871       6.59326676        1       0.00000000       0.03004736      -0.25742250       0.13532516
Ni       7.73996981      -0.02229130       6.54429206        1       1.00000000       0.04715330       0.03854251      -0.11666223
Pt       1.32085774       2.33600345       6.55203180        1       0.00000000       0.04498336       0.09380049       0.20213456
Ni       3.86933431       2.23120059       6.44933935        1       1.00000000       0.01656887      -0.07090876      -0.30629886
Pt       6.45851881       2.18020655       6.46134139        1       0.00000000      -0.01053368      -0.01878327      -0.23831106
Pt       9.03248499       2.28253057       6.50685945        1       0.00000000       0.04533045       0.09247411       0.06168257
Ni       2.54123280       4.45963673       6.50092626        1       1.00000000      -0.13959553       0.11577564      -0.30323554
Pt       5.09512318       4.38446547       6.55424927        1       0.00000000      -0.12009160      -0.02412590       0.03911850
Ni       7.79196941       4.45279142       6.44180508        1       1.00000000       0.06920419       0.02103396      -0.32470018
Ni      10.32885334       4.47656467       6.53451523        1       1.00000000      -0.00997769       0.08680387      -0.03340346
Pt       3.74104403       6.65076793       6.57278868        1       0.00000000      -0.11409272       0.06733098       0.12224450
Pt       6.52282625       6.60003992       6.48580105        1       0.00000000       0.02439712      -0.03605190      -0.21994019
Ni       9.06674817       6.60110819       6.53407081        1       1.00000000       0.00672252      -0.13025726      -0.11759487
Ni      11.59262620       6.60739404       6.53865200        1       1.00000000      -0.10979339      -0.19785759      -0.13511189
