64
Lattice="10.64523881024 0.004945562232153416 0.014396880557389776 5.3269023876490404 9.205584206484202 -0.039214473910749094 0.011755003751133652 -0.04375851514398034 9.160738650592268" Properties=species:S:1:pos:R:3:tags:I:1:initial_magmoms:R:1:forces:R:3 unique_id=3e8f9ca9348449368ae4d513c4aff535 stress="0.005621256806408702 4.310102192051836e-06 -3.85257387486755e-06 4.310102192051836e-06 0.005700322744220172 1.9871738916003715e-05 -3.85257387486755e-06 1.9871738916003715e-05 0.004524667100007179" energy=-417.29250246102333 pbc="T T T"
Ni      -0.01662058       0.04735632       0.12608854        4       1.00000000      -0.01193809       0.10203032       0.07635075
Pt       2.56467102       0.04659944       0.12654245        4       0.00000000      -0.09075009       0.01253882       0.06526858
Pt       5.34887196      -0.00806055       0.00930955        4       0.00000000      -0.03173668      -0.04578469      -0.13038734
Ni       8.01568461       0.01378140       0.12377437        4       1.00000000       0.04169531      -0.02757510       0.13636165
Ni       1.28878741       2.27579959       0.12193955        4       1.00000000      -0.11360449      -0.07522678       0.20278649
Pt       3.95675165       2.29208901       0.09670880        4       0.00000000       0.02317184      -0.01883055       0.02978131
Pt       6.73940910       2.25207169       0.09551044        4       0.00000000       0.09621773      -0.08072052       0.04255471
Ni       9.34998657       2.26464700       0.05219997        4       1.00000000       0.10389237      -0.10320007       0.04672991
Pt       2.62768513       4.58437039       0.01010724        4       0.00000000      -0.00529595       0.00161452      -0.11529909
Pt       5.32184142       4.60525886       0.08520338        4       0.00000000       0.00317415      -0.00578983       0.03656046
Pt       8.02292911       4.56403497      -0.01716205        4       0.00000000       0.02869027      -0.05160754      -0.14779794
Pt      10.65301660       4.52056651      -0.01101272        4       0.00000000      -0.00592132      -0.10540892      -0.16735761
Pt       3.98722726       6.99457635       0.06201217        4       0.00000000      -0.01630400       0.12268364       0.02247193
Pt       6.64409813       6.93949560       0.05764359        4       0.00000000       0.00456926      -0.00471484      -0.01839866
Pt       9.32067778       6.90058634      -0.03858091        4       0.00000000      -0.00115744      -0.03966248      -0.10119748
Pt      11.99572984       6.91340017      -0.01095231        4       0.00000000      -0.00744940      -0.03127430      -0.09699826
Ni       1.31629916       0.76536131       2.28806034        3       1.00000000      -0.02771350       0.05290886       0.07503677
Pt       3.96371980       0.74651444       2.33684999        3       0.00000000       0.04020030      -0.05101704       0.04363442
Pt       6.67786422       0.72198258       2.32923719        3       0.00000000      -0.02832260      -0.05359036       0.05451642
Pt       9.35962848       0.76134220       2.24124142        3       0.00000000      -0.03125374       0.04346827      -0.03146064
Pt       2.59289302       3.06758384       2.31718755        3       0.00000000       0.00614132       0.02113957       0.04973399
Pt       5.32052582       3.06016649       2.34483568        3       0.00000000       0.00431301       0.01949669       0.15171877
Pt       8.04369575       3.05651758       2.33311561        3       0.00000000       0.02917174       0.03620143       0.06539645
Pt      10.67887811       3.06080496       2.32132252        3       0.00000000      -0.00561045       0.08189582       0.09374487
Pt       3.92648093       5.37727000       2.33401635        3       0.00000000      -0.03535967       0.01469822       0.00807975
Pt       6.67873889       5.37778248       2.33903624        3       0.00000000       0.03610223       0.01151980       0.01647204
Pt       9.36446629       5.35471072       2.38571507        3       0.00000000       0.01175064      -0.00445191       0.07257390
Ni      11.97814698       5.35518096       2.33504867        3       1.00000000      -0.02007602      -0.02394699       0.10326340
Pt       5.34248363       7.73227529       2.32960998        3       0.00000000       0.01864905       0.04228553       0.05292880
Pt       7.97268653       7.68124368       2.37382249        3       0.00000000       0.03698799      -0.02287181       0.10815926
Pt      10.68013473       7.62027759       2.35212084        3       0.00000000       0.03572592      -0.05305598       0.03183296
Pt      13.30184442       7.64741890       2.39868157        3       0.00000000       0.00427992      -0.01039672       0.19214278
Pt      -0.00118560       1.53067962       4.54386854        2       0.00000000       0.00011233       0.00539591      -0.00433717
Pt       2.60177007       1.49812207       4.52498783        2       0.00000000      -0.02775031      -0.03780544       0.00929038
Pt       5.35121623       1.46299789       4.59117849        2       0.00000000       0.02818437      -0.01348522       0.01757664
Pt       8.04772746       1.47307923       4.57503006        2       0.00000000       0.03288619      -0.06907875      -0.01536624
Ni       1.31268508       3.84463546       4.56659177        2       1.00000000      -0.05304006      -0.03224730      -0.02155547
Pt       3.90698162       3.87439280       4.57706746        2       0.00000000      -0.07528620       0.04616831       0.01103628
Pt       6.75230165       3.86849228       4.58268739        2       0.00000000       0.06335145       0.04528491      -0.01641190
Ni       9.35206937       3.83195543       4.61532258        2       1.00000000       0.10505760      -0.04642515       0.07559080
Ni       2.62122424       6.13126476       4.55439502        2       1.00000000      -0.10020983       0.01786532      -0.02547146
Pt       5.32251407       6.19936839       4.51751501        2       0.00000000      -0.02763069       0.05070989      -0.02265883
Ni       8.03074252       6.10817458       4.57441819        2       1.00000000       0.15049652      -0.05660178      -0.01655675
Pt      10.71181620       6.04666398       4.64245373        2       0.00000000       0.06601293      -0.06963711      -0.07600238
Ni       3.98191060       8.40909017       4.53185387        2       1.00000000      -0.03365714       0.04234430       0.03280484
Ni       6.65180084       8.42010965       4.53308523        2       1.00000000      -0.02988174       0.06312950       0.04002594
Pt       9.34022253       8.33463577       4.59286903        2       0.00000000       0.05883457      -0.06251294       0.03658916
Ni      12.01279167       8.37456082       4.58030859        2       1.00000000       0.05086020      -0.11395591       0.07392187
Pt      -0.02096493      -0.00663171       6.79411037        1       0.00000000      -0.07654356       0.02439176       0.00714505
Pt       2.69410112      -0.04686576       6.75369297        1       0.00000000      -0.06885943       0.08253423       0.04390364
Ni       5.34506271      -0.07563843       6.72705028        1       1.00000000       0.02841672      -0.11134446      -0.21112423
Pt       7.93389773      -0.05623370       6.80706854        1       0.00000000      -0.10397705      -0.02455877       0.08067113
Pt       1.27499252       2.37868748       6.81875468        1       0.00000000      -0.09462772       0.13780120       0.11756690
Pt       3.98695508       2.27326029       6.74589970        1       0.00000000      -0.02951775       0.04417183       0.01978413
Pt       6.72946519       2.28870790       6.75743542        1       0.00000000       0.08110989       0.10657572       0.04716996
Ni       9.32613764       2.30904861       6.80335173        1       1.00000000      -0.00947516       0.09582190      -0.14075268
Ni       2.61892377       4.59758295       6.70001579        1       1.00000000      -0.19782637       0.11423805      -0.22236415
Pt       5.33503902       4.58867257       6.72822290        1       0.00000000       0.00280188       0.06124484       0.02246053
Ni       8.06179746       4.58051752       6.69521771        1       1.00000000       0.23983371       0.05029726      -0.24937721
Ni      10.63822320       4.58643722       6.69827617        1       1.00000000      -0.08299586       0.01419243      -0.18179871
Pt       3.91331708       6.85200947       6.67389101        1       0.00000000      -0.09802116      -0.00889909      -0.01324698
Pt       6.74833088       6.84370917       6.67301932        1       0.00000000       0.09637941       0.00735250      -0.05303698
Ni       9.35576367       6.84448257       6.68940297        1       1.00000000       0.07139381      -0.10785874      -0.15671633
Ni      11.96425390       6.86587177       6.68697159        1       1.00000000      -0.05867117      -0.00846429      -0.17796311
