64
Lattice="10.460803699839422 0.004402012274021395 0.051013634731981526 5.234214104376779 9.093928072294467 0.0037377938943914998 0.0 0.0 21.749831272347162" Properties=species:S:1:pos:R:3:tags:I:1:initial_magmoms:R:1:forces:R:3 unique_id=ec7ccfedce264b40a23a5c7fbe507956 stress="0.005661853489328376 -8.09001812829304e-06 0.00018229467201992945 -8.09001812829304e-06 0.005670381702655845 -0.00023764335641838 0.00018229467201992945 -0.00023764335641838 -0.002323281394370741" energy=-384.7046250788798 pbc="T T T"
Pt      -0.10729386      -0.02611462       0.00000000        0       0.00000000      -0.11746355      -0.09262916       0.09005891
Ni       2.64908710      -0.03507568       0.02947986        0       1.00000000       0.07889217      -0.05242456       0.35193343
Ni       5.25521683      -0.04898357       0.11666368        1       1.00000000       0.12577720       0.01648358      -0.07713327
Ni       7.83429899      -0.03912786       0.09093852        1       1.00000000      -0.13918345      -0.12624592       0.51105556
Pt       1.26120132       2.26790757       0.05297725        1       0.00000000       0.00380348       0.04064715      -1.08144148
Pt       3.95922197       2.20648943       0.07581344        1       0.00000000       0.22906210       0.16670882      -0.94040754
Pt       6.63030989       2.18777893       0.10887414        1       0.00000000      -0.18028225      -0.14813867      -0.14811168
Ni       9.14399640       2.28807705       0.05724212        1       1.00000000       0.05016598      -0.02076979       0.32313151
Pt       2.57810005       4.63624453       0.04927547        0       0.00000000       0.06337774      -0.01202868      -1.05829864
Pt       5.31525488       4.54819830       0.11858889        1       0.00000000       0.21611658      -0.20273718      -0.56514931
Ni       7.91238058       4.55424158       0.12883015        1       1.00000000       0.08834744       0.03610595       0.32870098
Ni      10.40394602       4.58757090       0.05459575        1       1.00000000      -0.05240045       0.08628941       0.38548930
Ni       3.90543285       6.85803302       0.11947224        1       1.00000000      -0.05570949       0.06482845      -0.04529080
Pt       6.63126826       6.83674620       0.17123680        2       0.00000000       0.01451595      -0.01643706      -0.23438028
Ni       9.18457246       6.80831131       0.05805436        1       1.00000000       0.03740135      -0.07085479       0.51193866
Ni      11.76598466       6.86591183       0.13229076        1       1.00000000       0.10468086       0.05680210      -0.02148795
Pt       1.28478540       0.65261599       2.19584775        3       0.00000000       0.00958789      -0.14306924       0.16963209
Pt       4.00456854       0.72803445       2.25026707        4       0.00000000       0.01544544      -0.08747224       0.21822828
Ni       6.59276879       0.74420293       2.25559301        4       1.00000000       0.08554095      -0.04047969       0.16692379
Ni       9.10079344       0.73318546       2.24280252        3       1.00000000      -0.12571814       0.01275841       0.03769302
Pt       2.64198219       3.04077780       2.23636632        3       0.00000000      -0.02493943       0.06838245       0.41650270
Ni       5.28757991       3.01525772       2.26542220        4       1.00000000       0.01226989      -0.00729743       0.34641781
Pt       7.79625999       3.04854795       2.32703889        4       0.00000000      -0.02698062       0.05009288       0.11611727
Pt      10.36537880       3.04999995       2.23440866        3       0.00000000      -0.18100391       0.01368029       0.11087995
Pt       3.99226869       5.39705330       2.20851925        3       0.00000000       0.03981645       0.15698607       0.21909498
Ni       6.61953107       5.31209095       2.26122157        4       1.00000000       0.13542285       0.01092974       0.30434395
Ni       9.10739615       5.33024656       2.25187160        4       1.00000000      -0.13099588       0.06279887       0.12125310
Pt      11.70415946       5.35467086       2.24876482        3       0.00000000      -0.15086242      -0.01501136       0.20346966
Ni       5.23016784       7.57924334       2.20407918        3       1.00000000      -0.03811464       0.05451286       0.23620793
Ni       7.87583057       7.51514633       2.25078979        4       1.00000000       0.09114332      -0.08335412       0.25430581
Pt      10.45484772       7.56403722       2.16962338        3       0.00000000      -0.10172474       0.03995243       0.12953400
Ni      13.10326393       7.64615298       2.20667016        3       1.00000000      -0.00388638       0.13424912       0.02879073
Pt      -0.11677897       1.54877762       4.44101753        5       0.00000000      -0.24950766       0.04778569      -0.26153459
Pt       2.65047917       1.47378172       4.44060160        5       0.00000000      -0.01039606      -0.05532334      -0.28920155
Ni       5.31265048       1.52156261       4.41807285        5       1.00000000       0.06275841       0.04295946      -0.37408312
Ni       7.83890522       1.54449893       4.43948407        5       1.00000000      -0.06306172       0.03837509      -0.21148089
Pt       1.20797475       3.83165778       4.44712690        5       0.00000000      -0.14961061       0.10195641      -0.21211099
Pt       4.04594352       3.73784340       4.38812875        5       0.00000000       0.08844007       0.00263773      -0.34108063
Ni       6.62411480       3.76079468       4.44152745        5       1.00000000       0.09368775       0.03437831      -0.22685593
Ni       9.11591102       3.82215531       4.46975838        6       1.00000000      -0.15038713       0.03958452      -0.17819743
Pt       2.60356726       6.09203938       4.40246557        5       0.00000000      -0.00190258       0.03380672      -0.22399025
Pt       5.36436926       6.02762802       4.37787180        5       0.00000000       0.05477667      -0.05476444      -0.25436007
Ni       7.92141338       5.99274327       4.42336958        5       1.00000000       0.09783501      -0.15799598      -0.27034030
Ni      10.41205114       6.03412064       4.50345466        6       1.00000000      -0.07808809      -0.03052625      -0.05570091
Pt       3.92257247       8.36463236       4.37094094        5       0.00000000       0.00409568      -0.00583418      -0.22668131
Pt       6.57247525       8.30490697       4.43220459        5       0.00000000      -0.06122393       0.12706372      -0.19701798
Pt       9.18078921       8.22496299       4.48660479        6       0.00000000      -0.00980828      -0.09090528      -0.05286295
Pt      11.78299141       8.41542149       4.42279081        5       0.00000000      -0.07001132       0.07974916      -0.13817731
Ni       0.00296915       0.00845565       6.59183132        7       1.00000000      -0.07189842      -0.01948989      -0.02441088
Ni       2.63750070      -0.02495117       6.68079958        8       1.00000000      -0.03346942       0.08532747      -0.16496589
Pt       5.22751180      -0.04763179       6.74404422        8       0.00000000       0.04419429       0.16598736      -0.00864547
Ni       7.89986834       0.01053610       6.69710373        8       1.00000000       0.02194264       0.01108952      -0.42307337
Pt       1.23771150       2.21039598       6.61557580        7       0.00000000       0.06401870       0.00846984       0.88824778
Pt       3.94901977       2.21206106       6.60965877        7       0.00000000       0.12213382      -0.02735595       0.92938293
Pt       6.65723647       2.21327869       6.56490352        7       0.00000000      -0.09991572       0.01764027       0.25462401
Ni       9.17987233       2.24561848       6.69948880        8       1.00000000      -0.02615914      -0.03767807      -0.32439940
Pt       2.60433862       4.52911926       6.60270437        7       0.00000000       0.08329113      -0.08949648       0.96583607
Pt       5.31652808       4.53988986       6.61826905        7       0.00000000       0.20974656       0.03192268       0.66763007
Pt       8.00064336       4.53891160       6.65566696        8       0.00000000      -0.17859203      -0.00633732      -0.33517903
Ni      10.46248803       4.54170643       6.69611231        8       1.00000000       0.09669221      -0.02672186      -0.22802636
Pt       3.95023804       6.90194159       6.72257428        8       0.00000000       0.13314636      -0.05142673      -0.02241517
Pt       6.65918022       6.87115686       6.65490307        8       0.00000000      -0.02732191      -0.13530045       0.30411855
Ni       9.18911386       6.79329269       6.68346823        8       1.00000000       0.08055497       0.00076352      -0.24392893
Pt      11.71873220       6.79427637       6.74983127        8       0.00000000      -0.04806255      -0.03359995      -0.13112119
