64
Lattice="10.27511737154841 -0.02584176064138143 0.041984215896250524 5.115179064580253 8.835161932289177 0.020431618571607524 0.0 0.0 21.553109422004354" Properties=species:S:1:pos:R:3:tags:I:1:initial_magmoms:R:1:forces:R:3 unique_id=98772bee195847fcb404e3fe233301db stress="0.005854787252709609 -1.1548239980060707e-05 0.00021801800807427456 -1.1548239980060707e-05 0.005128289982170031 0.0001725853591788982 0.00021801800807427456 0.0001725853591788982 -0.0011604159750284396" energy=-373.9786136551001 pbc="T T T"
Ni       0.02506912      -0.01294117       0.08988369        1       1.00000000       0.14388471      -0.03935427      -0.15458384
Ni       2.53801215      -0.00251104       0.13673392        1       1.00000000      -0.03891824       0.01381573      -0.07502379
Pt       5.13921057      -0.04440840       0.08322317        1       0.00000000      -0.04490794       0.18238680      -0.92485339
Ni       7.73182041      -0.06892624       0.13860793        1       1.00000000      -0.06469661      -0.03655080      -0.31916508
Ni       1.28332287       2.21850996       0.03333593        0       1.00000000      -0.02049926       0.07520824       0.37387908
Pt       3.77706385       2.26142562       0.12413448        1       0.00000000       0.05492786      -0.00481056      -0.45411978
Pt       6.43441477       2.26552260       0.06114406        1       0.00000000       0.02279373      -0.00953823      -0.03567774
Pt       9.06154390       2.24791695       0.09517967        1       0.00000000       0.01122779       0.15599986      -0.62885983
Ni       2.55188548       4.45260494       0.00000000        0       1.00000000       0.05184698       0.03985065       0.32316758
Ni       5.10697517       4.44589985       0.04671147        0       1.00000000      -0.12760471       0.12838828       0.37350719
Ni       7.71948937       4.43693684       0.06326741        1       1.00000000       0.11413826       0.08173461       0.35594681
Ni      10.28906282       4.43030026       0.04095915        0       1.00000000       0.03697214       0.08596717       0.35483350
Ni       3.80952787       6.61426834       0.04148917        0       1.00000000       0.04312976      -0.04443880       0.43925777
Pt       6.39909624       6.60862677       0.12684147        1       0.00000000      -0.04460366       0.05630770      -0.29262651
Ni       8.97249274       6.56441607       0.11904284        1       1.00000000      -0.10715913      -0.10037491      -0.17769652
Ni      11.58213531       6.57143528       0.04080767        0       1.00000000       0.04537193       0.03982229       0.24597779
Ni       1.30951738       0.73165124       2.11962700        2       1.00000000       0.06240617       0.00282004       0.05760163
Ni       3.83554636       0.74877373       2.16456480        3       1.00000000       0.03511765      -0.01338612       0.19565587
Ni       6.41832679       0.75475263       2.17495794        3       1.00000000      -0.08568981       0.09724237       0.22286992
Pt       9.04380302       0.68395239       2.16375463        3       0.00000000       0.10557698       0.02047352      -0.06527410
Ni       2.55789906       2.95131848       2.16913729        3       1.00000000       0.03082809       0.05097397       0.03976853
Ni       5.12536183       2.96860633       2.19589101        3       1.00000000      -0.07574197       0.07865109       0.18424846
Ni       7.70678741       2.99364014       2.17880994        3       1.00000000       0.02987905       0.14911631       0.12450177
Ni      10.29736353       2.92916876       2.22065155        3       1.00000000       0.02528196      -0.06069579       0.26843876
Ni       3.88325912       5.14589904       2.14865786        2       1.00000000       0.12748315      -0.05422839       0.04883556
Ni       6.41571953       5.13795030       2.17744644        3       1.00000000      -0.02449080      -0.00752996       0.05853631
Ni       8.94199260       5.09768659       2.17507569        3       1.00000000      -0.11502903      -0.21106277       0.10961718
Pt      11.59637384       5.06667821       2.18575917        3       0.00000000       0.12158414      -0.10832041       0.08315867
Ni       5.14364846       7.31963127       2.16699261        3       1.00000000       0.06815578      -0.19805052       0.13489878
Ni       7.65461441       7.34513026       2.17713647        3       1.00000000      -0.12598428      -0.04403690       0.21796685
Pt      10.23769814       7.27349782       2.16442662        3       0.00000000      -0.04639591      -0.18348795      -0.13551540
Ni      12.86918375       7.29916784       2.13715339        2       1.00000000       0.11601253      -0.17884399      -0.00289011
Ni       0.03739691       1.51815176       4.26483580        5       1.00000000      -0.05337741       0.05885821      -0.20147641
Pt       2.52227711       1.54353946       4.20221579        4       0.00000000      -0.05214124       0.02103332       0.04785545
Ni       5.13550648       1.49570426       4.26224796        5       1.00000000      -0.13273963       0.00211292      -0.42316469
Pt       7.71193301       1.50504166       4.27103537        5       0.00000000      -0.02596258      -0.04797022      -0.09072281
Ni       1.27121860       3.71534373       4.32466640        5       1.00000000      -0.05173874       0.01652264      -0.00943798
Ni       3.84037806       3.74732114       4.26701156        5       1.00000000      -0.09732949       0.11092857      -0.29210673
Pt       6.38860449       3.74777468       4.29459073        5       0.00000000      -0.03345009       0.02151549       0.00444145
Ni       9.04058556       3.72983395       4.28594405        5       1.00000000       0.00931378       0.10617051      -0.27418645
Ni       2.58360912       5.81255820       4.33128818        5       1.00000000       0.01388986      -0.16715150      -0.07765845
Ni       5.11214162       5.85431205       4.26812414        5       1.00000000      -0.03993096      -0.08433760      -0.31276968
Ni       7.71298184       5.84869951       4.26668387        5       1.00000000       0.02399247      -0.03274612      -0.37835830
Ni      10.28699695       5.78863596       4.34239069        5       1.00000000       0.01321282      -0.07531650      -0.09209965
Pt       3.92180656       8.00071632       4.26534787        5       0.00000000       0.07240919      -0.08093530       0.07451582
Ni       6.41272362       8.06708367       4.25364670        5       1.00000000      -0.05980830      -0.06150336      -0.36950272
Pt       8.90752931       8.05209810       4.26216293        5       0.00000000      -0.07605209       0.02540867      -0.04471894
Pt      11.57833718       7.99358849       4.27837124        5       0.00000000      -0.06084335      -0.19358052      -0.04747847
Pt       0.02325402       0.01719866       6.47236782        7       0.00000000       0.01991595       0.12226426       0.25028642
Pt       2.57299966       0.01923400       6.50866390        7       0.00000000       0.03034251      -0.06881387       0.32707982
Pt       5.17055921       0.01235298       6.40783004        6       0.00000000      -0.02396390       0.19685908       0.94733965
Pt       7.73087238      -0.07765698       6.55310942        8       0.00000000       0.03994440       0.10052464       0.40482631
Ni       1.30216394       2.28447046       6.43737240        6       1.00000000       0.01870129       0.16456581      -0.21645841
Pt       3.86778817       2.33822408       6.39075623        6       0.00000000       0.03616263       0.02344023       0.41274945
Ni       6.44122788       2.25010369       6.40507684        6       1.00000000      -0.04834727       0.02532846       0.19648704
Pt       9.04192435       2.31148665       6.40469422        6       0.00000000       0.12139531      -0.03431462       0.65886871
Ni       2.55175246       4.46570045       6.42826339        6       1.00000000      -0.02094745      -0.02668191      -0.41038913
Ni       5.12414278       4.42197140       6.45858610        7       1.00000000      -0.11075522       0.05507894      -0.25428052
Ni       7.69617992       4.38058353       6.46624423        7       1.00000000      -0.07753969      -0.03344943      -0.22725339
Ni      10.35780238       4.40005709       6.45837355        7       1.00000000       0.18631136      -0.01808337      -0.31712608
Ni       3.82146668       6.54226535       6.45504871        7       1.00000000      -0.03627400      -0.14022976      -0.30276013
Pt       6.37761964       6.52232802       6.37211791        6       0.00000000       0.08585226       0.11709109       0.26336210
Pt       9.04898614       6.47887486       6.49732613        7       0.00000000      -0.01154426      -0.03972971       0.04177876
Ni      11.59956611       6.52747060       6.49051125        7       1.00000000       0.01640450      -0.02690733      -0.23402399
