64
Lattice="10.25630676886082 -0.019257541460327682 0.041242020011717874 5.111475864311339 8.792237634309577 -0.01650167786543618 0.0 0.0 21.520411881567387" Properties=species:S:1:pos:R:3:tags:I:1:initial_magmoms:R:1:forces:R:3 unique_id=70b6621d9932431b94ac993f2e0b194c energy=-371.9321016224123 stress="0.005495922992007343 6.310062170301125e-05 0.0003357509259654234 6.310062170301125e-05 0.004840057897403325 -2.340843707029757e-06 0.0003357509259654234 -2.340843707029757e-06 -0.001311053739979983" pbc="T T T"
Ni       0.03867890      -0.04420570       0.12351598        1       1.00000000       0.10918642      -0.09279474      -0.11155811
Ni       2.51526645      -0.03578507       0.16198548        2       1.00000000      -0.02315422      -0.06935098      -0.13037559
Pt       5.12544251      -0.04761802       0.10302468        1       0.00000000      -0.08991441       0.18806986      -1.08015628
Ni       7.72021999      -0.06792026       0.15621135        2       1.00000000      -0.02410272      -0.03877849      -0.31417912
Ni       1.28168581       2.20071811       0.04628774        0       1.00000000      -0.01847743       0.04663561       0.33879663
Pt       3.77110427       2.25022446       0.13382992        1       0.00000000       0.07962101      -0.00543752      -0.55618736
Pt       6.42527811       2.25929676       0.06785403        1       0.00000000       0.01693703       0.04466152      -0.09400132
Pt       9.04433192       2.23151313       0.09410414        1       0.00000000       0.00794454       0.12544142      -0.55317202
Ni       2.55288933       4.43072361       0.00000000        0       1.00000000       0.09410898       0.04815275       0.27185420
Ni       5.12341681       4.46108845       0.05165149        1       1.00000000      -0.03316741       0.16371762       0.40757627
Ni       7.68701538       4.44911340       0.06562436        1       1.00000000       0.03584773       0.09977890       0.37188153
Ni      10.26921498       4.41256836       0.04130227        0       1.00000000       0.00181192       0.08361255       0.31018227
Ni       3.84326768       6.57969054       0.03795361        0       1.00000000       0.09863058      -0.01707254       0.42998980
Ni       6.39468738       6.57874335       0.12945758        1       1.00000000      -0.03759625       0.00873091       0.07678044
Ni       8.92509524       6.53237302       0.11581353        1       1.00000000      -0.19029854      -0.05542235      -0.20068826
Ni      11.56816608       6.53944390       0.03151438        0       1.00000000       0.06748038       0.04380829       0.17651569
Ni       1.29941647       0.71309280       2.12459256        3       1.00000000      -0.01312910      -0.00097657       0.10715759
Ni       3.82689166       0.73754462       2.17134420        4       1.00000000       0.03926677      -0.03082265       0.18110809
Ni       6.41887665       0.75819574       2.19929387        4       1.00000000      -0.05234880       0.19158252       0.24791425
Pt       8.99905608       0.70360507       2.20474299        4       0.00000000       0.00841647       0.06553783       0.00905521
Ni       2.55414422       2.92845198       2.17098209        4       1.00000000       0.04290932       0.03204533       0.05226851
Ni       5.12242945       2.94927090       2.19577270        4       1.00000000      -0.05835884       0.06975351       0.15798895
Ni       7.69684912       2.95933536       2.19962666        4       1.00000000       0.05521590       0.05516526       0.13806242
Ni      10.27780727       2.91203234       2.21985993        4       1.00000000       0.01293634      -0.05168033       0.23556585
Ni       3.88639760       5.11616530       2.13578324        3       1.00000000       0.14058542      -0.03918295       0.08783933
Ni       6.40688493       5.12824116       2.12962816        3       1.00000000      -0.01166960      -0.03309042       0.04727522
Ni       8.92140904       5.06887531       2.15982425        4       1.00000000      -0.13313310      -0.22793000       0.14362276
Pt      11.57958597       5.03874634       2.17567715        4       0.00000000       0.13818098      -0.11314104       0.07662204
Ni       5.15740485       7.26783397       2.10579476        3       1.00000000       0.03258118      -0.14789298       0.08691074
Ni       7.62094749       7.28725759       2.11629017        3       1.00000000      -0.13211767      -0.09203776       0.17337076
Pt      10.22185204       7.23393659       2.14232713        3       0.00000000      -0.05919165      -0.17621438      -0.16910058
Ni      12.85380075       7.26282341       2.11287239        3       1.00000000       0.14081643      -0.14961403      -0.01760598
Ni       0.01869131       1.49587968       4.25230878        6       1.00000000      -0.04685464       0.05403050      -0.19309787
Pt       2.51405654       1.51883935       4.19581363        5       0.00000000      -0.06453760       0.00319541       0.08246616
Ni       5.15454419       1.47325452       4.25152574        6       1.00000000      -0.05401303      -0.01761064      -0.39833226
Ni       7.70355220       1.46570976       4.29010660        6       1.00000000      -0.03174077      -0.01888940      -0.27898148
Ni       1.26790994       3.68051740       4.30892842        6       1.00000000      -0.05727439       0.03241484      -0.00643742
Ni       3.84568272       3.71486258       4.24816264        5       1.00000000      -0.03940022       0.11611384      -0.28729169
Pt       6.41916788       3.65949382       4.27230413        6       0.00000000      -0.01014588       0.03832145      -0.00362427
Ni       9.00964772       3.67352875       4.25796478        6       1.00000000       0.01104348       0.09908658      -0.31246384
Ni       2.58405765       5.77731902       4.30513996        6       1.00000000       0.03440482      -0.11987845      -0.07978598
Ni       5.12021170       5.80770969       4.25494822        6       1.00000000       0.06994800      -0.12546431      -0.28652714
Ni       7.68988135       5.80108457       4.25055328        6       1.00000000      -0.03194136      -0.03834781      -0.32740440
Ni      10.27458708       5.75216406       4.31706267        6       1.00000000      -0.01299523      -0.05154219      -0.08826903
Pt       3.91569157       7.96836730       4.22842823        5       0.00000000       0.13651863      -0.13317902       0.07832816
Ni       6.40196804       8.00293618       4.22287491        5       1.00000000      -0.04525518      -0.12289868      -0.31136288
Pt       8.89677487       7.99600834       4.22618862        5       0.00000000      -0.13567903       0.00903166      -0.03115238
Pt      11.57646813       7.99413897       4.23021647        5       0.00000000      -0.02066487      -0.10480655      -0.02443893
Pt       0.02356021      -0.00624541       6.46881775        9       0.00000000       0.01686088       0.13500446       0.29615678
Pt       2.56805766      -0.00243920       6.50366107        9       0.00000000       0.02382668      -0.04613285       0.41103819
Pt       5.16085394      -0.00703936       6.39445525        8       0.00000000      -0.01082987       0.19585791       1.07786648
Pt       7.71624729      -0.07510269       6.52041188        9       0.00000000      -0.00575787       0.19618441       0.37369351
Ni       1.29424084       2.25237692       6.41534546        8       1.00000000       0.00475815       0.15979247      -0.18306322
Pt       3.86531706       2.30697154       6.36573801        8       0.00000000       0.01067355       0.02179896       0.50269790
Ni       6.43636366       2.21330799       6.36266180        8       1.00000000      -0.02103274      -0.02681806       0.16638707
Pt       8.99961859       2.26936707       6.33766342        7       0.00000000       0.00782304      -0.08244964       0.54537129
Ni       2.54824937       4.42304394       6.39463298        8       1.00000000      -0.01251385      -0.01953867      -0.37068221
Ni       5.12128721       4.37722416       6.42612982        8       1.00000000      -0.08786325       0.03194289      -0.25554087
Ni       7.68271867       4.33643925       6.43693635        8       1.00000000      -0.08108592      -0.03593973      -0.20455059
Ni      10.33932741       4.35394519       6.42562371        8       1.00000000       0.14671782      -0.01913457      -0.29146150
Ni       3.81799560       6.49001312       6.41665433        8       1.00000000      -0.03566034      -0.12864735      -0.28185191
Pt       6.36856758       6.46385151       6.42923185        8       0.00000000       0.09108829       0.13414137      -0.10448828
Pt       9.03322027       6.42634864       6.46328993        9       0.00000000       0.00562869      -0.06145081       0.10760091
Ni      11.58282919       6.48122905       6.44357221        8       1.00000000       0.00013640       0.00055780      -0.22211223
