64
Lattice="10.215987982032782 0.02480481913066919 -0.046175466418390786 5.129475594519829 8.775060148846226 -0.06896209615411941 -0.0377021104533589 -0.04325076416129164 8.72319651664995" Properties=species:S:1:pos:R:3:tags:I:1:initial_magmoms:R:1:forces:R:3 unique_id=c0fe801aceb844048c47e7b0f5c78d80 stress="-0.00031582592691618144 -1.5675260348497807e-07 2.0413759903475715e-06 -1.5675260348497807e-07 -0.00029733899232697175 1.5554147077081946e-05 2.0413759903475715e-06 1.5554147077081946e-05 -0.00022502426938268705" energy=-391.5028213883028 pbc="T T T"
Ni       0.03702575      -0.05724916       0.19598114        4       1.00000000       0.06214047      -0.09108048       0.24332391
Ni       2.49166266      -0.03095513       0.19618267        4       1.00000000      -0.08038559      -0.07549669       0.21528573
Pt       5.09450796      -0.04837883       0.13282867        4       0.00000000      -0.07540827      -0.14274117       0.32937044
Ni       7.67516404      -0.04820133       0.13513617        4       1.00000000      -0.02435497      -0.09028841       0.20094118
Ni       1.27518110       2.20529848       0.10731245        4       1.00000000       0.00019883       0.05362470       0.24169683
Pt       3.74334489       2.25953868       0.16087824        4       0.00000000      -0.12885708       0.09477963       0.28055601
Pt       6.39776091       2.27675666       0.06646856        4       0.00000000       0.01377141       0.13186551      -0.00315301
Pt       9.01358383       2.27237845       0.08690035        4       0.00000000       0.02764728       0.05086725       0.27239974
Ni       2.53145710       4.43508831       0.07179001        4       1.00000000      -0.01812493       0.05674711       0.13326508
Ni       5.10721883       4.47147028       0.06427497        4       1.00000000      -0.07550088       0.15942592       0.13881572
Ni       7.66494691       4.47006116       0.05808625        4       1.00000000      -0.03704525       0.11963714       0.18847204
Ni      10.25892379       4.44486541       0.04316070        4       1.00000000       0.06445142       0.14830192       0.16673874
Ni       3.84799258       6.55862432       0.06059592        4       1.00000000       0.01614239      -0.02090342       0.10978330
Ni       6.38429705       6.57380023       0.05599033        4       1.00000000      -0.07129138      -0.02546009       0.03583247
Ni       8.90822937       6.53356444       0.10378954        4       1.00000000      -0.11380433      -0.05236858       0.21471717
Ni      11.54565397       6.53699869       0.00295018        4       1.00000000       0.04908706      -0.05547341      -0.00012345
Ni       1.31050037       0.72058509       2.17144707        3       1.00000000       0.00868659       0.01142090       0.08830114
Ni       3.75727926       0.73869113       2.18426297        3       1.00000000      -0.09175161      -0.05145253      -0.11860044
Ni       6.39473857       0.74680626       2.18577322        3       1.00000000      -0.00042803      -0.06592430      -0.07989306
Pt       8.92303555       0.70612355       2.15017250        3       0.00000000       0.02662273       0.10207336      -0.16591481
Ni       2.51122866       2.95296853       2.23958299        3       1.00000000       0.04780937       0.02906760       0.07517737
Ni       5.09201040       2.99044354       2.17404762        3       1.00000000      -0.09445166       0.21534321      -0.12277179
Ni       7.66716976       2.98839607       2.19120495        3       1.00000000       0.08851839       0.00852671      -0.01872561
Ni      10.26798633       3.00468481       2.15893879        3       1.00000000       0.02706461       0.08657127       0.01334599
Ni       3.83010030       5.10873690       2.14958632        3       1.00000000      -0.00133270      -0.00392270       0.03786075
Ni       6.38505086       5.14200352       2.11132306        3       1.00000000      -0.02045129       0.02720609      -0.03683950
Ni       8.91861195       5.08071338       2.13347260        3       1.00000000      -0.05535218      -0.08040336       0.07871429
Ni      11.53253719       5.07696776       2.12209171        3       1.00000000       0.14978801      -0.13644188       0.09031794
Ni       5.15158984       7.24002979       2.10660904        3       1.00000000      -0.01355283      -0.16095345       0.01608268
Ni       7.60446117       7.27677010       2.08735242        3       1.00000000      -0.06403346      -0.14214332       0.00743147
Pt      10.26628543       7.19856196       2.14669874        3       0.00000000       0.01355198      -0.05204219      -0.16565843
Ni      12.78911974       7.24492123       2.06406091        3       1.00000000       0.08079017      -0.23547864      -0.02629086
Pt       0.07288989       1.49925922       4.27440328        2       0.00000000       0.05086788       0.01180553       0.14983323
Ni       2.53663255       1.49231487       4.25379801        2       1.00000000       0.10813121       0.10748711      -0.07390769
Pt       5.10234422       1.47731545       4.18594241        2       0.00000000      -0.06332641       0.00760240       0.00098207
Ni       7.64377012       1.46303371       4.26212416        2       1.00000000       0.05375852      -0.00985396      -0.05768429
Ni       1.29916759       3.68825854       4.30847988        2       1.00000000       0.07116234       0.00451840      -0.04164374
Ni       3.77457172       3.72172143       4.24401263        2       1.00000000       0.02089400       0.09883023      -0.13448201
Pt       6.40149435       3.72469750       4.26352946        2       0.00000000       0.01279601      -0.03564393      -0.05436091
Ni       8.95737227       3.73484882       4.22138185        2       1.00000000       0.08619952       0.08617080      -0.10913119
Ni       2.52672022       5.76993294       4.29281081        2       1.00000000      -0.03385704      -0.01476984      -0.17770225
Ni       5.10052953       5.81535273       4.27911970        2       1.00000000      -0.01038040      -0.06643008      -0.15890258
Ni       7.63919413       5.83185681       4.23222902        2       1.00000000      -0.00150627       0.03944728      -0.17433913
Ni      10.25473599       5.77699370       4.26110230        2       1.00000000       0.03928728      -0.05903228       0.00814865
Pt       3.82344398       7.90524690       4.22179394        2       0.00000000      -0.02871058      -0.07788657       0.12487101
Ni       6.37121435       7.96584645       4.20594465        2       1.00000000      -0.07849171      -0.09425047      -0.11834513
Pt       8.86162594       7.98133065       4.16898763        2       0.00000000      -0.07220563      -0.03240631       0.02767122
Ni      11.51226684       7.97494120       4.20625880        2       1.00000000       0.02261441      -0.08931612      -0.02288910
Pt      -0.02027844      -0.09296173       6.53178659        1       0.00000000       0.11616757      -0.06484586       0.14728837
Pt       2.50764838      -0.01530104       6.48962868        1       0.00000000      -0.13904764       0.03385362       0.14075997
Pt       5.10325401      -0.03395712       6.38179598        1       0.00000000       0.11770242       0.00572370      -0.35588706
Pt       7.63662494      -0.05930072       6.45713113        1       0.00000000      -0.10878150      -0.05830869       0.02827957
Ni       1.25932280       2.23940489       6.44627894        1       1.00000000       0.04497665       0.09427795      -0.05582033
Pt       3.78688397       2.31327907       6.36693757        1       0.00000000       0.03076323       0.23191086      -0.27032458
Ni       6.36367804       2.23300244       6.34840937        1       1.00000000      -0.04528027       0.02894841      -0.21805978
Pt       8.90656524       2.30109476       6.32970449        1       0.00000000      -0.00264607       0.15107093      -0.37592566
Ni       2.51190266       4.42265367       6.39980899        1       1.00000000       0.02358939       0.07910085      -0.13138929
Ni       5.10260120       4.42936086       6.41084364        1       1.00000000      -0.01745122       0.08741522      -0.07728024
Ni       7.58837716       4.38574804       6.41335479        1       1.00000000      -0.16387218       0.01837631      -0.02282840
Ni      10.28006419       4.37697072       6.37043687        1       1.00000000       0.19928146      -0.01848603      -0.12850531
Ni       3.81925864       6.45709018       6.41412117        1       1.00000000      -0.00599315      -0.12552821      -0.06763179
Ni       6.34918289       6.48728917       6.38662235        1       1.00000000       0.00519957      -0.00474391      -0.16550801
Pt       8.93089817       6.42540418       6.41732974        1       0.00000000       0.02626262      -0.15303415       0.10633773
Ni      11.52156392       6.49518890       6.35250662        1       1.00000000       0.03175175       0.00511309      -0.18208237
