64
Lattice="10.239040208739496 0.0005786074177211127 -0.01936554630553378 5.120021193092313 8.858145188092205 -0.0538636907507191 0.0 0.0 21.650705214925495" Properties=species:S:1:pos:R:3:tags:I:1:initial_magmoms:R:1:forces:R:3 unique_id=6f8ceb0049bf464ea747751261f8cb83 stress="0.004642310438629017 -1.6823755739377292e-05 -5.7909255920933434e-06 -1.6823755739377292e-05 0.005019551126514649 -0.0003572427569895113 -5.7909255920933434e-06 -0.0003572427569895113 -0.0020753312458112964" energy=-371.9315731270461 pbc="T T T"
Ni       0.00168318       0.04171719       0.20724740        2       1.00000000       0.16295768       0.15683517      -0.55191012
Ni       2.57899917       0.03322941       0.25657463        3       1.00000000       0.01567578       0.02362837      -0.23926203
Ni       5.10255501      -0.00584200       0.11711277        1       1.00000000      -0.02346568       0.12745125       0.19656042
Ni       7.67592677      -0.01925542       0.08433726        1       1.00000000      -0.07263505       0.04967204       0.08947508
Ni       1.27919469       2.21982773       0.22234112        2       1.00000000      -0.00843040       0.09501746       0.02112233
Ni       3.80888939       2.20847451       0.22454778        2       1.00000000       0.01570364       0.00738332      -0.00931032
Pt       6.39560409       2.20397126       0.21095259        2       0.00000000      -0.03016386      -0.02114937      -0.51401089
Ni       8.98828671       2.24243964       0.08979293        1       1.00000000       0.02581655       0.11558628       0.24872462
Ni       2.56413549       4.41163744       0.10179290        1       1.00000000      -0.00069267      -0.12117123       0.32226705
Ni       5.06710325       4.40786138       0.19313399        2       1.00000000      -0.18180564      -0.08436745      -0.36936228
Ni       7.73773339       4.40668224       0.08188286        1       1.00000000       0.16393680      -0.08102519       0.11111630
Ni      10.22775678       4.40733004       0.07674898        1       1.00000000      -0.01330796      -0.05441556       0.32073522
Ni       3.80322157       6.61752578       0.05447247        1       1.00000000       0.01499330      -0.15910176       0.01995705
Pt       6.44315740       6.64340830       0.00000000        0       0.00000000       0.14226230       0.06841492      -0.63244015
Ni       8.97072777       6.62285021       0.14107311        1       1.00000000      -0.09824255      -0.19340979      -0.36484499
Ni      11.51472472       6.62828130       0.02324725        0       1.00000000      -0.06551027      -0.13854823       0.08213715
Ni       1.31050398       0.78302360       2.19706604        5       1.00000000       0.03189044       0.12713730       0.09171270
Ni       3.83469684       0.76870489       2.20710656        5       1.00000000       0.08320843       0.02790863       0.13142450
Ni       6.35656487       0.75966922       2.27978985        6       1.00000000      -0.10999422       0.09486211       0.29067299
Pt       8.94966839       0.84713249       2.20724296        5       0.00000000      -0.06631531       0.00645330       0.04289800
Ni       2.57672245       2.93115613       2.19592898        5       1.00000000       0.04477071       0.03798286       0.00784720
Ni       5.05767806       2.91124292       2.24467412        5       1.00000000      -0.15870969      -0.05703828       0.28098107
Ni       7.71941334       2.95801789       2.23310075        5       1.00000000       0.18744559       0.10236500       0.14876634
Ni      10.23410389       2.94971807       2.21876087        5       1.00000000      -0.00754355       0.00610585       0.16018541
Ni       3.82008055       5.08827287       2.19588550        5       1.00000000      -0.05624077      -0.16771552       0.03332949
Pt       6.45445486       5.09575935       2.18172507        5       0.00000000       0.09042243      -0.02983342       0.02983330
Ni       8.96282752       5.11449419       2.20864478        5       1.00000000       0.07778014      -0.12898558       0.11163490
Pt      11.50247432       5.05704399       2.20989972        5       0.00000000      -0.00626482      -0.01458160       0.07279980
Pt       5.12822234       7.38634872       2.15000718        5       0.00000000      -0.01070230      -0.05292749      -0.05226978
Ni       7.69162638       7.39095747       2.18146907        5       1.00000000      -0.01032961       0.01985883       0.16217545
Pt      10.18905343       7.39081532       2.13181549        4       0.00000000      -0.08305282      -0.01817348       0.08275734
Pt      12.76362380       7.36460856       2.13993184        4       0.00000000      -0.02182131      -0.00508138      -0.00870799
Ni      -0.04510417       1.53101402       4.39264225        8       1.00000000      -0.01401921       0.18146822      -0.12211191
Pt       2.54888869       1.55497658       4.27751853        7       0.00000000       0.01148731       0.16029643      -0.04719173
Ni       5.14406730       1.44177611       4.34781097        7       1.00000000       0.00990791       0.02598515      -0.22911952
Ni       7.68739703       1.45885516       4.36573949        8       1.00000000       0.04091400       0.08846127      -0.14634482
Ni       1.24180850       3.71940329       4.39484298        8       1.00000000      -0.06387382       0.02939905      -0.04558210
Ni       3.79899859       3.68812971       4.35218208        8       1.00000000      -0.04189876       0.01508248      -0.18514488
Pt       6.44873814       3.61240763       4.33276135        7       0.00000000       0.00687600      -0.00576368       0.02003536
Ni       8.99870110       3.67336560       4.38189312        8       1.00000000       0.12320685       0.03776316      -0.07866472
Ni       2.48888531       5.84698933       4.42394706        8       1.00000000      -0.17810038      -0.07609781      -0.05297532
Pt       5.04286013       5.85243954       4.36252266        8       0.00000000      -0.08594207      -0.07513575      -0.05352860
Ni       7.72647872       5.84042299       4.36467398        8       1.00000000       0.16213359      -0.09713933      -0.19533005
Ni      10.26260417       5.82999848       4.37672577        8       1.00000000      -0.01265045      -0.06645330      -0.12009949
Pt       3.71912093       8.13021348       4.40231004        8       0.00000000      -0.00632156       0.01439315       0.01688052
Pt       6.40922435       8.11064777       4.32704699        7       0.00000000       0.02517178       0.12087976      -0.08748705
Pt       9.03254782       8.08751199       4.33495421        7       0.00000000      -0.01323183       0.08025801       0.02335892
Ni      11.50215444       8.10353606       4.39258055        8       1.00000000      -0.09613148      -0.02062369      -0.05563296
Pt      -0.09852242      -0.03242720       6.63572519       11       0.00000000      -0.01553781       0.15180824       0.42812169
Pt       2.57168807      -0.05752888       6.65070521       12       0.00000000      -0.06847760      -0.03585976       0.43912354
Ni       5.17022597      -0.06803321       6.54574922       10       1.00000000       0.07213798      -0.06063548      -0.04972850
Ni       7.62290807      -0.07473043       6.54919737       10       1.00000000      -0.09081751      -0.08148153       0.00305914
Pt       1.19839461       2.29261770       6.56839078       11       0.00000000      -0.00011489      -0.13669877      -0.02144744
Pt       3.84793932       2.20796335       6.56541098       11       0.00000000       0.18049526       0.12718515       0.13837133
Pt       6.47913143       2.11336152       6.48756272       10       0.00000000      -0.14026690       0.01294156       0.61692755
Ni       8.94188549       2.22716219       6.50778461       10       1.00000000       0.02746518       0.10360269      -0.22826617
Ni       2.51051264       4.47218172       6.50603379       10       1.00000000       0.02752288       0.06273915      -0.29831057
Pt       5.10145213       4.46924468       6.60075583       11       0.00000000       0.00379276      -0.15840184       0.34342663
Ni       7.71149889       4.38714985       6.51081532       10       1.00000000       0.05396783      -0.10030375      -0.19278592
Ni      10.22899141       4.41424900       6.48685755       10       1.00000000       0.02217767       0.00038836      -0.30072899
Ni       3.76005638       6.61266682       6.52303448       10       1.00000000      -0.08696127      -0.02390154      -0.06540295
Ni       6.39625640       6.60085989       6.41332372        9       1.00000000       0.16138495       0.00702560       0.46620378
Pt       9.01024044       6.51913468       6.52838921       10       0.00000000      -0.01391776      -0.01999091       0.10186016
Ni      11.54662850       6.60958768       6.47512114       10       1.00000000      -0.03201395      -0.00032763      -0.33848006
