64
Lattice="10.178300174439556 0.004177786456397952 0.02485724046254192 5.092768156422608 8.760554323242442 -0.024152245798244768 0.02029585184896373 -0.034488771241529666 8.719731209019523" Properties=species:S:1:pos:R:3:tags:I:1:initial_magmoms:R:1:forces:R:3 unique_id=15b1be5e733045b1aac42a984c129ceb stress="-0.007182898037419783 1.544260300195708e-05 4.365207303712675e-06 1.544260300195708e-05 -0.007129885994569221 -2.892428216015068e-05 4.365207303712675e-06 -2.892428216015068e-05 -0.006177602579443241" energy=-391.5271162997977 pbc="T T T"
Ni       0.03896593      -0.04667194       0.20119164        4       1.00000000       0.07610459      -0.04333645       0.17178160
Ni       2.50132494       0.01113376       0.18188365        4       1.00000000       0.01479091       0.11949118       0.06272148
Pt       5.12598867      -0.01203208       0.18046664        4       0.00000000       0.01071383       0.05276738      -0.14041859
Ni       7.65239776      -0.04659120       0.20474264        4       1.00000000       0.01834534      -0.07750127       0.13119215
Ni       1.26950925       2.21096814       0.12198881        4       1.00000000      -0.01643209       0.09636763       0.10529431
Pt       3.78479864       2.27166584       0.18339054        4       0.00000000      -0.00794762       0.06394561      -0.13013290
Ni       6.37134211       2.24571930       0.13648641        4       1.00000000      -0.00793624       0.10623398       0.15498758
Pt       8.91176106       2.25642156       0.16075305        4       0.00000000       0.00720146       0.08831842      -0.17417959
Ni       2.52739514       4.42401242       0.09778156        4       1.00000000       0.02166444       0.05055516       0.05121758
Ni       5.11274221       4.42718796       0.10755841        4       1.00000000      -0.02416920       0.04416678       0.04955459
Ni       7.60335022       4.41832278       0.11895500        4       1.00000000      -0.03847952       0.06195720       0.09406648
Ni      10.21892813       4.41482041       0.12205571        4       1.00000000       0.09101420       0.05713649       0.05994381
Ni       3.82658297       6.54190171       0.09256791        4       1.00000000       0.03208555      -0.05795538       0.01499580
Ni       6.32276416       6.53681243       0.06279115        4       1.00000000      -0.07640206      -0.04454602      -0.08291733
Ni       8.90807499       6.50018858       0.17114337        4       1.00000000       0.04974948      -0.11057240       0.07956029
Ni      11.50503752       6.51460043       0.07950396        4       1.00000000       0.10710902      -0.04286437      -0.07770713
Ni       1.30524188       0.77637103       2.17098923        3       1.00000000       0.03915390       0.09648861       0.06066822
Ni       3.80826583       0.79116729       2.23118772        3       1.00000000      -0.01490878       0.05363840       0.00415044
Ni       6.35685403       0.77892161       2.25690257        3       1.00000000      -0.04427954       0.02919172       0.08508098
Pt       8.88716844       0.70614302       2.21135540        3       0.00000000       0.00508049      -0.01588728       0.16522835
Ni       2.52676042       2.95052860       2.24888949        3       1.00000000       0.00534006       0.04358744       0.03040886
Ni       5.09123713       2.93598408       2.21002938        3       1.00000000      -0.06981004       0.04371673      -0.00041306
Ni       7.60905123       2.95231361       2.21776243        3       1.00000000      -0.02343902       0.01660721       0.06004114
Ni      10.23174776       2.97962728       2.21470422        3       1.00000000       0.05774707       0.03496072       0.02345337
Ni       3.81664129       5.08509127       2.17801265        3       1.00000000      -0.00301236      -0.08841906      -0.01085943
Ni       6.31998620       5.06541160       2.14059943        3       1.00000000      -0.07720558      -0.04249378       0.01838780
Ni       8.92411055       5.02696497       2.17416157        3       1.00000000      -0.00164089      -0.08473026       0.02561772
Ni      11.50534613       5.04406405       2.20764153        3       1.00000000       0.08678734      -0.06979232       0.05929711
Ni       5.06827823       7.21889718       2.14115057        3       1.00000000      -0.07271883      -0.14818054       0.02527518
Pt       7.55752228       7.28267862       2.11176074        3       0.00000000      -0.04278846      -0.02304393       0.01951464
Pt      10.28080499       7.19665290       2.21348542        3       0.00000000       0.02934304      -0.13495553       0.06836778
Ni      12.75811307       7.21225201       2.15949109        3       1.00000000       0.08533789      -0.16930621       0.00535928
Pt       0.09586045       1.50660711       4.27771954        2       0.00000000       0.06875178      -0.05705373       0.00662490
Ni       2.57886182       1.51761828       4.26466542        2       1.00000000       0.07077906       0.10108010      -0.10594077
Ni       5.10367572       1.45893372       4.26001045        2       1.00000000      -0.05801892       0.00132022      -0.14141307
Ni       7.60321183       1.43128831       4.32253087        2       1.00000000      -0.01868991      -0.08435161      -0.00744346
Ni       1.32107282       3.68543745       4.31560076        2       1.00000000       0.03354267      -0.00379806      -0.06055496
Ni       3.77628603       3.68875798       4.25553697        2       1.00000000      -0.03520433       0.07197350      -0.17570220
Pt       6.31768935       3.58119532       4.32051219        2       0.00000000      -0.02278307      -0.04759919      -0.00482102
Ni       8.95719434       3.67453030       4.27690370        2       1.00000000       0.04920372       0.01088824      -0.18057046
Ni       2.53463839       5.76003411       4.30765838        2       1.00000000      -0.02233395      -0.01932677      -0.15649140
Ni       5.05793406       5.77626570       4.31491392        2       1.00000000      -0.03318471      -0.10935303      -0.13685739
Pt       7.62397758       5.78857816       4.30434183        2       0.00000000       0.01561230      -0.01695515      -0.01523752
Ni      10.26005080       5.76695940       4.33790613        2       1.00000000       0.01254517      -0.03696037      -0.03066797
Pt       3.81419110       7.89805592       4.26583067        2       0.00000000       0.02596929      -0.02605656       0.04858847
Ni       6.35466020       7.99996469       4.28432117        2       1.00000000      -0.03738381      -0.01075723      -0.05886193
Pt       8.91709458       8.06776897       4.25787067        2       0.00000000      -0.06834644      -0.05183811      -0.07415450
Ni      11.48847980       7.98191797       4.29084389        2       1.00000000       0.03612454      -0.08077509      -0.07512930
Pt       0.01719934      -0.08608976       6.53347959        1       0.00000000      -0.08404797      -0.01217517       0.18393244
Pt       2.53076844      -0.00873359       6.50475101        1       0.00000000       0.05498364       0.06170719       0.07820900
Pt       5.13794614       0.00629916       6.39070384        1       0.00000000      -0.04004541       0.09181011       0.07376199
Pt       7.64108968      -0.06953683       6.52158893        1       0.00000000       0.04074982      -0.01340590       0.16483646
Ni       1.29288058       2.24535717       6.44668217        1       1.00000000       0.02909140       0.07993083      -0.00680225
Pt       3.82414247       2.31244379       6.34621033        1       0.00000000      -0.00004014       0.08908438      -0.05889296
Ni       6.36961176       2.22502658       6.46600218        1       1.00000000      -0.03481295       0.03283230       0.04461999
Pt       8.89941980       2.28916315       6.38079843        1       0.00000000      -0.06643053       0.07706207       0.02638024
Ni       2.53338009       4.41633578       6.41388552        1       1.00000000      -0.00894225       0.06543165      -0.07938899
Ni       5.10532329       4.42274495       6.45621387        1       1.00000000      -0.05155817       0.09293859      -0.00473254
Ni       7.57638847       4.36518412       6.48058470        1       1.00000000      -0.16096373       0.02228204       0.03350765
Ni      10.27789023       4.35942056       6.43828858        1       1.00000000       0.12748738      -0.00751760      -0.09278902
Ni       3.82263738       6.44660815       6.44288103        1       1.00000000      -0.04186168      -0.08559910      -0.03209026
Ni       6.33788146       6.48358751       6.44877401        1       1.00000000      -0.03539549       0.00034220      -0.13763785
Pt       8.95603179       6.42736953       6.52638443        1       0.00000000       0.02617778      -0.04871674       0.12245634
Ni      11.50825005       6.47743452       6.42808078        1       1.00000000       0.01262654       0.00801010      -0.15627617
