64
Lattice="10.357685395875619 -0.006204466714895083 0.03910329193268057 5.173469472145773 8.886553552524681 0.03274344718871154 0.031927704166052444 0.01243734946720461 8.820834510848766" Properties=species:S:1:pos:R:3:tags:I:1:initial_magmoms:R:1:forces:R:3 unique_id=3b2bae6f1ce9410cbd42a051c292a260 stress="-0.0004293979768526246 5.095807418600766e-06 -1.3476735946329095e-05 5.095807418600766e-06 -0.0004231957925484725 1.1353776116520624e-05 -1.3476735946329095e-05 1.1353776116520624e-05 -0.0003561558020675065" energy=-399.5719811076857 pbc="T T T"
Ni       0.00500482       0.02591478       0.18401352        4       1.00000000       0.05332224       0.09915421       0.23589111
Ni       2.59026550       0.01244404       0.22605211        4       1.00000000       0.01406348       0.05691066       0.34964925
Ni       5.17664203      -0.00244158       0.17033315        4       1.00000000      -0.04589355       0.11416075       0.19918810
Ni       7.77857778      -0.04257989       0.21375254        4       1.00000000       0.00587748      -0.09542295       0.33236882
Ni       1.26827274       2.22872065       0.19896116        4       1.00000000      -0.09238211       0.01848747       0.26562306
Pt       3.82693202       2.23124298       0.12449972        4       0.00000000      -0.04032041       0.07605712      -0.17057238
Pt       6.49401297       2.16347099       0.13516660        4       0.00000000       0.07926823      -0.08101947      -0.09147931
Ni       9.10636311       2.22113039       0.18384327        4       1.00000000       0.13844752       0.06138102       0.13360958
Ni       2.57552217       4.46484681       0.07106138        4       1.00000000      -0.01022238       0.03655798      -0.08843172
Ni       5.17098618       4.45168507       0.18269246        4       1.00000000       0.15834804      -0.05910029       0.19092975
Pt       7.81098496       4.43960619       0.07106387        4       0.00000000       0.14507065       0.03100429      -0.18341380
Ni      10.39323860       4.43510800       0.11269318        4       1.00000000       0.08937218      -0.04062192       0.10502330
Ni       3.84670653       6.68728521       0.11334341        4       1.00000000      -0.05344801       0.10654744       0.07702805
Pt       6.44738443       6.72039084       0.22914072        4       0.00000000      -0.03325940       0.05861510       0.22460482
Ni       9.08562896       6.68688984       0.11548275        4       1.00000000       0.01030531       0.03330088       0.04669087
Ni      11.67333389       6.66502067       0.11146711        4       1.00000000       0.12109360       0.00366949      -0.02745843
Ni       1.31252369       0.76780197       2.17834599        3       1.00000000      -0.01024517       0.10193845      -0.00686892
Ni       3.87925582       0.77248078       2.22285348        3       1.00000000       0.05374201       0.08216164       0.00896861
Ni       6.47954206       0.77324348       2.25933328        3       1.00000000      -0.01930035       0.10449227       0.11120709
Pt       9.07717431       0.78213922       2.22291990        3       0.00000000      -0.01061486       0.10411977       0.10596248
Ni       2.58115449       2.93983748       2.22349663        3       1.00000000      -0.02491139       0.03181624      -0.06129437
Ni       5.18785461       2.93066817       2.26812227        3       1.00000000      -0.06260609      -0.12263162       0.02845812
Ni       7.76303488       2.93888010       2.27429451        3       1.00000000       0.00196775      -0.01169488      -0.08194268
Ni      10.38341504       2.93018564       2.26292619        3       1.00000000       0.04515076       0.00460954       0.10683437
Pt       3.91116045       5.16535769       2.18980908        3       0.00000000      -0.02862953      -0.05830574      -0.03679533
Ni       6.47873553       5.16584424       2.25744682        3       1.00000000       0.04626347      -0.03664477      -0.08277802
Pt       9.02381636       5.14599772       2.30023230        3       0.00000000      -0.13376964      -0.12164015      -0.11623243
Pt      11.67588924       5.12505089       2.23180916        3       0.00000000       0.01324310      -0.04282349      -0.01395999
Ni       5.16918488       7.42797890       2.23435346        3       1.00000000      -0.08570534       0.00570377      -0.06761830
Ni       7.76554510       7.43350434       2.24686796        3       1.00000000       0.02568138      -0.01848621      -0.02618163
Pt      10.36766509       7.45232630       2.16674148        3       0.00000000       0.04476143      -0.02121982      -0.10818505
Ni      12.96542384       7.40544307       2.23385941        3       1.00000000       0.02979534      -0.07260012      -0.02165858
Ni       0.00107316       1.55626963       4.35655451        2       1.00000000       0.03706874       0.14707800      -0.04325663
Pt       2.62120183       1.59080525       4.30649732        2       0.00000000      -0.06256327       0.02178189       0.02431531
Ni       5.20125749       1.51865844       4.38444408        2       1.00000000      -0.01960601      -0.01102961      -0.14338177
Ni       7.79381629       1.50705379       4.39159673        2       1.00000000       0.06061887      -0.05555314      -0.07267442
Ni       1.31334000       3.71680652       4.38371493        2       1.00000000       0.02315108      -0.03982026      -0.12550309
Ni       3.87437158       3.70969590       4.39975388        2       1.00000000      -0.03154453       0.02323525      -0.15424327
Pt       6.53034222       3.64241133       4.35811520        2       0.00000000      -0.02244439      -0.03788357      -0.05647268
Ni       9.08767791       3.67108024       4.40641223        2       1.00000000       0.06915370      -0.16642801      -0.16984237
Ni       2.59008563       5.87966961       4.44694412        2       1.00000000      -0.00679612      -0.06852985      -0.04986089
Pt       5.16326029       5.87668352       4.36806044        2       0.00000000       0.07422465      -0.00665124       0.06878727
Ni       7.79720145       5.88594844       4.41710998        2       1.00000000      -0.03581342      -0.01185425      -0.08804182
Pt      10.38219015       5.83445136       4.52647762        2       0.00000000       0.00611032      -0.00475983       0.02357428
Pt       3.87870033       8.15897748       4.36431057        2       0.00000000      -0.04944481      -0.03071123       0.14098137
Pt       6.48200248       8.18273942       4.29646296        2       0.00000000      -0.04903472       0.03348352       0.04434760
Pt       9.06838188       8.14408316       4.37926331        2       0.00000000      -0.06588512       0.03723512       0.06459867
Pt      11.67566273       8.17291538       4.37924663        2       0.00000000       0.06957110       0.04894338       0.04343190
Pt       0.01080300      -0.00472611       6.60448936        1       0.00000000      -0.02910314      -0.00046995       0.10637639
Pt       2.63453859       0.01553301       6.64260273        1       0.00000000      -0.01375350       0.02784933       0.22194015
Pt       5.20329621       0.00957925       6.61468445        1       0.00000000      -0.04045660      -0.07071733       0.01460886
Pt       7.76570248      -0.03590541       6.65182536        1       0.00000000      -0.01477001      -0.12550077       0.17229762
Pt       1.33811213       2.35324995       6.57902545        1       0.00000000       0.01245562       0.16556123       0.16997016
Ni       3.90828440       2.24434381       6.47809804        1       1.00000000      -0.05841066      -0.06392138      -0.28145882
Ni       6.48454556       2.22877270       6.49200341        1       1.00000000      -0.02703379      -0.06004411      -0.23620061
Pt       9.03733814       2.31656246       6.55973758        1       0.00000000      -0.05633767       0.02727188       0.03290049
Ni       2.59273893       4.49979414       6.53749005        1       1.00000000      -0.07714846       0.14480072      -0.24108562
Pt       5.13026682       4.37235213       6.60956754        1       0.00000000      -0.07742447      -0.08448248       0.08327155
Ni       7.81324379       4.45549013       6.47424803        1       1.00000000       0.02740199       0.01459198      -0.42232650
Ni      10.37620293       4.48457587       6.60625718        1       1.00000000      -0.04766270       0.06394632       0.01673538
Ni       3.85193529       6.62559115       6.57300916        1       1.00000000      -0.07254522      -0.09491062      -0.12054783
Pt       6.53678643       6.59600959       6.54212300        1       0.00000000      -0.00772486      -0.05305789      -0.19701970
Ni       9.11188010       6.61437857       6.60028631        1       1.00000000       0.02977092      -0.04530949      -0.07110336
Ni      11.68038734       6.60376298       6.60793278        1       1.00000000       0.03151075      -0.07262023      -0.09228401
