64
Lattice="10.275755978992034 -0.021926021807037014 0.04289909354458692 5.118889497607195 8.839587288184099 -0.007026062658776276 0.03502696320405387 -0.026847062036172015 8.785625080893476" Properties=species:S:1:pos:R:3:tags:I:1:initial_magmoms:R:1:forces:R:3 unique_id=ecb8c97645f94628b59d06f7e05b1f01 stress="0.00023576216501709768 5.274018138002396e-06 -2.184424942941531e-05 5.274018138002396e-06 0.0002382219632096269 -7.786272195332168e-07 -2.184424942941531e-05 -7.786272195332168e-07 0.00023292606200794874" energy=-396.26171251488927 pbc="T T T"
Ni       0.01673100      -0.01039918       0.17894813        4       1.00000000       0.01295962       0.01408792       0.34521276
Ni       2.53862994       0.00329901       0.21899474        4       1.00000000      -0.04372090       0.04931935       0.41264577
Pt       5.13360028      -0.05511319       0.16560859        4       0.00000000      -0.00091343      -0.10059576       0.30749666
Ni       7.73428871      -0.07736364       0.21820955        4       1.00000000       0.04449535      -0.08447804       0.36204291
Ni       1.28918788       2.21552678       0.10792652        4       1.00000000       0.03625457       0.04568771       0.25351409
Pt       3.77160908       2.25897144       0.19802695        4       0.00000000      -0.00886358       0.08751790       0.18211333
Pt       6.42096293       2.20845293       0.13258109        4       0.00000000       0.06601172       0.08169931       0.01978814
Pt       9.08095377       2.18935451       0.15347830        4       0.00000000       0.12890481      -0.03292434       0.11697784
Ni       2.55565655       4.45259990       0.06606959        4       1.00000000       0.06430322       0.09323292       0.02664730
Ni       5.08934472       4.44799461       0.11458663        4       1.00000000      -0.05752608       0.09697976       0.24563547
Pt       7.73888540       4.46106996       0.12460966        4       0.00000000       0.06396698       0.07199392      -0.03379130
Ni      10.32323172       4.42460533       0.10793994        4       1.00000000       0.16376450       0.06308935       0.10416949
Ni       3.80449666       6.61519852       0.10246962        4       1.00000000      -0.06351732      -0.05353920       0.20183315
Pt       6.36133702       6.67006549       0.18774495        4       0.00000000      -0.07234692       0.01219534       0.05696925
Ni       8.99299139       6.60353802       0.17516267        4       1.00000000      -0.03015474      -0.00103489       0.21937821
Ni      11.58809545       6.57481638       0.10244465        4       1.00000000       0.12203210      -0.05399334       0.05172993
Ni       1.30295667       0.72615852       2.19663680        3       1.00000000      -0.04961115      -0.00847191       0.03614831
Ni       3.83779399       0.74480838       2.24241669        3       1.00000000       0.06568978       0.00421872       0.01998199
Ni       6.43001979       0.75680692       2.27471188        3       1.00000000      -0.06779996       0.09205867       0.09372382
Pt       9.01375719       0.70393532       2.28718231        3       0.00000000      -0.00852098       0.15154374      -0.02311683
Ni       2.55870267       2.94633551       2.24260502        3       1.00000000       0.03093235       0.06455768       0.00852636
Ni       5.12687652       2.95973863       2.26721042        3       1.00000000      -0.11369071       0.05252457       0.04046316
Ni       7.71168602       2.95085484       2.28400303        3       1.00000000       0.10602337       0.01480185       0.00608568
Ni      10.29896213       2.92476729       2.29191666        3       1.00000000       0.02186582      -0.05392156       0.14203614
Ni       3.88498526       5.14203923       2.21404713        3       1.00000000       0.09710181      -0.03441836       0.04266983
Ni       6.40033912       5.14441494       2.26152894        3       1.00000000      -0.04156317       0.06240004      -0.02364818
Ni       8.96485853       5.10403692       2.27619098        3       1.00000000      -0.05115632      -0.17874376       0.16625742
Pt      11.60378450       5.06663902       2.25223593        3       0.00000000       0.13235505      -0.09738159       0.07035848
Ni       5.13399736       7.32722933       2.23641396        3       1.00000000       0.03528061      -0.14830229       0.04960704
Ni       7.65810959       7.34834019       2.23478767        3       1.00000000      -0.16287088      -0.09718765       0.03754353
Pt      10.25137110       7.27840118       2.22701275        3       0.00000000      -0.03239641      -0.06645593      -0.15755333
Ni      12.87312003       7.30319066       2.19452906        3       1.00000000       0.11119388      -0.20520467      -0.01833920
Ni       0.01951142       1.50840645       4.32867541        2       1.00000000      -0.04833554       0.09853261      -0.08548079
Pt       2.52094172       1.53225855       4.27266438        2       0.00000000      -0.00023423       0.05413380       0.13381833
Ni       5.16538121       1.48378461       4.33244949        2       1.00000000      -0.08907812       0.02775823      -0.19795781
Ni       7.71633301       1.47673534       4.36856067        2       1.00000000      -0.00523445       0.02030380      -0.08104225
Ni       1.27173986       3.70310547       4.38651464        2       1.00000000      -0.04205184       0.03352199       0.01101744
Ni       3.85115114       3.73545207       4.33052875        2       1.00000000      -0.08468797       0.10568623      -0.22480045
Pt       6.42553353       3.67583782       4.34782379        2       0.00000000      -0.03457057      -0.01788141      -0.05925579
Ni       9.02962784       3.69163533       4.33906854        2       1.00000000       0.04154714       0.05095948      -0.26501094
Ni       2.58651815       5.81441208       4.38776631        2       1.00000000       0.01137677      -0.12735049      -0.07243039
Ni       5.11863616       5.83663514       4.32013092        2       1.00000000      -0.00110355      -0.14384298      -0.22823815
Ni       7.71243825       5.83257945       4.32234070        2       1.00000000      -0.00423386      -0.05106718      -0.22307479
Ni      10.29384822       5.78560092       4.39690209        2       1.00000000       0.03375269      -0.09721868      -0.04725545
Pt       3.91744945       8.01665513       4.31985868        2       0.00000000       0.03104166      -0.15237925       0.25742341
Ni       6.41299886       8.06025581       4.30284205        2       1.00000000      -0.05271926      -0.06080172      -0.16564336
Pt       8.91562315       8.04749841       4.31227125        2       0.00000000      -0.03145880      -0.00499627       0.11060612
Pt      11.59602651       8.04018536       4.31958639        2       0.00000000       0.01171097      -0.04126247       0.08637458
Pt       0.02428477       0.00252824       6.54429755        1       0.00000000       0.03412209       0.07637756       0.12039380
Pt       2.57384745       0.00579141       6.57897413        1       0.00000000      -0.05113247       0.05440421       0.22621714
Pt       5.17173541      -0.00007160       6.47942661        1       0.00000000       0.05592824       0.06913941      -0.40140892
Pt       7.73048823      -0.07155706       6.60285491        1       0.00000000      -0.09320558      -0.04864227       0.16212222
Ni       1.29729104       2.26917030       6.49906748        1       1.00000000       0.01341087       0.19921356      -0.15771789
Pt       3.87173702       2.32314632       6.45187289        1       0.00000000      -0.09722379       0.17549320      -0.22808345
Ni       6.44822147       2.22884275       6.44787878        1       1.00000000      -0.00489676       0.06172671      -0.23389360
Pt       9.01910544       2.28244918       6.42051229        1       0.00000000      -0.01507484       0.12714570      -0.36276055
Ni       2.55439595       4.45161098       6.48258340        1       1.00000000      -0.08228242       0.08808154      -0.22873857
Ni       5.12935154       4.40731856       6.50658671        1       1.00000000      -0.10413035       0.09486606      -0.16213837
Ni       7.70244733       4.36806957       6.44554339        1       1.00000000      -0.09274633      -0.02276838      -0.27267682
Ni      10.35721510       4.38174050       6.50904175        1       1.00000000       0.23299830      -0.00793700      -0.23520174
Ni       3.82279876       6.53297339       6.50146244        1       1.00000000      -0.07675836      -0.19297307      -0.11726023
Pt       6.37958720       6.51191115       6.41765100        1       0.00000000      -0.04436415       0.01133474      -0.28138074
Pt       9.05499280       6.47080987       6.53833185        1       0.00000000       0.04826914      -0.13514446       0.05414111
Ni      11.60511559       6.52180481       6.53555036        1       1.00000000       0.04288239      -0.08566868      -0.19377031
