64
Lattice="10.174688915227964 -0.0012786522310761616 -0.002234128834977863 5.086237112299318 8.701436167468087 -0.08092339774444227 0.0 0.0 21.43960105858165" Properties=species:S:1:pos:R:3:tags:I:1:initial_magmoms:R:1:forces:R:3 unique_id=8e28fdf3d03b40cca0e0766d945f7688 stress="0.00220542822963281 -5.619019495023479e-06 5.1490109068414744e-05 -5.619019495023479e-06 0.0013127593520648496 -0.00023590197331832335 5.1490109068414744e-05 -0.00023590197331832335 -0.005076849665865926" energy=-368.29726505427845 pbc="T T T"
Ni       0.04462955      -0.06244175       0.18307027        2       1.00000000       0.07848964      -0.01472838      -0.37104121
Ni       2.48126954      -0.04474167       0.20718511        2       1.00000000       0.01197995      -0.00933146      -0.28975943
Pt       5.07670324      -0.06905630       0.13817105        1       0.00000000      -0.07501334       0.29704164      -1.15373931
Ni       7.65552818      -0.07232083       0.17578660        2       1.00000000      -0.07165727      -0.03063543      -0.45331832
Ni       1.26997316       2.18471683       0.09165478        1       1.00000000      -0.03087734       0.02280873       0.28331194
Pt       3.72475523       2.23360725       0.14666765        1       0.00000000       0.12869506      -0.08259612      -0.62074616
Pt       6.37163928       2.24597583       0.06409810        1       0.00000000      -0.05266401      -0.08474425      -0.23920977
Pt       8.98165087       2.22504198       0.08877481        1       0.00000000      -0.01843230       0.15363917      -0.81460899
Ni       2.51450520       4.39751883       0.04990221        0       1.00000000       0.03980648       0.01664440       0.34823370
Ni       5.07719509       4.43454574       0.05494395        1       1.00000000      -0.07131553       0.02521175       0.25212897
Ni       7.62807296       4.42260516       0.06103849        1       1.00000000       0.05203930      -0.01720962       0.20249339
Ni      10.21566540       4.39390683       0.05602341        1       1.00000000       0.00965923       0.04537614       0.33891733
Ni       3.82199093       6.50073454       0.03422322        0       1.00000000       0.03867156       0.01678967       0.26735832
Ni       6.34554377       6.50779419       0.03666395        0       1.00000000      -0.00549393       0.05507594       0.25893208
Ni       8.85380678       6.45849525       0.10441325        1       1.00000000      -0.08326352       0.00423612      -0.32457112
Ni      11.49464153       6.45770767       0.00000000        0       1.00000000       0.04804117       0.04629393       0.14791981
Ni       1.30312043       0.71799076       2.17705825        4       1.00000000       0.03100566       0.07085153       0.18174708
Ni       3.77142782       0.74329776       2.18940909        4       1.00000000      -0.05110370       0.03361322       0.21350515
Ni       6.35454938       0.73371369       2.21428340        4       1.00000000      -0.00979811       0.05873567       0.22175973
Pt       8.92495836       0.71069894       2.18249284        4       0.00000000       0.01276085      -0.08554455       0.17063180
Ni       2.50265215       2.91272618       2.20848963        4       1.00000000      -0.00864761      -0.00941170       0.12194996
Ni       5.05925687       2.91768550       2.17597178        4       1.00000000      -0.03879160       0.02652133       0.07660757
Ni       7.64082800       2.93519412       2.17202439        4       1.00000000      -0.01127556       0.01677531       0.10464919
Ni      10.23059114       2.92979376       2.19011574        4       1.00000000       0.06821493       0.00580940       0.14398390
Ni       3.81190626       5.05088408       2.11296434        3       1.00000000       0.01626628      -0.06247940       0.06279605
Ni       6.35236823       5.07554265       2.08752135        3       1.00000000      -0.01383667      -0.06201815       0.03043452
Ni       8.87819952       5.00674861       2.12133329        3       1.00000000      -0.01289671      -0.10747196       0.10406227
Ni      11.48672871       4.99515432       2.12317204        3       1.00000000       0.07764415      -0.10058368       0.16236761
Ni       5.12239144       7.16830454       2.06279460        3       1.00000000      -0.02511344      -0.07223113       0.09338816
Ni       7.56408716       7.19911136       2.06222377        3       1.00000000      -0.03719899      -0.07321448       0.11976157
Pt      10.22151566       7.11897558       2.11428139        3       0.00000000       0.05833266      -0.23832612       0.08438664
Ni      12.73776082       7.15444139       2.05865963        3       1.00000000       0.08300036      -0.09658484       0.07637819
Ni       0.06544187       1.45497778       4.23284049        6       1.00000000       0.12950708      -0.02125775      -0.11390567
Ni       2.49782374       1.46792312       4.19682456        6       1.00000000      -0.03209678       0.01633372      -0.13968352
Ni       5.08738175       1.43520601       4.18192318        6       1.00000000      -0.05136394      -0.00452575      -0.30133450
Ni       7.60099932       1.41445531       4.22997616        6       1.00000000      -0.09455520      -0.09079008      -0.20120319
Ni       1.27692740       3.59743171       4.24241025        6       1.00000000       0.02321592      -0.03054102      -0.06742783
Ni       3.77233762       3.64582742       4.17262616        6       1.00000000      -0.02841873       0.08174310      -0.18788768
Pt       6.35087990       3.61328474       4.21747566        6       0.00000000      -0.00311767      -0.01200067      -0.01663387
Ni       8.94260500       3.63947396       4.17293295        6       1.00000000       0.01853358       0.06861820      -0.17271234
Ni       2.51917800       5.70031943       4.21589220        6       1.00000000      -0.04614184      -0.05045083      -0.15106083
Ni       5.08507289       5.74087502       4.21387468        6       1.00000000       0.02809906      -0.02780875      -0.16340388
Ni       7.60686985       5.75028303       4.17849669        6       1.00000000      -0.02515779       0.03241147      -0.17251291
Ni      10.21644401       5.69270530       4.22321237        6       1.00000000       0.02123368       0.00714328      -0.09688006
Pt       3.81817274       7.84651619       4.16011596        6       0.00000000       0.00652347       0.01516976       0.00804755
Ni       6.34112251       7.91175562       4.13427999        5       1.00000000      -0.06114635      -0.02577169      -0.17506740
Pt       8.83398826       7.93695817       4.11671831        5       0.00000000      -0.10676849       0.02924893      -0.09825842
Ni      11.46548787       7.90262877       4.15632218        6       1.00000000       0.01338259      -0.09197392      -0.20147744
Pt       0.01232135      -0.09438957       6.43813340        9       0.00000000      -0.15329489       0.17173293       0.29956319
Pt       2.51553294      -0.03941335       6.43960106        9       0.00000000       0.20318277       0.10492535       0.31951539
Pt       5.11485121      -0.03854265       6.28337530        8       0.00000000      -0.09411628       0.11778072       1.15562114
Pt       7.62419222      -0.09948525       6.42816419        9       0.00000000       0.10688723       0.18963151       0.44286092
Ni       1.27253198       2.19868498       6.32758206        8       1.00000000       0.01570062       0.01756344      -0.14368920
Pt       3.80406373       2.26810852       6.24575253        7       0.00000000      -0.00484372      -0.12393842       0.58224255
Ni       6.35868444       2.17727552       6.26901149        8       1.00000000      -0.00477740      -0.03391663       0.35097305
Pt       8.91238882       2.23473551       6.22227027        7       0.00000000      -0.00653947      -0.18724942       0.82695231
Ni       2.51414739       4.36016441       6.31239789        8       1.00000000       0.04049845      -0.02553471      -0.32142488
Ni       5.09187922       4.36837092       6.33827858        8       1.00000000      -0.06186073      -0.00181284      -0.20062420
Ni       7.56403110       4.30576630       6.34633164        8       1.00000000      -0.02756785      -0.01017350      -0.09066272
Ni      10.25865218       4.29967645       6.31420432        8       1.00000000       0.02958437       0.00754717      -0.22969845
Ni       3.81067643       6.37968487       6.32638757        8       1.00000000      -0.00496342      -0.01572552      -0.21557250
Ni       6.32649404       6.40715716       6.30635644        8       1.00000000       0.01809412       0.05351426      -0.25485162
Pt       8.90335438       6.33919750       6.35468504        9       0.00000000       0.02400483       0.01568177       0.11785621
Ni      11.47894648       6.40174818       6.29159062        8       1.00000000      -0.00894487       0.07611317      -0.18836984
