64
Lattice="10.192661599119289 -0.002080372604691465 0.022916118700904972 5.0945291440346985 8.713793059977318 -0.058925005947649996 0.0 0.0 21.45796536134437" Properties=species:S:1:pos:R:3:tags:I:1:initial_magmoms:R:1:forces:R:3 unique_id=074c129469fc495da462e3ee34550b7f energy=-369.2819071334319 stress="0.002052556823481249 3.0143443254514845e-05 0.0002677866924348657 3.0143443254514845e-05 0.0011755381127328893 -0.00011443084701396998 0.0002677866924348657 -0.00011443084701396998 -0.005182595857993095" pbc="T T T"
Ni       0.04189768      -0.05598781       0.16829589        2       1.00000000       0.07815014      -0.01171616      -0.33848815
Ni       2.48904161      -0.01078779       0.16580259        2       1.00000000       0.00262105       0.13032020      -0.47910931
Pt       5.09493362      -0.06583927       0.14639113        1       0.00000000      -0.05113695       0.32067772      -1.11709005
Ni       7.67294184      -0.06957472       0.18408083        2       1.00000000      -0.06087606      -0.02268471      -0.39580115
Ni       1.27488475       2.19423875       0.08245135        1       1.00000000      -0.02075180       0.05376673       0.28270175
Pt       3.73794452       2.24302107       0.14647679        1       0.00000000       0.12259543      -0.07414528      -0.57598122
Pt       6.38714354       2.25056869       0.07265678        1       0.00000000      -0.04030120      -0.09147041      -0.18281116
Pt       9.00022352       2.22986321       0.10283631        1       0.00000000      -0.01743388       0.15297734      -0.73394612
Ni       2.52248995       4.40446422       0.04806704        0       1.00000000       0.03974734       0.02236815       0.36124881
Ni       5.08355489       4.43600159       0.05710369        1       1.00000000      -0.09531279       0.01826260       0.23816310
Ni       7.64657365       4.42520681       0.06809547        1       1.00000000       0.06588733       0.01182260       0.22578442
Ni      10.24121234       4.39607067       0.07294758        1       1.00000000       0.04268555       0.03679644       0.34852087
Ni       3.82403319       6.50920545       0.03583567        0       1.00000000       0.01093740       0.00060803       0.24972453
Ni       6.32814562       6.50301052       0.00000000        0       1.00000000      -0.05871767       0.03544344       0.13932586
Ni       8.90791135       6.45736571       0.09728560        1       1.00000000       0.04459729      -0.05715939      -0.47148392
Ni      11.52100857       6.46751989       0.02184153        0       1.00000000       0.05315897       0.04054821       0.17583530
Ni       1.29318075       0.76599672       2.17338250        4       1.00000000       0.03948813       0.10111122       0.18323181
Ni       3.80085620       0.76694710       2.20338745        4       1.00000000      -0.04665353       0.04455285       0.25743970
Ni       6.37403181       0.74183217       2.22699558        4       1.00000000      -0.00959420       0.05908846       0.24490722
Pt       8.93881663       0.71708149       2.20237193        4       0.00000000       0.01200517      -0.07217937       0.17495778
Ni       2.51466050       2.92306383       2.21363866        4       1.00000000      -0.00212687       0.00265844       0.13255464
Ni       5.07216759       2.91925890       2.18923402        4       1.00000000      -0.05165908      -0.00625682       0.09975510
Ni       7.65827924       2.93563328       2.19100750        4       1.00000000      -0.00785454       0.01571513       0.10747997
Ni      10.25168257       2.93493395       2.21299188        4       1.00000000       0.07531625       0.01131395       0.15412482
Ni       3.81658112       5.05426672       2.12432311        3       1.00000000      -0.01955865      -0.09960719       0.06442749
Ni       6.33354829       5.03358626       2.10153180        3       1.00000000      -0.07923125      -0.12219517       0.01230068
Ni       8.92531625       4.99306955       2.14347860        3       1.00000000       0.00783343      -0.13752100       0.11024407
Ni      11.51718235       4.99805926       2.15219577        4       1.00000000       0.08494582      -0.10071733       0.16312934
Ni       5.07480415       7.17467920       2.07370738        3       1.00000000      -0.09470499      -0.11246282       0.07753705
Pt       7.55830429       7.20079372       2.07665281        3       0.00000000       0.00243454      -0.06142426       0.05567337
Pt      10.28432941       7.13377538       2.15208529        4       0.00000000       0.05544347      -0.24329505       0.11192073
Ni      12.77343504       7.16762957       2.09631966        3       1.00000000       0.07716701      -0.09683835       0.08527057
Ni       0.07090767       1.46489208       4.23648999        5       1.00000000       0.11392272      -0.00026386      -0.11605121
Ni       2.51293401       1.47821467       4.21054253        5       1.00000000      -0.03776488       0.03028186      -0.15407187
Ni       5.11134275       1.44589158       4.20303099        5       1.00000000      -0.03641817       0.01511744      -0.28656630
Ni       7.62528158       1.42172633       4.25629037        6       1.00000000      -0.08791836      -0.08286774      -0.19878105
Ni       1.28833939       3.60626059       4.25239603        6       1.00000000       0.02289908      -0.03851782      -0.07866715
Ni       3.78793254       3.65370607       4.19026200        5       1.00000000      -0.03765480       0.07422230      -0.18867906
Pt       6.37033624       3.61895638       4.24351060        5       0.00000000      -0.01428326      -0.01560629      -0.01374755
Ni       8.96838052       3.64377124       4.20336643        5       1.00000000       0.02930438       0.04902912      -0.17530060
Ni       2.53368608       5.71221907       4.23422948        5       1.00000000      -0.04787926      -0.05669729      -0.14982955
Ni       5.09794553       5.75058471       4.24058078        5       1.00000000       0.00576230      -0.03964791      -0.15913631
Ni       7.63653580       5.75266422       4.23720887        5       1.00000000      -0.00162241       0.03166068      -0.12677961
Ni      10.24870527       5.70123571       4.25991512        6       1.00000000       0.04498662      -0.01542278      -0.09140021
Pt       3.83173150       7.86475986       4.18488529        5       0.00000000      -0.01105940       0.01107098       0.01050828
Ni       6.35570895       7.93881335       4.20119364        5       1.00000000      -0.04161196      -0.00099533      -0.11641540
Pt       8.89498439       7.96497315       4.18344203        5       0.00000000      -0.10097320       0.01657745      -0.12772757
Ni      11.50351875       7.92104449       4.20369797        5       1.00000000       0.02484861      -0.09269430      -0.18833540
Pt       0.02282610      -0.08824364       6.44566125        8       0.00000000      -0.15328092       0.17333541       0.27916801
Pt       2.53113312      -0.03176664       6.44728329        8       0.00000000       0.17438247       0.12456897       0.43483294
Pt       5.14045960      -0.02912175       6.31916157        7       0.00000000      -0.07869070       0.12765903       1.19945768
Pt       7.65101371      -0.09460848       6.45796536        9       0.00000000       0.10610669       0.18011063       0.41481893
Ni       1.28673593       2.20663118       6.34247831        7       1.00000000       0.00106118       0.02494406      -0.17093583
Pt       3.82204361       2.27599513       6.26750856        7       0.00000000       0.00129243      -0.10215311       0.53619792
Ni       6.38306739       2.18545598       6.29939371        7       1.00000000      -0.00941284      -0.02700542       0.32476593
Pt       8.93964869       2.24201231       6.25800515        7       0.00000000      -0.00505605      -0.16830628       0.76491075
Ni       2.53051937       4.37086290       6.33298057        7       1.00000000       0.03315599      -0.02258048      -0.34689575
Ni       5.11243144       4.38001506       6.36574644        8       1.00000000      -0.07175893      -0.01525172      -0.22668324
Ni       7.58945315       4.31689375       6.37481429        8       1.00000000      -0.02682420      -0.01816669      -0.11960869
Ni      10.28838761       4.31040896       6.35445227        8       1.00000000       0.03290538      -0.00672740      -0.25215263
Ni       3.82942372       6.39477077       6.35262600        8       1.00000000      -0.02143561      -0.02477732      -0.23435259
Ni       6.35016720       6.42227872       6.33035203        7       1.00000000      -0.00127636       0.05013048      -0.19383418
Pt       8.93271003       6.35188242       6.38924671        8       0.00000000       0.04047679      -0.00355442       0.19084165
Ni      11.51034833       6.41555551       6.33792145        7       1.00000000      -0.00528417       0.07416958      -0.20109821
