64
Lattice="10.320750366943658 -0.02959374668525648 -0.011110992653450774 5.134746247049234 8.883561502471949 -0.057432360766532554 -0.009072087512255682 -0.04890997684277764 8.79889153049216" Properties=species:S:1:pos:R:3:tags:I:1:initial_magmoms:R:1:forces:R:3 unique_id=752a3111868246e2b23059285b20d423 stress="0.0002091432439379759 2.914505805348946e-06 -7.298843345042032e-06 2.914505805348946e-06 0.00021264290164203087 1.8331754611777265e-05 -7.298843345042032e-06 1.8331754611777265e-05 0.0002036957062316186" energy=-398.5603344162985 pbc="T T T"
Ni      -0.00098700       0.01706152       0.17948037        4       1.00000000       0.04055066       0.03480099       0.24050298
Ni       2.57408445      -0.00814160       0.20690839        4       1.00000000      -0.01195922      -0.01591083       0.40808707
Ni       5.15536475      -0.03257938       0.16046088        4       1.00000000      -0.05324219       0.11004738       0.28337984
Ni       7.74683628      -0.07158482       0.08223345        4       1.00000000       0.00189628      -0.17799348       0.12494856
Ni       1.25034630       2.22076570       0.09238859        4       1.00000000      -0.14905193      -0.02446225       0.22345059
Pt       3.79178455       2.21063911       0.09417317        4       0.00000000      -0.08954685       0.01156259      -0.13402737
Pt       6.46667969       2.14426199       0.17165794        4       0.00000000       0.06922533      -0.10010139       0.18333002
Ni       9.06339068       2.19063003       0.12781090        4       1.00000000       0.09177708       0.01165490       0.11894816
Ni       2.54884669       4.44518883       0.03259146        4       1.00000000       0.00286437      -0.00858876       0.01867365
Ni       5.13358852       4.43343214       0.12456081        4       1.00000000       0.08547629      -0.07707260       0.23350708
Pt       7.80079167       4.43068246       0.07197711        4       0.00000000       0.10227706      -0.02597239      -0.09938046
Ni      10.32995536       4.40310080       0.02874999        4       1.00000000       0.06181738      -0.11017184       0.06341806
Ni       3.81497701       6.67518220       0.13113315        4       1.00000000      -0.05857339       0.03355107       0.28055653
Pt       6.40766562       6.69479890       0.14174693        4       0.00000000      -0.06680934      -0.02462232       0.11574603
Ni       9.02996216       6.65420535       0.02497965        4       1.00000000      -0.01646024      -0.00773560       0.04340744
Ni      11.60537785       6.64043882       0.00914749        4       1.00000000       0.07630108      -0.01944204      -0.01562507
Ni       1.29797663       0.74461200       2.16277122        3       1.00000000      -0.01893944       0.12757723      -0.04246068
Ni       3.85729872       0.74247288       2.19110559        3       1.00000000       0.04942235       0.06243910       0.02289471
Ni       6.44367943       0.72402566       2.23201417        3       1.00000000       0.00618364       0.09025687       0.14629492
Pt       9.02508737       0.73791823       2.16493723        3       0.00000000      -0.06591407       0.05950514       0.06068715
Ni       2.55651349       2.91781812       2.18501419        3       1.00000000      -0.07310736       0.01074751      -0.02139632
Ni       5.14160541       2.91730394       2.21761098        3       1.00000000      -0.09433595      -0.13395556      -0.01438763
Ni       7.75651599       2.94890813       2.21835412        3       1.00000000       0.12463767       0.04948932      -0.04453090
Ni      10.30283616       2.91360245       2.16460582        3       1.00000000       0.00870678       0.00884475       0.02910601
Pt       3.90164148       5.16079963       2.19131816        3       0.00000000       0.00201589      -0.05614321       0.06105723
Ni       6.45850736       5.15924152       2.20054067        3       1.00000000       0.09475762       0.09496767      -0.05310013
Ni       8.98693826       5.13113675       2.19743631        3       1.00000000      -0.03632477      -0.06709608       0.12555568
Pt      11.58191846       5.10498975       2.09862405        3       0.00000000       0.00321631      -0.05133803      -0.02569846
Ni       5.12979856       7.39474730       2.15323726        3       1.00000000      -0.08564223      -0.00829289      -0.07695518
Ni       7.71499843       7.38108720       2.15182481        3       1.00000000       0.02538610      -0.08133774      -0.06981823
Pt      10.27400122       7.39451763       2.05849397        3       0.00000000       0.00210233      -0.10871479      -0.02672080
Ni      12.88226326       7.37416975       2.10927501        3       1.00000000      -0.04999293      -0.00915503      -0.05065556
Ni      -0.02615226       1.49096989       4.34035659        2       1.00000000       0.00111521       0.02753381      -0.13448203
Pt       2.60320164       1.50390026       4.30192026        2       0.00000000      -0.00387823      -0.00442078      -0.08465216
Ni       5.15279994       1.47613531       4.31318352        2       1.00000000       0.05637304       0.07256529      -0.17091677
Ni       7.75472562       1.46530489       4.31855790        2       1.00000000       0.06817577       0.09442905      -0.12637694
Pt       1.26645599       3.66969258       4.38781161        2       0.00000000      -0.03733418      -0.05956186      -0.08877333
Ni       3.86523903       3.69078375       4.33284761        2       1.00000000       0.01470102       0.02633258      -0.14823543
Pt       6.45718443       3.68269251       4.23532587        2       0.00000000      -0.06375503      -0.06396690       0.07018423
Ni       8.99988004       3.63834944       4.31196583        2       1.00000000       0.01097286      -0.07871907      -0.28102650
Ni       2.56875172       5.86707000       4.34038280        2       1.00000000      -0.02993433      -0.03705291      -0.09250747
Ni       5.12615937       5.86233042       4.30423400        2       1.00000000       0.00881881      -0.01005505      -0.01650567
Ni       7.72514797       5.84131949       4.28929447        2       1.00000000      -0.02556660      -0.02017349      -0.23563933
Pt      10.25704120       5.83046627       4.38712212        2       0.00000000      -0.02976389       0.00121680      -0.08046891
Pt       3.83506745       8.11295113       4.27127361        2       0.00000000      -0.01677781      -0.08906415       0.07056872
Pt       6.40216107       8.08905804       4.19238434        2       0.00000000       0.00330751      -0.01670680       0.01557697
Pt       8.98875678       8.10023734       4.26735658        2       0.00000000      -0.02855719       0.05821458       0.10861180
Pt      11.61517013       8.13453392       4.28924596        2       0.00000000       0.00975433       0.04789573      -0.02657967
Pt      -0.02071432       0.01304947       6.58632231        1       0.00000000      -0.02308599       0.07448526       0.11683641
Pt       2.59310918       0.01517626       6.61087832        1       0.00000000       0.03206679       0.11780488       0.26115863
Pt       5.19163589      -0.10935192       6.59219477        1       0.00000000       0.06116572      -0.16178027       0.12663687
Ni       7.73303240      -0.05899796       6.53208420        1       1.00000000       0.06920853       0.09396461      -0.14176728
Ni       1.29474562       2.24424794       6.52404122        1       1.00000000       0.06346898       0.12291411      -0.03843883
Ni       3.83162391       2.21194527       6.43834626        1       1.00000000      -0.01530606       0.02723037      -0.26784743
Pt       6.45324012       2.15616627       6.43214625        1       0.00000000       0.02435458       0.03075004      -0.22370125
Pt       9.06101505       2.25328943       6.48638676        1       0.00000000       0.15097446       0.15819399       0.02140099
Ni       2.51427177       4.38689926       6.50201826        1       1.00000000      -0.13632423      -0.02757620      -0.12904984
Pt       5.07196212       4.36284646       6.49576265        1       0.00000000      -0.09636323      -0.00779642       0.03751435
Ni       7.77182693       4.41377414       6.40927157        1       1.00000000       0.08085501       0.07689252      -0.31031226
Ni      10.31773296       4.41370950       6.51187459        1       1.00000000       0.07119176       0.15460254      -0.01338340
Pt       3.73337353       6.61001833       6.51518998        1       0.00000000      -0.13349810       0.02480196       0.16659374
Pt       6.48505310       6.56637943       6.41521799        1       0.00000000       0.02144628       0.01533501      -0.26496264
Ni       9.02977561       6.56147310       6.49327814        1       1.00000000      -0.01285665      -0.08632018      -0.09147714
Ni      11.56965481       6.56377951       6.49318660        1       1.00000000      -0.07366343      -0.15930672      -0.13677338
