64
Lattice="10.36768095917735 -0.022584011180232066 0.06259776566627108 5.164282152187244 8.924522254369734 0.023749730947945566 0.05111086164022533 -0.007117408653633493 8.883287797359388" Properties=species:S:1:pos:R:3:tags:I:1:initial_magmoms:R:1:forces:R:3 unique_id=ad05733d91f64b1db66264626f8dd261 stress="3.164079510165757e-05 6.449627949925977e-06 -1.3751994110354874e-05 6.449627949925977e-06 3.683003193368645e-05 1.5070948296429883e-05 -1.3751994110354874e-05 1.5070948296429883e-05 5.3718642688098395e-05" energy=-401.1756365876246 pbc="T T T"
Ni       0.01416436      -0.00144920       0.17215703        4       1.00000000       0.06459582       0.04068647       0.40719603
Ni       2.59561316      -0.00102018       0.11868338        4       1.00000000       0.01899900       0.01152784       0.30929600
Ni       5.18063141      -0.03497796       0.17996970        4       1.00000000      -0.02473436       0.02745942       0.26542158
Ni       7.77713975      -0.07142248       0.22058833        4       1.00000000       0.03531517      -0.16941622       0.45428979
Ni       1.29986424       2.23263329       0.16753000        4       1.00000000       0.02007934       0.00102780       0.34640829
Pt       3.79765938       2.17625307       0.13058382        4       0.00000000      -0.07305699      -0.00160601      -0.05480781
Pt       6.47513437       2.13068533       0.14922459        4       0.00000000       0.06281849      -0.16382007      -0.05474258
Pt       9.15921847       2.20765469       0.18277327        4       0.00000000       0.18404844       0.00557195       0.01232323
Ni       2.54650682       4.48230655       0.06908296        4       1.00000000      -0.04012346       0.02139836       0.04352564
Pt       5.13253679       4.47603802       0.16565440        4       0.00000000      -0.05094621       0.02164288       0.15563957
Pt       7.81192873       4.48534875       0.17058494        4       0.00000000       0.13491763       0.08441227       0.15677191
Ni      10.41023134       4.47017474       0.12379731        4       1.00000000       0.14722715       0.08832338       0.14241970
Ni       3.83085496       6.72736428       0.10607902        4       1.00000000      -0.09779747       0.10046863       0.25055805
Pt       6.47465971       6.78975598       0.23050991        4       0.00000000       0.01588047       0.05768647       0.11901279
Ni       9.09244263       6.71599851       0.11825158        4       1.00000000       0.08161802       0.07556504       0.14458731
Ni      11.66939177       6.67731040       0.12228716        4       1.00000000       0.14139170      -0.00842126       0.06255020
Ni       1.33696286       0.76440091       2.21738035        3       1.00000000       0.11296293       0.16942019      -0.09723616
Ni       3.85953024       0.75399049       2.24994404        3       1.00000000      -0.19390591       0.04444785       0.08578976
Ni       6.49526660       0.74343013       2.27309032        3       1.00000000       0.03412562       0.04133559       0.12900444
Pt       9.09420462       0.72004279       2.31259805        3       0.00000000       0.04265779       0.20037879      -0.00479895
Ni       2.58108165       2.92516506       2.27559454        3       1.00000000      -0.05260900      -0.13228697       0.21630403
Ni       5.18247062       2.94037986       2.27881777        3       1.00000000      -0.13961595      -0.02950257      -0.05462285
Ni       7.77136707       2.93491275       2.30717676        3       1.00000000       0.09918433      -0.14171993      -0.11657965
Ni      10.41134839       2.92803617       2.32891666        3       1.00000000       0.13251832      -0.12060569       0.18847843
Pt       3.87206784       5.20677105       2.29158253        3       0.00000000      -0.06323030      -0.10758299      -0.05061847
Ni       6.48340910       5.20513893       2.28533869        3       1.00000000       0.00103130       0.09288106      -0.06307970
Pt       9.04431852       5.16736351       2.34893649        3       0.00000000      -0.15047342      -0.11420509      -0.00356107
Pt      11.67599129       5.12864630       2.26567716        3       0.00000000      -0.07232541      -0.08448729       0.04034680
Ni       5.18079885       7.45139219       2.24820334        3       1.00000000      -0.07433101       0.04069876       0.02019154
Ni       7.76420958       7.46472133       2.27160195        3       1.00000000       0.07775867       0.12444426       0.00736370
Pt      10.36356848       7.47755638       2.19705627        3       0.00000000       0.03280362      -0.06786785      -0.02586952
Ni      12.96546330       7.42212384       2.26519506        3       1.00000000      -0.01170432      -0.05591099      -0.03100894
Ni       0.04826488       1.54494807       4.37811886        2       1.00000000       0.17083929       0.20860208      -0.22685654
Ni       2.59783161       1.53479506       4.40671114        2       1.00000000      -0.05934270       0.16245422      -0.27473829
Pt       5.15922995       1.52636851       4.39832796        2       0.00000000      -0.07949299       0.02164895      -0.14563969
Ni       7.81082137       1.49213498       4.44059004        2       1.00000000      -0.01262178      -0.03104912      -0.14342262
Ni       1.33717447       3.68672048       4.41479585        2       1.00000000       0.08088446      -0.11735348      -0.22559654
Ni       3.82810624       3.69518537       4.42843641        2       1.00000000      -0.27140165      -0.03792073      -0.16522085
Pt       6.55937636       3.68769447       4.35142985        2       0.00000000       0.07216689       0.05062560      -0.13343893
Ni       9.12348278       3.66204710       4.42525917        2       1.00000000       0.16891407      -0.26701921      -0.25876883
Ni       2.59567401       5.89731905       4.47544310        2       1.00000000      -0.05018037      -0.13794849       0.08274591
Pt       5.17803358       5.92616315       4.40405156        2       0.00000000       0.12498901      -0.01808457       0.10861853
Ni       7.79532439       5.93277410       4.43300808        2       1.00000000      -0.06554206       0.09114532      -0.14060440
Pt      10.39402994       5.83813899       4.57171119        2       0.00000000       0.06760267      -0.11255847       0.12671649
Pt       3.89177786       8.18768568       4.40567571        2       0.00000000      -0.12711587      -0.00173803       0.17306005
Pt       6.49777609       8.25714052       4.34289000        2       0.00000000      -0.04483317       0.20291645      -0.11177506
Pt       9.03825179       8.16452492       4.45370176        2       0.00000000      -0.07906817      -0.04369060      -0.05902929
Pt      11.68623565       8.14994484       4.43574080        2       0.00000000       0.02803891       0.01406709      -0.04493152
Pt       0.05949878      -0.00899746       6.64680521        1       0.00000000       0.04292184       0.02368799       0.22172947
Ni       2.63760180      -0.00083163       6.62419205        1       1.00000000      -0.08669869       0.09405353      -0.12724433
Pt       5.15124090      -0.02702399       6.69485363        1       0.00000000      -0.15281134       0.02393363       0.15772612
Pt       7.77307743      -0.07060943       6.70601892        1       0.00000000      -0.14924297      -0.11705032       0.26878752
Pt       1.40872940       2.28893342       6.56723010        1       0.00000000       0.08954969       0.11775078       0.07415949
Ni       3.90174137       2.21542546       6.54326133        1       1.00000000      -0.06044858      -0.05472586      -0.25545472
Ni       6.49711173       2.20709030       6.56513121        1       1.00000000      -0.01046458      -0.01848002      -0.29117647
Pt       9.11016672       2.23315394       6.52412945        1       0.00000000       0.01198614      -0.00151593      -0.27067735
Ni       2.59259584       4.48935780       6.58638133        1       1.00000000      -0.12588032       0.19949839      -0.26709559
Pt       5.11195356       4.39097109       6.55657864        1       0.00000000      -0.09539542      -0.10008859      -0.28371213
Pt       7.86187297       4.47419543       6.54575740        1       0.00000000       0.08850794      -0.01302229      -0.34701305
Ni      10.43252542       4.46389071       6.65956149        1       1.00000000       0.14783607      -0.03843198      -0.02592708
Ni       3.86137242       6.65766155       6.61937487        1       1.00000000      -0.13193688      -0.08910401      -0.12575152
Pt       6.54759115       6.69953792       6.58124328        1       0.00000000       0.00771324       0.09442248      -0.11536314
Ni       9.12117318       6.66917290       6.66103710        1       1.00000000       0.09352752      -0.00602287      -0.07433109
Ni      11.69122344       6.61155024       6.67393107        1       1.00000000       0.01191977      -0.15094603      -0.10032764
