64
Lattice="10.212141965683516 -0.02437181440156916 0.012769986805214897 5.084964372433679 8.84385766959532 0.003934898019157288 0.0 0.0 21.59917916377982" Properties=species:S:1:pos:R:3:tags:I:1:initial_magmoms:R:1:forces:R:3 unique_id=d5cfa953c5d44a1284ffe83e7ba1bb02 energy=-371.95178819667586 stress="0.004099978122339677 -9.560437260526798e-05 0.00023790688130997457 -9.560437260526798e-05 0.004219250007676688 -0.00019361281283602466 0.00023790688130997457 -0.00019361281283602466 -0.0025674824181079175" pbc="T T T"
Ni       0.05294496       0.04738586       0.15982277        2       1.00000000       0.19020005       0.10683713      -0.59822721
Ni       2.57327273       0.03374594       0.21595401        2       1.00000000       0.00315640      -0.00765227      -0.24703955
Ni       5.05502069      -0.02689621       0.08835190        1       1.00000000      -0.03134025       0.06740436       0.21349936
Pt       7.66738322      -0.06571289       0.00785058        0       0.00000000      -0.05937953       0.07517188      -0.47789903
Ni       1.27677720       2.23160609       0.11994081        1       1.00000000       0.04444841       0.05505997       0.42221649
Ni       3.77518929       2.21224909       0.21126974        2       1.00000000      -0.02286813       0.06468493      -0.01047501
Pt       6.34970220       2.28400069       0.17891039        2       0.00000000      -0.04178339       0.06759049      -0.92910572
Ni       8.98448607       2.25427876       0.08604563        1       1.00000000      -0.01301522       0.07981177       0.18239024
Ni       2.52620256       4.40740094       0.11537704        1       1.00000000      -0.07240230      -0.06323572       0.43122535
Ni       5.03224190       4.41596251       0.18158761        2       1.00000000      -0.20565869       0.02693886      -0.22625696
Ni       7.72279456       4.40577906       0.09055627        1       1.00000000       0.20200450       0.02352864       0.09094325
Ni      10.21672331       4.39128793       0.11580304        1       1.00000000       0.06002573       0.06412539       0.39257322
Ni       3.79745407       6.56936342       0.06296679        1       1.00000000      -0.03393413      -0.13109459       0.03267484
Pt       6.41586462       6.62940061       0.00000000        0       0.00000000       0.17337581       0.07082987      -0.52023453
Ni       8.93985192       6.59806215       0.15605018        2       1.00000000      -0.05216137      -0.14419478      -0.14317947
Ni      11.44909103       6.54975498       0.07098571        1       1.00000000      -0.05171253      -0.12997138       0.19763251
Ni       1.33603931       0.78884741       2.16825814        3       1.00000000       0.05758888       0.14672263       0.02684832
Ni       3.78362297       0.74532279       2.18984719        3       1.00000000      -0.00961291      -0.01196659       0.09574653
Pt       6.29278509       0.74278503       2.28500470        4       0.00000000      -0.04044307       0.00392492       0.16735296
Pt       9.01511772       0.82699596       2.19236921        3       0.00000000       0.01479676       0.05072045       0.01156903
Ni       2.54178736       2.96812712       2.17374712        3       1.00000000      -0.09463686       0.09052377       0.01939736
Ni       5.00560001       2.95677115       2.24373614        3       1.00000000      -0.18026848      -0.02609144       0.27510797
Ni       7.71857849       2.97847862       2.22015974        3       1.00000000       0.15156143       0.03562419       0.12528856
Ni      10.24404544       2.98777385       2.19698931        3       1.00000000       0.09535233       0.06050303      -0.00696426
Ni       3.78724764       5.07651695       2.21689331        3       1.00000000      -0.07553256      -0.11505321       0.14277320
Pt       6.41975162       5.10923943       2.19985068        3       0.00000000       0.08848144      -0.10499178       0.07523630
Ni       8.95507128       5.08941532       2.22053686        3       1.00000000       0.10476022      -0.12326325       0.08763312
Ni      11.46008688       5.06724855       2.19407152        3       1.00000000      -0.07591762      -0.09806063      -0.03264799
Pt       5.11082136       7.35084273       2.18633963        3       0.00000000      -0.03303400      -0.05650489      -0.07000204
Ni       7.66157486       7.38185484       2.21430124        3       1.00000000      -0.03500048      -0.00881676       0.13054989
Pt      10.10871327       7.29156355       2.24368396        3       0.00000000      -0.09511254      -0.12538908       0.05552593
Pt      12.70982817       7.22773493       2.22976845        3       0.00000000      -0.04776463      -0.16138226       0.02828731
Ni       0.02051083       1.51263890       4.38636649        6       1.00000000       0.12703522      -0.00778458      -0.11131226
Pt       2.58646834       1.49483526       4.27057307        5       0.00000000       0.07161743       0.05931326      -0.02227229
Ni       5.08733043       1.43601278       4.38609679        6       1.00000000      -0.05095633      -0.00037376      -0.02127293
Pt       7.72080034       1.47628039       4.38488101        6       0.00000000       0.09260339       0.05728345       0.13379532
Pt       1.24073161       3.74779386       4.36837047        6       0.00000000      -0.00252706      -0.01670900      -0.01290272
Ni       3.81670948       3.72793878       4.33773937        5       1.00000000      -0.01786201       0.05825955      -0.15083188
Pt       6.37236791       3.70971837       4.35599977        6       0.00000000      -0.04599601       0.08661441      -0.06886803
Ni       8.94770910       3.71291372       4.39145340        6       1.00000000       0.00922346       0.15033344      -0.08719191
Ni       2.52490542       5.86467723       4.41408906        6       1.00000000      -0.06919595      -0.07198876      -0.02748741
Ni       5.05980380       5.86808026       4.37424601        6       1.00000000      -0.02690227      -0.11208381      -0.21964507
Ni       7.71249244       5.86649037       4.37417096        6       1.00000000       0.18473592      -0.03978489      -0.20844789
Ni      10.20265733       5.88494513       4.38220071        6       1.00000000      -0.03111821      -0.02034072      -0.10178840
Pt       3.76996797       8.01913812       4.41496787        6       0.00000000       0.01549408      -0.04272922      -0.05073168
Pt       6.42700746       8.04391040       4.34699102        5       0.00000000       0.12918242      -0.03254373      -0.10475166
Ni       8.97189929       8.07707512       4.37720464        6       1.00000000      -0.00689016       0.03513633      -0.06299501
Ni      11.41301129       8.04729809       4.43945778        6       1.00000000      -0.10569516      -0.06866826      -0.02527571
Pt      -0.05133791       0.03982804       6.58532325        9       0.00000000      -0.10193863       0.07688397       0.27728984
Pt       2.58419947      -0.03100775       6.59917916        9       0.00000000       0.05328045      -0.10318808       0.18860583
Ni       5.15380604      -0.05689591       6.49683248        8       1.00000000       0.00947832      -0.01463036      -0.14689257
Ni       7.61961102      -0.07089458       6.43438477        7       1.00000000      -0.09910286      -0.03535733       0.57895588
Ni       1.23452686       2.25949646       6.53168559        8       1.00000000      -0.01880586      -0.02021120      -0.20099148
Pt       3.78940569       2.25398323       6.56243102        9       0.00000000       0.13786641       0.19846065       0.12856677
Pt       6.42576174       2.16575263       6.51620708        8       0.00000000      -0.17186023       0.02885798       1.04949666
Ni       8.97821941       2.24824206       6.52970149        8       1.00000000       0.04763550       0.13040729      -0.10967169
Ni       2.49654733       4.47073699       6.52385023        8       1.00000000      -0.02451216       0.09007688      -0.25299500
Pt       5.07046514       4.52384410       6.56245914        9       0.00000000      -0.10668574      -0.07105281       0.20603079
Ni       7.69821770       4.40498942       6.52079609        8       1.00000000       0.05367347      -0.07200696      -0.16126692
Ni      10.22135586       4.37842006       6.53579173        8       1.00000000       0.01466993       0.02004284      -0.27794051
Ni       3.76205272       6.62453309       6.52459963        8       1.00000000      -0.07712474       0.02070614      -0.04493742
Ni       6.37414346       6.60971783       6.41309217        7       1.00000000       0.08479703      -0.00979829       0.40021834
Pt       8.99066837       6.54530663       6.51499356        8       0.00000000      -0.00586038       0.00847357      -0.08293805
Ni      11.51296147       6.60466562       6.50381808        8       1.00000000       0.01756752      -0.06393165      -0.35199093
