64
Lattice="10.196327577875707 0.01833957747168232 0.010858272183226093 5.114046328923005 8.78909786086223 -0.03407730112977927 0.008865742112386804 -0.037247026213023116 8.73615177955878" Properties=species:S:1:pos:R:3:tags:I:1:initial_magmoms:R:1:forces:R:3 unique_id=bcf7b50dd1f448388290c725ec2e3d68 stress="-0.0071159639986175666 -2.4220110847816367e-06 6.808634853268274e-06 -2.4220110847816367e-06 -0.007053676818794735 -3.252420270495045e-05 6.808634853268274e-06 -3.252420270495045e-05 -0.006111621150703787" energy=-392.67783919670944 pbc="T T T"
Ni       0.03902482      -0.04636975       0.20279975        4       1.00000000       0.07863870      -0.04906153       0.18679258
Ni       2.50607543       0.01433536       0.17893681        4       1.00000000       0.01113918       0.11847037       0.06802835
Pt       5.13485458      -0.00451432       0.17260280        4       0.00000000       0.00393233       0.04963726      -0.13787074
Ni       7.66420422      -0.03677993       0.19347185        4       1.00000000       0.01244792      -0.07628461       0.11413861
Ni       1.27502025       2.21710568       0.11875947        4       1.00000000      -0.02076217       0.09201787       0.11205217
Pt       3.79420745       2.28152709       0.17971778        4       0.00000000      -0.01535191       0.06526056      -0.11563013
Ni       6.38460247       2.25834931       0.12651126        4       1.00000000      -0.01145891       0.10282779       0.15038857
Pt       8.92930871       2.27686953       0.14440616        4       0.00000000      -0.00379391       0.09998908      -0.19489562
Ni       2.53734759       4.43727955       0.09557144        4       1.00000000       0.01665600       0.04333187       0.06931003
Ni       5.12674907       4.44347414       0.09994484        4       1.00000000      -0.01518517       0.03593137       0.03655644
Ni       7.62177152       4.43892868       0.10714912        4       1.00000000      -0.05211441       0.06801042       0.09389551
Ni      10.24189115       4.43826798       0.10685522        4       1.00000000       0.07414732       0.05341865       0.04126410
Ni       3.84166171       6.56243524       0.08830493        4       1.00000000       0.02675185      -0.06106948       0.02723133
Ni       6.34244722       6.56132817       0.05245243        4       1.00000000      -0.09203492      -0.05361715      -0.08048990
Ni       8.93163562       6.52940884       0.15697762        4       1.00000000       0.04128654      -0.11530513       0.09191754
Ni      11.53292391       6.54748858       0.07027053        4       1.00000000       0.09912343      -0.04668342      -0.03187290
Ni       1.30647820       0.77877908       2.17217336        3       1.00000000       0.04308535       0.10062221       0.05459250
Ni       3.81353125       0.79717488       2.22917277        3       1.00000000      -0.01041899       0.05719870       0.00600138
Ni       6.36614059       0.78982378       2.24959043        3       1.00000000      -0.04013310       0.04211671       0.07406203
Pt       8.90208836       0.72892678       2.19197665        3       0.00000000      -0.00115517       0.00635482       0.14163689
Ni       2.53064554       2.95304360       2.24359553        3       1.00000000      -0.00956975       0.04511437       0.04020670
Ni       5.10634380       2.94641844       2.20344462        3       1.00000000      -0.03577718       0.02853708      -0.01767408
Ni       7.62418727       2.97026503       2.20837127        3       1.00000000      -0.02215274       0.02769279       0.04161753
Ni      10.24767242       2.99748068       2.20137026        3       1.00000000       0.04027149       0.02300356       0.01531198
Ni       3.84391197       5.09523489       2.14521438        3       1.00000000       0.01261318      -0.11090737      -0.03830656
Ni       6.33906462       5.08625309       2.13303892        3       1.00000000      -0.07022376      -0.04476263       0.00768774
Ni       8.94172050       5.05246592       2.16243678        3       1.00000000      -0.01335267      -0.08884667       0.01680802
Ni      11.50934153       5.06446606       2.15813843        3       1.00000000       0.04729303      -0.09639644       0.00231114
Ni       5.08717816       7.24715602       2.13372248        3       1.00000000      -0.07715961      -0.14281068       0.02700719
Pt       7.57720243       7.30989025       2.10186008        3       0.00000000      -0.04730226      -0.02247035       0.01350091
Pt      10.29902806       7.23468553       2.19910817        3       0.00000000       0.02558581      -0.12407634       0.08384332
Ni      12.78850482       7.26452369       2.13092301        3       1.00000000       0.08799678      -0.13729126      -0.01220491
Pt       0.09104416       1.50664379       4.28386319        2       0.00000000       0.06249581      -0.07480428       0.00595756
Ni       2.57879150       1.51685362       4.26932935        2       1.00000000       0.05974400       0.07611886      -0.10517669
Ni       5.11117598       1.46710301       4.26283198        2       1.00000000      -0.03989295      -0.00201985      -0.14016714
Ni       7.61298432       1.45229085       4.31748842        2       1.00000000      -0.00688319      -0.05952564      -0.02895291
Ni       1.29268822       3.64762491       4.32191968        2       1.00000000       0.01541288      -0.01525378      -0.06383610
Ni       3.81580036       3.64434086       4.25088387        2       1.00000000      -0.00330099       0.00664766      -0.22459801
Pt       6.33620249       3.59763204       4.31796821        2       0.00000000      -0.00897306      -0.03849400      -0.01105107
Ni       8.96635142       3.68995987       4.27195129        2       1.00000000       0.02470896      -0.01303968      -0.19703704
Pt       2.53475683       5.76328283       4.29958745        2       0.00000000      -0.01669379      -0.00311691      -0.10033540
Ni       5.10042789       5.81034356       4.31561490        2       1.00000000      -0.02634483      -0.09623906      -0.13535279
Pt       7.63936903       5.81239598       4.29858420        2       0.00000000       0.00797121      -0.00569016      -0.01749143
Ni      10.22542727       5.79240424       4.32619340        2       1.00000000      -0.03307771      -0.05772394      -0.03516740
Pt       3.85907906       7.97989185       4.26492377        2       0.00000000       0.05091770      -0.00084170       0.05369425
Ni       6.38138102       8.02992337       4.28246282        2       1.00000000      -0.00471512       0.00024361      -0.05469467
Pt       8.93593658       8.10092933       4.25059956        2       0.00000000      -0.05865097      -0.05040925      -0.06560021
Ni      11.50795322       8.05466859       4.27515336        2       1.00000000       0.04871597      -0.01981868      -0.08326775
Pt       0.01421498      -0.08245874       6.55534239        1       0.00000000      -0.06003025      -0.00065118       0.21158904
Pt       2.52923415      -0.00612446       6.51423192        1       0.00000000       0.06723532       0.06251614       0.08228197
Pt       5.13855773       0.01059637       6.39794089        1       0.00000000      -0.02302906       0.08097413       0.07400935
Pt       7.64795723      -0.05471138       6.52510896        1       0.00000000       0.05033232      -0.01255902       0.14849244
Ni       1.28971514       2.24681162       6.45814955        1       1.00000000       0.02907082       0.07106054      -0.00608043
Pt       3.82849022       2.31422540       6.35924801        1       0.00000000       0.00811885       0.08960449      -0.04973697
Ni       6.37619045       2.23745923       6.46719919        1       1.00000000      -0.02653983       0.03984784       0.03425467
Pt       8.91058843       2.30420383       6.37961645        1       0.00000000      -0.05661322       0.07942458       0.00392357
Ni       2.53295910       4.40881949       6.46219686        1       1.00000000      -0.02421155       0.06854927       0.01002838
Ni       5.11826109       4.43423629       6.46288542        1       1.00000000      -0.04601054       0.09297539      -0.02256105
Ni       7.59057836       4.38535948       6.48071645        1       1.00000000      -0.15505852       0.02397572       0.03041203
Ni      10.28607178       4.38058091       6.43980540        1       1.00000000       0.12320129      -0.00404850      -0.10074762
Ni       3.84511408       6.47880402       6.46808755        1       1.00000000      -0.02119034      -0.08333275      -0.01098371
Ni       6.35276359       6.50764790       6.45150118        1       1.00000000      -0.02737289       0.00115830      -0.13387063
Pt       8.96676525       6.45576620       6.52788866        1       0.00000000       0.01116138      -0.04771642       0.13279367
Ni      11.51434070       6.51773462       6.45593333        1       1.00000000      -0.00351997       0.00223586      -0.08794564
