64
Lattice="10.312364981137373 -0.02045554414294164 -0.01636113711178435 5.138467469692666 8.923631310112487 -0.016682038948378608 -0.013358812511861638 -0.008015263152778373 8.836169593114331" Properties=species:S:1:pos:R:3:tags:I:1:initial_magmoms:R:1:forces:R:3 unique_id=c111a57461c44487a6dca6d6c49943ff stress="0.0002895045181711964 1.9459713107868428e-06 5.37143011342012e-06 1.9459713107868428e-06 0.0002929640470981307 1.7236389517859247e-05 5.37143011342012e-06 1.7236389517859247e-05 0.00027400841904397927" energy=-398.9709455108952 pbc="T T T"
Ni       0.03562661       0.02062505       0.16950621        4       1.00000000       0.15595553       0.05937059       0.24462612
Ni       2.57007317      -0.00101899       0.20001669        4       1.00000000      -0.02214140      -0.01100539       0.38526194
Ni       5.11937509      -0.02471177       0.14598357        4       1.00000000      -0.13789754       0.13642215       0.29345750
Pt       7.75495748      -0.10883419       0.02964090        4       0.00000000      -0.02088936      -0.10072160      -0.09411414
Ni       1.25045851       2.23729371       0.10128687        4       1.00000000      -0.16331250       0.03715880       0.24503172
Pt       3.77646894       2.23716119       0.10715520        4       0.00000000      -0.12652611       0.04150527      -0.12163200
Pt       6.43189580       2.25486661       0.13896509        4       0.00000000      -0.01320191       0.03766724       0.28565144
Ni       9.06657256       2.23226369       0.14729793        4       1.00000000       0.06592632       0.06560098       0.27504330
Ni       2.56382923       4.47702638       0.06198767        4       1.00000000       0.05013526       0.01415347       0.03294673
Ni       5.10703458       4.47847907       0.16655945        4       1.00000000      -0.06989816       0.05947330       0.33368493
Pt       7.80730376       4.48229083       0.09017577        4       0.00000000       0.14538668       0.07639719      -0.10624469
Ni      10.33129022       4.43482639       0.05053547        4       1.00000000       0.11598768      -0.08529221       0.12345845
Ni       3.83522286       6.65175984       0.09146167        4       1.00000000      -0.04504450      -0.21806004       0.24709917
Pt       6.40210823       6.72621253       0.17368883        4       0.00000000      -0.07012997       0.01110773       0.04904916
Ni       9.02340498       6.69065171       0.04668039        4       1.00000000      -0.05292880       0.04335930      -0.00250779
Ni      11.58837293       6.63900075       0.03232443        4       1.00000000       0.00559836      -0.16627357       0.00590283
Ni       1.31810288       0.75727226       2.17479739        3       1.00000000       0.11167390       0.13245843      -0.05956135
Ni       3.81743131       0.75437031       2.19982447        3       1.00000000      -0.03844725       0.04620487       0.02226764
Pt       6.38889141       0.75750673       2.25307172        3       0.00000000      -0.02595022       0.10013880      -0.11180575
Pt       9.11377069       0.75070801       2.18069206        3       0.00000000       0.01783530      -0.02020341       0.00009239
Ni       2.57386940       2.96347735       2.21065911        3       1.00000000      -0.01007345       0.05011561       0.02401825
Ni       5.09733896       3.01997636       2.23512771        3       1.00000000      -0.21298263       0.08466890       0.01439457
Ni       7.75813641       3.01888559       2.21992757        3       1.00000000       0.10205001       0.12943659      -0.02382742
Ni      10.31353477       2.95998202       2.18305869        3       1.00000000       0.09027071       0.06651399       0.06349039
Ni       3.88636528       5.20065294       2.21110358        3       1.00000000       0.05209883      -0.01206769       0.08494004
Ni       6.41592471       5.20400947       2.22314004        3       1.00000000      -0.02690425       0.13190721      -0.07221571
Ni       8.98272902       5.16339545       2.22759700        3       1.00000000      -0.03278277      -0.10471689       0.17407668
Pt      11.63598718       5.13823166       2.12760293        3       0.00000000       0.09408261      -0.04482167       0.04076268
Ni       5.12108403       7.38983961       2.20207381        3       1.00000000      -0.13301537      -0.20430817      -0.06509191
Ni       7.69703040       7.42341720       2.19469527        3       1.00000000      -0.04163734      -0.11453146      -0.04695673
Pt      10.23504154       7.37912170       2.09909573        3       0.00000000       0.01003981      -0.15067665      -0.02974141
Ni      12.91330320       7.36983962       2.17939427        3       1.00000000       0.05565463      -0.13917460      -0.02765347
Ni       0.00956964       1.50733638       4.37852232        2       1.00000000       0.12837593      -0.00256152      -0.05299818
Pt       2.59807260       1.53359374       4.32984008        2       0.00000000       0.01611464      -0.02186007      -0.07294031
Ni       5.12115663       1.51339785       4.36754479        2       1.00000000       0.01954365       0.10774864      -0.05371368
Pt       7.78508738       1.51960497       4.34984415        2       0.00000000       0.10485584       0.06723490       0.15440971
Pt       1.28022527       3.71255536       4.42735790        2       0.00000000      -0.00876703      -0.06376622      -0.04010351
Ni       3.85626494       3.74382958       4.35337637        2       1.00000000      -0.02252228       0.08766782      -0.24480581
Pt       6.41009594       3.78656021       4.27762171        2       0.00000000      -0.07197496      -0.04666541       0.02217203
Ni       9.00286984       3.71608009       4.35112228        2       1.00000000      -0.00815300       0.00063420      -0.22150489
Ni       2.59949255       5.89790368       4.40656376        2       1.00000000       0.05211967      -0.21533676      -0.08063415
Ni       5.10164919       5.90981655       4.32943688        2       1.00000000      -0.06066253      -0.07710951      -0.20136395
Ni       7.71822964       5.90211235       4.34203317        2       1.00000000      -0.03590200       0.01588832      -0.24178547
Pt      10.24876027       5.86968607       4.43291201        2       0.00000000      -0.04307659      -0.03739031      -0.06231220
Pt       3.85141108       8.08036766       4.35860639        2       0.00000000       0.03108497      -0.10595081      -0.04138029
Pt       6.40468921       8.14086723       4.24651963        2       0.00000000      -0.03467685      -0.03732573      -0.02289256
Pt       8.98298590       8.15621291       4.32309900        2       0.00000000       0.00957849       0.04769050       0.06324279
Pt      11.60008279       8.11037413       4.38144773        2       0.00000000      -0.00501864      -0.10685676      -0.03001001
Pt      -0.04696560       0.00049491       6.60966674        1       0.00000000      -0.06866725      -0.00478448       0.09442152
Pt       2.57615441       0.03732850       6.63636331        1       0.00000000       0.02275357       0.08585587       0.23601129
Pt       5.17944150      -0.07808444       6.61434679        1       0.00000000       0.08322023      -0.18651495       0.13147045
Ni       7.73243802      -0.05719812       6.47776079        1       1.00000000       0.05948476       0.01059830      -0.28879884
Ni       1.29784480       2.27724794       6.56454877        1       1.00000000       0.12544496       0.11936072      -0.02878710
Ni       3.82490883       2.25106833       6.47954377        1       1.00000000      -0.06233177       0.05399288      -0.24565100
Pt       6.41292063       2.23272635       6.48682154        1       0.00000000       0.01893757       0.09105222      -0.28639008
Pt       9.07903819       2.30883101       6.56902029        1       0.00000000       0.13219121       0.19688834       0.14765287
Ni       2.52470495       4.47320855       6.55134129        1       1.00000000      -0.18663036       0.06591700      -0.10012809
Pt       5.02104194       4.46496800       6.55078434        1       0.00000000      -0.22711744       0.07891250       0.11745706
Ni       7.75869769       4.46975536       6.46090759        1       1.00000000       0.05180656       0.07891391      -0.30351444
Ni      10.31646297       4.47230477       6.55871702        1       1.00000000       0.12883979       0.17333631       0.02294186
Ni       3.78239576       6.66972773       6.54081055        1       1.00000000      -0.16972706      -0.01202100      -0.09517916
Pt       6.45469126       6.62916290       6.47550960        1       0.00000000       0.02568995      -0.02616786      -0.25386798
Ni       9.02699001       6.62523278       6.55024585        1       1.00000000       0.02956132      -0.10601241      -0.09886411
Ni      11.60929282       6.62272487       6.55094197        1       1.00000000       0.13669254      -0.18317573      -0.10605729
