64
Lattice="10.250264832655638 0.011935382354226073 -0.010520588315102664 5.135468760650466 8.85876806576594 -0.010949329933560584 -0.008590024388629524 -0.005363674367505365 8.760572854747188" Properties=species:S:1:pos:R:3:tags:I:1:initial_magmoms:R:1:forces:R:3 unique_id=99a273c5250347e4a10f2c25dd65e3ab stress="0.00022382553725731197 5.058449591394195e-07 -9.873365733289413e-06 5.058449591394195e-07 0.0002259683580091501 1.2064938791362136e-05 -9.873365733289413e-06 1.2064938791362136e-05 0.00022394653350292504" energy=-395.0816680558461 pbc="T T T"
Ni       0.00971682      -0.00626353       0.18220303        4       1.00000000       0.01513228       0.03095848       0.37617438
Ni       2.52856683       0.01512480       0.20117460        4       1.00000000      -0.06558104       0.07867015       0.44191946
Pt       5.11501139      -0.03586950       0.13909361        4       0.00000000      -0.03907329      -0.03841877       0.36075771
Ni       7.71127553      -0.04942970       0.17899280        4       1.00000000       0.02103235      -0.07196357       0.37868790
Ni       1.28864953       2.22388849       0.10831036        4       1.00000000       0.02823261       0.05579878       0.26920837
Pt       3.75865673       2.27266372       0.17869953        4       0.00000000      -0.06005285       0.13145126       0.14792649
Pt       6.40904430       2.23202392       0.10898491        4       0.00000000       0.04718247       0.09079581       0.00520542
Pt       9.06488908       2.22553034       0.10981310        4       0.00000000       0.10725359      -0.02184335       0.12129158
Ni       2.55491335       4.46840454       0.07080404        4       1.00000000       0.04351909       0.10486096       0.05034985
Ni       5.08612469       4.46942136       0.18461862        4       1.00000000      -0.06408953       0.09898873       0.35904002
Pt       7.73579881       4.49352310       0.09283365        4       0.00000000       0.04887370       0.08312621      -0.05935439
Ni      10.30821096       4.46649431       0.05897841        4       1.00000000       0.15050213       0.07708466       0.07939415
Ni       3.81017282       6.63580769       0.10683021        4       1.00000000      -0.08688218      -0.04412286       0.22189166
Pt       6.36938735       6.70120592       0.17020947        4       0.00000000      -0.09656379       0.02582267       0.02792120
Ni       8.99417394       6.63877304       0.06384529        4       1.00000000      -0.00174168       0.00827398       0.04283135
Ni      11.57089992       6.61644554       0.05686599        4       1.00000000       0.07612648      -0.04229830       0.06146784
Ni       1.31152647       0.74944150       2.21920569        3       1.00000000       0.02531562       0.05080778       0.14849163
Ni       3.80266939       0.77501515       2.24133319        3       1.00000000      -0.01745455       0.08191495       0.07145467
Ni       6.40242988       0.78136942       2.23970734        3       1.00000000      -0.07593690       0.07976782       0.09104405
Pt       8.98885564       0.74146720       2.23820207        3       0.00000000       0.04432060       0.17091430      -0.01196568
Ni       2.55232413       2.93095928       2.27241198        3       1.00000000       0.01615764      -0.11025055       0.19096209
Ni       5.10452231       2.97535610       2.24092773        3       1.00000000      -0.15097496       0.00548060       0.02674288
Ni       7.69600163       2.98250058       2.24224159        3       1.00000000       0.14831403       0.01319301      -0.04168372
Ni      10.27980962       2.96232737       2.24650854        3       1.00000000       0.05512830      -0.06511478       0.14555614
Ni       3.87842438       5.16297060       2.20755445        3       1.00000000       0.04622713      -0.02836083       0.12261415
Ni       6.39265336       5.17668792       2.22963409        3       1.00000000      -0.00817391       0.09614414      -0.03015179
Ni       8.94942314       5.14508793       2.23864565        3       1.00000000      -0.05314639      -0.17412905       0.14259002
Pt      11.58221332       5.10642027       2.20323314        3       0.00000000       0.12024943      -0.14411991       0.12159720
Ni       5.13572754       7.35021663       2.22520224        3       1.00000000       0.03616494      -0.12856075       0.04879697
Ni       7.65258013       7.38690462       2.21188297        3       1.00000000      -0.19351980      -0.08022245      -0.00576484
Pt      10.21878222       7.31574156       2.18973080        3       0.00000000      -0.07565591      -0.11767402      -0.22430760
Ni      12.85155473       7.35259192       2.14392159        3       1.00000000       0.06527411      -0.19327659       0.00168413
Ni       0.05436405       1.52078077       4.32036767        2       1.00000000       0.13216493       0.07956456      -0.07562653
Ni       2.51486224       1.51883721       4.28444548        2       1.00000000      -0.07283863       0.06488814      -0.13711545
Ni       5.10921728       1.50962742       4.29255813        2       1.00000000      -0.11778196       0.01343511      -0.18691132
Ni       7.68425378       1.50540536       4.31494038        2       1.00000000       0.02814291      -0.02256014      -0.07497932
Ni       1.28068272       3.67827386       4.37409112        2       1.00000000       0.00356164      -0.03294946      -0.00125221
Ni       3.80104310       3.71403166       4.27999009        2       1.00000000      -0.06515297       0.02439865      -0.20493497
Pt       6.42398700       3.69646554       4.27684826        2       0.00000000      -0.04327181      -0.00378920       0.07294146
Ni       9.01020489       3.73787995       4.28922619        2       1.00000000       0.11701356       0.02994198      -0.26367168
Ni       2.57229104       5.83286489       4.37538716        2       1.00000000       0.01759068      -0.16716516      -0.03824519
Ni       5.11819146       5.87883782       4.28156581        2       1.00000000       0.06019046      -0.18913701      -0.18678132
Ni       7.71310722       5.87772485       4.29722047        2       1.00000000       0.03376834      -0.05820873      -0.25509548
Ni      10.24743708       5.84042163       4.38151175        2       1.00000000       0.04667239      -0.09484765      -0.02923837
Pt       3.91269920       8.04548041       4.31021602        2       0.00000000       0.03502294      -0.14523206       0.24914231
Ni       6.40771072       8.12745936       4.26820770        2       1.00000000      -0.04880472       0.02678317      -0.17635809
Pt       8.88357066       8.10710908       4.27885835        2       0.00000000      -0.04394579       0.06774931       0.13746989
Pt      11.56580122       8.08864438       4.26753728        2       0.00000000       0.01413271      -0.06880911       0.04832800
Pt       0.00223526       0.02219806       6.52503336        1       0.00000000       0.01969932       0.08744256       0.13273187
Pt       2.54483007       0.01484477       6.52610389        1       0.00000000      -0.01744650       0.03757703       0.20512420
Pt       5.12362095      -0.03400264       6.43568004        1       0.00000000       0.04654125      -0.05473548      -0.37536364
Pt       7.67951843      -0.02954810       6.54526737        1       0.00000000      -0.06785625      -0.02933056       0.16947884
Ni       1.26687039       2.28632328       6.45537627        1       1.00000000      -0.06054011       0.21879235      -0.22053826
Pt       3.78340472       2.26985683       6.37695731        1       0.00000000      -0.10233975       0.09907786      -0.29998814
Ni       6.41440810       2.23498306       6.39838925        1       1.00000000      -0.02772215       0.02023473      -0.27624559
Pt       8.98084929       2.32982774       6.35573465        1       0.00000000      -0.00793862       0.15552631      -0.40231772
Ni       2.49708842       4.46244279       6.45789643        1       1.00000000      -0.14908964       0.04374233      -0.22497144
Pt       5.08581183       4.44616495       6.49788801        1       0.00000000      -0.05211492       0.03527288       0.12239608
Ni       7.72859084       4.44972226       6.39155301        1       1.00000000       0.09324220       0.10584262      -0.32074979
Ni      10.28127636       4.47673166       6.44358215        1       1.00000000       0.07330676       0.07069609      -0.22678940
Ni       3.79618067       6.59614748       6.48268472        1       1.00000000      -0.10669561      -0.09550005      -0.09514235
Pt       6.44865757       6.60051674       6.37495278        1       0.00000000       0.05255698       0.01763506      -0.33432409
Ni       9.01219173       6.56709124       6.45996027        1       1.00000000       0.11331056      -0.16709556      -0.23447984
Ni      11.53337251       6.56728042       6.47204111        1       1.00000000      -0.00953790      -0.09293909      -0.17886579
