64
Lattice="10.337922079666686 -0.033853125745135305 0.028178919815456192 5.139643372940546 8.912394798652695 0.013386966233929319 0.023007991683556547 -0.0006623173873116501 8.781973093750135" Properties=species:S:1:pos:R:3:tags:I:1:initial_magmoms:R:1:forces:R:3 unique_id=3151c5b36858426cac47bb463ef4afd8 stress="0.00024557544338818516 5.701804546194882e-06 -2.5756155440873432e-05 5.701804546194882e-06 0.0002484705278232163 3.0604868463821797e-06 -2.5756155440873432e-05 3.0604868463821797e-06 0.0002447857914547394" energy=-397.59188465395374 pbc="T T T"
Ni      -0.01443090       0.03305252       0.20787944        4       1.00000000      -0.08307991       0.09609360       0.29673602
Ni       2.57938606      -0.00193038       0.22022216        4       1.00000000      -0.02042198       0.04015423       0.41537172
Ni       5.16858961      -0.02272280       0.18051058        4       1.00000000       0.00320475       0.17664520       0.25530598
Ni       7.77907730      -0.05459987       0.23399648        4       1.00000000       0.10042866      -0.04540282       0.39291435
Ni       1.24931991       2.23131325       0.12020800        4       1.00000000      -0.13203455       0.01593269       0.25633592
Pt       3.80844126       2.23185545       0.20883113        4       0.00000000      -0.04662985       0.06099849       0.15395243
Pt       6.48486462       2.16171142       0.22188945        4       0.00000000       0.08401136      -0.02298137       0.20435592
Ni       9.08312526       2.18164230       0.20976747        4       1.00000000       0.09522170      -0.07767000       0.25721920
Ni       2.56796400       4.47196210       0.08581129        4       1.00000000       0.10600931       0.03804969       0.03815578
Ni       5.12677329       4.46401764       0.20351578        4       1.00000000      -0.00462998       0.01870999       0.34104183
Pt       7.81507688       4.44902983       0.13506952        4       0.00000000       0.12946819      -0.00987022      -0.07897775
Ni      10.35229901       4.42039833       0.10470078        4       1.00000000       0.10425471      -0.09065193       0.13566232
Ni       3.82478675       6.68793659       0.20609057        4       1.00000000      -0.04657013      -0.02916805       0.26639699
Pt       6.41211061       6.72117581       0.21392071        4       0.00000000      -0.06127616       0.03850267       0.05334627
Ni       9.04710155       6.67993514       0.10327952        4       1.00000000      -0.00523567       0.02851470       0.04482274
Ni      11.62969391       6.65944206       0.09945683        4       1.00000000       0.16620465       0.02426463      -0.04174122
Ni       1.26811472       0.76043169       2.15898025        3       1.00000000      -0.15320782       0.12499815      -0.10231308
Ni       3.87743794       0.73979590       2.21262802        3       1.00000000       0.10741743       0.02037844      -0.02800887
Ni       6.49314545       0.73810134       2.25693049        3       1.00000000       0.09557697       0.11669924       0.13865405
Ni       9.05377863       0.73888564       2.20581191        3       1.00000000       0.00271886       0.12635013       0.05371583
Ni       2.57055221       2.97451688       2.21792759        3       1.00000000      -0.05326373       0.10966559      -0.05657628
Ni       5.14652819       2.97687412       2.25850418        3       1.00000000      -0.13935080      -0.01644496      -0.01442662
Ni       7.79686370       2.93433751       2.26112704        3       1.00000000       0.22691096      -0.07390343      -0.04710455
Ni      10.31165756       2.90262249       2.21729523        3       1.00000000      -0.01349912      -0.04491912       0.04335872
Ni       3.89908293       5.19592004       2.22359032        3       1.00000000       0.06914141      -0.01206195       0.09149855
Ni       6.43316259       5.19102080       2.24516021        3       1.00000000      -0.02053480       0.13430272      -0.09845419
Ni       9.01276173       5.15559965       2.25481378        3       1.00000000      -0.01164366      -0.11222088       0.11261856
Pt      11.66367698       5.13726137       2.16935064        3       0.00000000       0.05214813      -0.02054381      -0.00817512
Ni       5.11244871       7.41974616       2.20291851        3       1.00000000      -0.14911728      -0.07338596      -0.13573008
Ni       7.73199332       7.41101348       2.21465503        3       1.00000000       0.04746971      -0.12392118      -0.10728035
Pt      10.30461962       7.41755158       2.13293573        3       0.00000000       0.04603787      -0.12930382      -0.06776722
Ni      12.94092639       7.40201651       2.19190608        3       1.00000000       0.00557085      -0.08705071      -0.04141336
Ni      -0.02512458       1.51690729       4.31232460        2       1.00000000      -0.08478879       0.01346606      -0.25752710
Pt       2.58556419       1.51241102       4.24542666        2       0.00000000       0.02270420       0.00592222      -0.03690882
Ni       5.18771826       1.49891465       4.32135956        2       1.00000000       0.01036255       0.07862326      -0.17240011
Ni       7.79241593       1.49385013       4.31732436        2       1.00000000       0.10751294       0.06568897      -0.20347123
Pt       1.28133450       3.70491650       4.39888805        2       0.00000000      -0.04731128      -0.08386454      -0.07839811
Ni       3.88647753       3.75513877       4.31673527        2       1.00000000      -0.00559105       0.06914428      -0.22556389
Pt       6.48068080       3.72499751       4.25427220        2       0.00000000      -0.03602117      -0.08723129       0.05709725
Ni       9.02607579       3.67123343       4.34841169        2       1.00000000      -0.00498412      -0.09859836      -0.31821343
Ni       2.60147454       5.90932572       4.35499019        2       1.00000000       0.03648532      -0.03595830      -0.20409928
Ni       5.13549416       5.90198554       4.31117815        2       1.00000000      -0.08666867      -0.03226557      -0.21467349
Ni       7.74884782       5.88267768       4.34007650        2       1.00000000      -0.03864182      -0.03733514      -0.29930565
Pt      10.28889392       5.86615455       4.44362750        2       0.00000000      -0.02363264      -0.01414890      -0.12623406
Pt       3.86355442       8.17507483       4.24917659        2       0.00000000      -0.06197202       0.01881070       0.04207441
Pt       6.41967413       8.12522434       4.23816595        2       0.00000000      -0.06059858      -0.08689059      -0.05318211
Pt       9.00898790       8.14160746       4.33395624        2       0.00000000      -0.03129955       0.02757408       0.06991764
Pt      11.64136444       8.16910752       4.32406283        2       0.00000000       0.03525555       0.03954807       0.07255895
Pt       0.03218682       0.04252533       6.56439181        1       0.00000000      -0.00424471       0.01414552       0.12064201
Pt       2.59705087      -0.00875680       6.60601760        1       0.00000000      -0.03457393       0.00765704       0.22925080
Pt       5.17770778      -0.10308628       6.58856001        1       0.00000000       0.01119545      -0.17083440       0.05954599
Pt       7.76797042      -0.04216438       6.60361580        1       0.00000000      -0.02210838       0.02809069       0.19723441
Ni       1.29486787       2.28209252       6.53205727        1       1.00000000      -0.00774088       0.07631562      -0.04937213
Pt       3.82051026       2.27199600       6.46607386        1       0.00000000      -0.11453875      -0.00746664      -0.30784515
Pt       6.49646491       2.22996832       6.46056644        1       0.00000000       0.01118045       0.03482415      -0.24638203
Pt       9.12121776       2.31529777       6.52528529        1       0.00000000       0.08168682       0.11498950       0.08189597
Ni       2.51685673       4.46013019       6.51928658        1       1.00000000      -0.18533333       0.02350180      -0.14926110
Pt       5.15143567       4.45233789       6.53037132        1       0.00000000      -0.01566857      -0.00385800       0.05684283
Ni       7.81173005       4.46510301       6.44793705        1       1.00000000       0.12834738       0.05793039      -0.32859247
Ni      10.35751286       4.46205037       6.56410138        1       1.00000000       0.05405533       0.12973170      -0.00140708
Pt       3.78904515       6.62452108       6.54328872        1       0.00000000      -0.09480050      -0.03113728       0.10729785
Pt       6.52323238       6.61826999       6.46595503        1       0.00000000       0.01682187       0.00058710      -0.28494431
Ni       9.06469606       6.59662515       6.55214976        1       1.00000000      -0.00012344      -0.18170676      -0.09513909
Ni      11.59548701       6.59233212       6.55916440        1       1.00000000      -0.05626570      -0.13601529      -0.16493193
