64
Lattice="10.063934219658181 -0.018551019874374113 0.04052002744537636 5.015901455351772 8.71579986333744 0.01285724504348469 0.03308446386824729 -0.006979397243493557 8.624109170162349" Properties=species:S:1:pos:R:3:tags:I:1:initial_magmoms:R:1:forces:R:3 unique_id=466c4371d3464d4abee5b88d55376178 stress="-7.98502762320158e-05 1.6799761814092007e-06 -9.04787117352797e-06 1.6799761814092007e-06 -8.202293508108305e-05 2.736016101078503e-07 -9.04787117352797e-06 2.736016101078503e-07 -5.871387805286843e-05" energy=-388.64591582625854 pbc="T T T"
Ni      -0.02076638       0.01558280       0.06920413        4       1.00000000       0.06877883      -0.00575008       0.07311955
Pt       2.59629551       0.02414331       0.03990104        4       0.00000000       0.17870685       0.01729292      -0.15145248
Ni       5.09427171      -0.00282044       0.23511308        4       1.00000000       0.09034250       0.07044756       0.37818180
Ni       7.49908212       0.02202234       0.12021215        4       1.00000000      -0.09267291       0.08987501       0.10652298
Pt       1.21556491       2.23913657       0.07744405        4       0.00000000      -0.04789113       0.02247614      -0.10800661
Ni       3.83096785       2.20807014       0.12939249        4       1.00000000       0.06462975       0.04039312       0.15556716
Ni       6.28671926       2.16347916       0.21723306        4       1.00000000       0.00142178      -0.02728695       0.25868452
Ni       8.75284507       2.18985505       0.09906453        4       1.00000000      -0.07610551       0.07841673      -0.03356164
Ni       2.49147826       4.35023661       0.16454595        4       1.00000000      -0.03863263       0.01185970       0.23699277
Ni       5.03575218       4.27161355       0.10800013        4       1.00000000       0.04389211      -0.11227534       0.13236372
Ni       7.55503795       4.28097929       0.10684739        4       1.00000000       0.02597554      -0.15099339       0.04126774
Ni      10.04572927       4.37466015       0.10393502        4       1.00000000       0.00230853       0.05908480       0.00686777
Pt       3.68030366       6.56695352       0.04650651        4       0.00000000      -0.06729638       0.01607886      -0.06258394
Pt       6.30324000       6.44897581       0.05694440        4       0.00000000       0.07181512      -0.12617948      -0.06798386
Ni       8.85801952       6.50076638       0.09880916        4       1.00000000       0.04750084      -0.00448056       0.03412075
Ni      11.25830401       6.52768935       0.14771049        4       1.00000000      -0.06882473       0.00129913       0.10722894
Ni       1.27737080       0.75904523       2.23318843        3       1.00000000       0.05279011       0.02951934       0.02253970
Ni       3.82050722       0.77710887       2.23071414        3       1.00000000      -0.02249982       0.00258539       0.11162776
Ni       6.26357228       0.74000369       2.19132469        3       1.00000000       0.00525666       0.06371066       0.20904894
Pt       8.79943879       0.75845061       2.17359011        3       0.00000000       0.02530044       0.08707555      -0.10991229
Ni       2.51401401       2.85927999       2.22725316        3       1.00000000      -0.04229495      -0.09922452       0.07148344
Ni       5.05220648       2.85442174       2.20542945        3       1.00000000      -0.00905565      -0.02253755       0.16331371
Ni       7.50618026       2.89048928       2.21124770        3       1.00000000      -0.01914922      -0.00858091       0.11856265
Ni      10.09538457       2.89722080       2.26407496        3       1.00000000       0.08851198       0.01991196       0.09438417
Pt       3.75460198       5.02129071       2.20768688        3       0.00000000      -0.04113033      -0.00814088      -0.14078038
Ni       6.29450735       5.00378371       2.19684219        3       1.00000000       0.05236586      -0.10887190      -0.05369333
Pt       8.83385807       5.01937385       2.22413438        3       0.00000000       0.00468972      -0.06025560       0.02623410
Ni      11.31732772       5.06105624       2.22223530        3       1.00000000      -0.01342405      -0.02949100       0.09785517
Ni       5.02778325       7.27406761       2.18558675        3       1.00000000       0.00375192      -0.01023357      -0.12735977
Pt       7.55481219       7.28980489       2.29986487        3       0.00000000      -0.05877323       0.07754027      -0.13642806
Ni      10.08764447       7.25885727       2.17652901        3       1.00000000      -0.04514684      -0.04455631       0.08368423
Ni      12.52234545       7.24515966       2.20482837        3       1.00000000      -0.01208279      -0.02190252      -0.02718613
Ni       0.04938493       1.50515929       4.30277777        2       1.00000000       0.02743298       0.06801195      -0.12427518
Ni       2.52911619       1.45673257       4.28830204        2       1.00000000       0.01682876       0.02739015      -0.12229468
Ni       5.00989529       1.47767869       4.26592582        2       1.00000000       0.02985696      -0.00774881       0.06255300
Ni       7.56770605       1.49536040       4.31235438        2       1.00000000      -0.04227680       0.05548223       0.01417678
Ni       1.24524976       3.61600301       4.26355772        2       1.00000000       0.03044472       0.05147464      -0.07618833
Ni       3.77670412       3.55514154       4.29561279        2       1.00000000      -0.02071044      -0.07629180       0.03268049
Ni       6.33413280       3.59661303       4.27425365        2       1.00000000       0.06872631      -0.09149013      -0.05250623
Ni       8.82223917       3.59924666       4.36118191        2       1.00000000       0.00824204      -0.08217260       0.00707430
Ni       2.47569495       5.77509788       4.28532479        2       1.00000000      -0.07173475      -0.05209807      -0.02855490
Pt       5.09963684       5.74862151       4.32496199        2       0.00000000       0.11273841      -0.00330855       0.01458096
Ni       7.60693867       5.77564292       4.36742162        2       1.00000000       0.08821252      -0.07196305      -0.01334648
Ni      10.05660616       5.75043535       4.36292171        2       1.00000000       0.03450007      -0.05738577       0.00711452
Pt       3.81572491       8.03402913       4.32236335        2       0.00000000      -0.00732949       0.00438494      -0.01325677
Ni       6.32171641       8.03641361       4.34285405        2       1.00000000      -0.05353593       0.10564822      -0.09646416
Ni       8.77197779       7.98527260       4.33478038        2       1.00000000       0.02831189       0.04720894       0.06216370
Pt      11.27474344       7.96444525       4.27433487        2       0.00000000      -0.12786728       0.07345893       0.18355563
Ni       0.04742164       0.02163177       6.38425873        1       1.00000000       0.00516654       0.06450817      -0.06913056
Ni       2.48427243      -0.00193770       6.26970023        1       1.00000000      -0.10787177       0.08348421      -0.24734912
Pt       4.98921543      -0.04540193       6.47447608        1       0.00000000      -0.11555107      -0.05775899       0.26690827
Ni       7.60806649      -0.01856731       6.44307332        1       1.00000000       0.00741619       0.02297644      -0.03797267
Ni       1.25498471       2.14809510       6.27609902        1       1.00000000      -0.00112980      -0.00528552      -0.25272268
Ni       3.76019268       2.16993288       6.36762275        1       1.00000000      -0.07528496      -0.04109554      -0.11849542
Pt       6.34671113       2.22024482       6.42289971        1       0.00000000       0.04638259       0.06497973       0.13805625
Ni       8.87463212       2.16897846       6.38956176        1       1.00000000       0.08392105      -0.00116338      -0.15764604
Pt       2.51274547       4.34233385       6.38602138        1       0.00000000      -0.06823128      -0.02614284       0.04714213
Ni       5.06239657       4.36215599       6.41404183        1       1.00000000       0.02328070       0.04696031      -0.03271241
Ni       7.59537734       4.38730064       6.38806826        1       1.00000000      -0.01023470       0.03437419      -0.09073727
Ni      10.03548794       4.33778913       6.39308509        1       1.00000000      -0.05966728      -0.05488947      -0.12731069
Ni       3.78700841       6.55370739       6.32310958        1       1.00000000       0.00059044      -0.00360700      -0.29046724
Ni       6.33730303       6.54772992       6.31419027        1       1.00000000       0.05206485       0.10019459      -0.23975404
Ni       8.79528596       6.47644844       6.38585825        1       1.00000000      -0.00107372      -0.03225053      -0.08314801
Ni      11.32072053       6.49657355       6.42471454        1       1.00000000      -0.07467613      -0.03269214      -0.07237622
