64
Lattice="10.150447518352676 -0.01562932685871623 -0.01510888656786048 5.0616883650726985 8.752279971391703 -0.061275132170069455 -0.012336354224283046 -0.05064835120186909 8.699056530789472" Properties=species:S:1:pos:R:3:tags:I:1:initial_magmoms:R:1:forces:R:3 unique_id=665ff11c43404a2d9c7cdc90832c62f2 stress="8.457734791633698e-05 -5.4635175485521494e-08 -4.885339479090865e-06 -5.4635175485521494e-08 8.993512580861285e-05 2.0005443594678387e-05 -4.885339479090865e-06 2.0005443594678387e-05 9.36321680997873e-05" energy=-391.47153934250036 pbc="T T T"
Ni       0.02360448      -0.02629883       0.06070023        4       1.00000000       0.00334801      -0.02336699       0.02752464
Ni       2.49945572       0.01028577       0.07155103        4       1.00000000      -0.11629032      -0.01972105       0.09663650
Ni       5.09142896       0.03598184       0.05121477        4       1.00000000       0.03036527       0.02346963      -0.09015823
Ni       7.60300179      -0.00362845       0.04781510        4       1.00000000       0.01059650       0.06104294      -0.00226722
Ni       1.25425946       2.13040178       0.18493648        4       1.00000000      -0.08532881      -0.12061356       0.46148829
Ni       3.82028780       2.13151276       0.04190008        4       1.00000000       0.02571945      -0.06712154       0.05271214
Ni       6.32238189       2.13608973       0.08041776        4       1.00000000      -0.01783529      -0.10306507       0.23744210
Pt       8.86600499       2.20575141       0.01039786        4       0.00000000      -0.02485280      -0.00219871      -0.10979087
Pt       2.51004956       4.35313897      -0.01085240        4       0.00000000      -0.04577367      -0.15090231      -0.15491731
Pt       5.13042407       4.35987362       0.05468920        4       0.00000000       0.06552086      -0.03925708      -0.00144370
Ni       7.60761695       4.36050080       0.15198956        4       1.00000000       0.03934054       0.01752280       0.33007095
Ni      10.12829767       4.35406387       0.07202616        4       1.00000000      -0.00579337       0.08331750       0.26061091
Ni       3.81603713       6.60057531       0.01487125        4       1.00000000      -0.01042919       0.02580146       0.05869386
Ni       6.32555676       6.58727573       0.02155796        4       1.00000000       0.00095742       0.02789780       0.07933185
Pt       8.81119489       6.55839804       0.12570249        4       0.00000000      -0.07630537       0.06838155       0.31719475
Pt      11.42447171       6.62203488       0.02510392        4       0.00000000       0.02294038       0.07914655      -0.10784402
Ni       1.27353003       0.69324159       2.15018790        3       1.00000000       0.03031986      -0.11090747       0.12079749
Pt       3.86154645       0.64518928       2.14035719        3       0.00000000       0.04659785      -0.11269863      -0.03424888
Ni       6.33111296       0.69646088       2.14948463        3       1.00000000      -0.01211094      -0.09484464      -0.02533790
Pt       8.82822177       0.69322987       2.14497465        3       0.00000000      -0.02354861       0.04717250      -0.14012033
Pt       2.54618483       2.91901828       2.17788546        3       0.00000000       0.10372519       0.13655268      -0.08661777
Ni       5.12308492       2.90554106       2.19250059        3       1.00000000       0.08489414      -0.01338939       0.12094369
Ni       7.57222344       2.94133088       2.17579256        3       1.00000000      -0.01456790      -0.01847572       0.09408148
Ni      10.11309424       2.94631904       2.15627920        3       1.00000000      -0.11466780       0.07166526       0.08011456
Ni       3.78646374       5.10080616       2.17841577        3       1.00000000      -0.06117403      -0.02853239      -0.00037233
Ni       6.38581848       5.05802452       2.18016395        3       1.00000000       0.06821425      -0.03702786       0.12272210
Ni       8.86480585       5.06660566       2.19841925        3       1.00000000       0.01613519       0.03906059       0.12329267
Ni      11.37202605       5.12663180       2.16392815        3       1.00000000       0.00267943       0.06569237      -0.03468570
Pt       5.09421887       7.24098373       2.11084937        3       0.00000000      -0.00118676      -0.03708829       0.02897688
Ni       7.59726116       7.24311911       2.20085500        3       1.00000000       0.08401943      -0.11280710       0.21077011
Ni      10.16678741       7.24320128       2.20471975        3       1.00000000       0.05449517      -0.10163787       0.07547686
Ni      12.64040112       7.24538405       2.17914543        3       1.00000000      -0.05413141      -0.07459780       0.16860462
Pt      -0.01892070       1.38815276       4.32210284        2       0.00000000       0.04631483      -0.03130560       0.04089549
Pt       2.60615814       1.37846976       4.35560787        2       0.00000000      -0.03586762      -0.04724185       0.14857158
Ni       5.07446291       1.42918299       4.34278337        2       1.00000000      -0.04441245      -0.00916118      -0.06125648
Pt       7.50472937       1.42227309       4.33995014        2       0.00000000      -0.02945163       0.00003450      -0.04015525
Pt       1.23212854       3.74221196       4.30344334        2       0.00000000      -0.07330743       0.08062974       0.06685587
Ni       3.83740273       3.61319343       4.32124255        2       1.00000000       0.05075954      -0.05376271      -0.09237339
Ni       6.30925494       3.61094023       4.26011262        2       1.00000000      -0.01298162       0.00514599      -0.09099862
Ni       8.84015673       3.66317992       4.25480681        2       1.00000000      -0.12094044       0.07054391      -0.09997823
Ni       2.51761613       5.87125375       4.28730481        2       1.00000000      -0.01833739       0.08413065      -0.18424939
Pt       5.05789683       5.78997354       4.31782348        2       0.00000000       0.00438236      -0.04022502       0.02099134
Ni       7.61204859       5.80152038       4.22235419        2       1.00000000       0.07114744      -0.02869174      -0.02226130
Ni      10.12980805       5.84737620       4.22525551        2       1.00000000      -0.06739739       0.09097865      -0.11066749
Ni       3.74329287       7.95952182       4.31509782        2       1.00000000      -0.09269963       0.00863860      -0.00995733
Ni       6.36012991       7.95020722       4.30281738        2       1.00000000       0.11864307      -0.08251090       0.02748768
Ni       8.90507509       7.96348427       4.23131821        2       1.00000000       0.09867318      -0.08938836      -0.07282473
Ni      11.37635035       7.95169231       4.26847027        2       1.00000000      -0.06327147       0.01174962      -0.08815871
Ni      -0.02967896      -0.09262610       6.45113495        1       1.00000000      -0.04952088      -0.09241294      -0.12576818
Ni       2.53356407      -0.05023536       6.45120775        1       1.00000000       0.03309168      -0.00009736      -0.05439807
Ni       5.09330193      -0.00074775       6.40911934        1       1.00000000       0.07306641       0.06206418      -0.25122203
Ni       7.59858566      -0.07323538       6.42778813        1       1.00000000      -0.04221914      -0.07053735      -0.11785334
Pt       1.27125755       2.15779621       6.54053490        1       0.00000000       0.05012308       0.10544959       0.29709560
Ni       3.85939916       2.15368207       6.43090573        1       1.00000000       0.11286053       0.05753752      -0.06635988
Ni       6.28469719       2.11505662       6.43571148        1       1.00000000      -0.07703355      -0.00519341       0.02214392
Ni       8.85079692       2.11870265       6.35025503        1       1.00000000      -0.03752742      -0.03199999      -0.31403095
Ni       2.56701516       4.39467532       6.31490460        1       1.00000000       0.16301041       0.19770319      -0.38526873
Ni       5.02150435       4.31931165       6.33745999        1       1.00000000      -0.06361572      -0.04115714      -0.13638982
Pt       7.56006823       4.29467146       6.39661838        1       0.00000000      -0.10168274      -0.00372541       0.10367373
Ni      10.14670076       4.35518862       6.40734596        1       1.00000000      -0.00445245       0.13447228      -0.03589281
Ni       3.77248208       6.54985221       6.38888427        1       1.00000000      -0.05228968       0.06572563      -0.08765840
Ni       6.29238155       6.56122534       6.39879077        1       1.00000000      -0.01756200       0.04664677      -0.06675953
Pt       8.89495103       6.57492199       6.29937300        1       0.00000000       0.08007631       0.08611636      -0.21267242
Ni      11.44646982       6.53125733       6.28053394        1       1.00000000       0.07654913       0.04137362      -0.28024233
