64
Lattice="10.285840562330856 -0.010164734819292089 0.03668102743598701 5.134117362589188 8.840921373029868 -0.022900688808488057 0.029949933486399478 -0.038882578627683934 8.790237564731104" Properties=species:S:1:pos:R:3:tags:I:1:initial_magmoms:R:1:forces:R:3 unique_id=06d0956ed1e747afa8e69ec4f14bae3c stress="0.0002065964446208643 2.896585477803277e-06 -2.0572420237264656e-05 2.896585477803277e-06 0.00021699675691452813 2.4845117232861843e-05 -2.0572420237264656e-05 2.4845117232861843e-05 0.00020271193771125712" energy=-396.1458687286141 pbc="T T T"
Ni       0.01538350      -0.00221915       0.18010215        4       1.00000000       0.05995554       0.06516258       0.34919946
Ni       2.54510905       0.01197488       0.20866170        4       1.00000000      -0.04617004       0.09912527       0.44651771
Pt       5.13669994      -0.05647896       0.15297785        4       0.00000000       0.00560436      -0.08990306       0.34360097
Ni       7.74046642      -0.06837237       0.21683605        4       1.00000000       0.01192825      -0.05694320       0.40033218
Ni       1.28619812       2.21553631       0.10384645        4       1.00000000       0.02616452       0.02761829       0.25997425
Pt       3.74820333       2.20923278       0.18401891        4       0.00000000      -0.06080524       0.07459867       0.18128375
Pt       6.44715203       2.18004723       0.12063934        4       0.00000000       0.04824845       0.02851557       0.01637749
Pt       9.10213839       2.19904571       0.14296543        4       0.00000000       0.11088979       0.01156481       0.14684589
Ni       2.52790831       4.44765462       0.05217179        4       1.00000000      -0.03481041       0.02429767       0.00700740
Pt       5.05790651       4.47893014       0.09323185        4       0.00000000      -0.09149173       0.09158317      -0.04418932
Pt       7.76010084       4.46208307       0.03166598        4       0.00000000       0.09044277       0.09265773      -0.16565660
Ni      10.34635087       4.43649429       0.07775528        4       1.00000000       0.14446678       0.06032146       0.07290742
Ni       3.79970389       6.66214541       0.08602578        4       1.00000000      -0.07657339       0.08149786       0.18841413
Pt       6.41881533       6.72972742       0.08983688        4       0.00000000       0.00194754       0.05771552      -0.15905742
Ni       9.02119522       6.62136499       0.06886765        4       1.00000000       0.06380597      -0.05391274       0.07949461
Ni      11.60298098       6.58820856       0.07919575        4       1.00000000       0.11373616      -0.07203274       0.05535093
Ni       1.32444679       0.73819503       2.23085258        3       1.00000000       0.04270289       0.04611960       0.18170432
Ni       3.82112057       0.75624036       2.27204953        3       1.00000000      -0.03003045       0.07701950       0.10114332
Ni       6.43682455       0.75865888       2.27564421        3       1.00000000      -0.07535365       0.05313528       0.11955104
Pt       9.02804573       0.71617564       2.27414602        3       0.00000000       0.06399982       0.21489891      -0.02919745
Ni       2.56484915       2.90674411       2.28342339        3       1.00000000       0.02531263      -0.13031224       0.23186734
Ni       5.12485203       2.93068082       2.27236645        3       1.00000000      -0.15740902      -0.01060569       0.02222311
Ni       7.70016960       2.91538096       2.27007266        3       1.00000000       0.05279311      -0.07356151      -0.06195399
Ni      10.34234348       2.90487679       2.28795588        3       1.00000000       0.13468692      -0.09050671       0.17742421
Ni       3.86755745       5.14687111       2.22731399        3       1.00000000       0.02373355      -0.05066852       0.09444199
Ni       6.40694539       5.15078223       2.22815983        3       1.00000000       0.01783772      -0.00342268      -0.09803369
Pt       8.96732892       5.09797318       2.30350641        3       0.00000000      -0.13583308      -0.18781470      -0.07045431
Pt      11.65423645       5.07826325       2.24408887        3       0.00000000       0.07648704      -0.13780617       0.13341207
Ni       5.15556912       7.34213943       2.19391531        3       1.00000000       0.04237306      -0.04695000       0.02882505
Ni       7.66575539       7.38557775       2.21401336        3       1.00000000      -0.12812182      -0.02417848       0.04559930
Pt      10.28776914       7.32815545       2.21520447        3       0.00000000       0.01874895       0.00037416      -0.23387989
Ni      12.89576735       7.32147282       2.18222114        3       1.00000000       0.09820729      -0.13794716       0.03110033
Ni       0.07717667       1.50290543       4.33447447        2       1.00000000       0.16878992       0.08138414      -0.04442563
Ni       2.54297772       1.49400377       4.32119575        2       1.00000000      -0.06382761       0.07131126      -0.06733641
Ni       5.14127008       1.47493619       4.32589696        2       1.00000000      -0.14985932      -0.01926016      -0.15892461
Ni       7.72719991       1.46961123       4.36633717        2       1.00000000       0.05396588      -0.05057011      -0.03853653
Ni       1.29975640       3.65306406       4.38500143        2       1.00000000       0.00841479      -0.02702667       0.02078465
Ni       3.81937030       3.66837344       4.31547702        2       1.00000000      -0.12840087      -0.03936306      -0.20951019
Pt       6.46755661       3.61668025       4.35071227        2       0.00000000       0.01051917      -0.08072473      -0.12155723
Ni       9.05244638       3.67977088       4.36765344        2       1.00000000       0.14398717      -0.07784653      -0.07101493
Ni       2.56620807       5.81069886       4.38880042        2       1.00000000      -0.01034569      -0.12974678       0.02111793
Pt       5.15666008       5.84614766       4.34811838        2       0.00000000       0.01111064      -0.05125892      -0.09552785
Ni       7.73209859       5.85658353       4.40209266        2       1.00000000      -0.03705525      -0.01106858      -0.05779923
Ni      10.29689304       5.80654212       4.44297439        2       1.00000000       0.05258051      -0.06488623       0.07223617
Pt       3.90375490       8.08030657       4.30791191        2       0.00000000       0.01736829      -0.02496230       0.20790471
Ni       6.43765635       8.09829641       4.30638208        2       1.00000000      -0.07432026       0.07852794      -0.13388279
Pt       8.91700824       8.06984746       4.30374007        2       0.00000000      -0.06177690       0.05827531       0.10515021
Pt      11.60157553       8.04815451       4.31514759        2       0.00000000       0.00773679      -0.04337584       0.10484066
Pt       0.03567184      -0.05751264       6.55089454        1       0.00000000       0.02547455      -0.03122065       0.17724361
Pt       2.56788814      -0.06146747       6.56354621        1       0.00000000      -0.08838059      -0.02109079       0.21377150
Pt       5.15314735      -0.05846906       6.48343315        1       0.00000000       0.00939926      -0.00636753      -0.38741490
Pt       7.72795281      -0.07228200       6.61236757        1       0.00000000      -0.10265516      -0.05012054       0.21495876
Ni       1.30189222       2.24508838       6.47704421        1       1.00000000      -0.01757389       0.16980932      -0.20779072
Pt       3.85173378       2.28455551       6.41279244        1       0.00000000      -0.05635197       0.19569201      -0.22162345
Ni       6.44646488       2.21426771       6.45023703        1       1.00000000      -0.02103426       0.05615285      -0.21394998
Pt       9.03452273       2.27803631       6.41706002        1       0.00000000      -0.01822653       0.14975293      -0.31670343
Ni       2.54947638       4.43145145       6.47331934        1       1.00000000      -0.12396914       0.08758925      -0.23608197
Ni       5.16316221       4.41888788       6.44630017        1       1.00000000       0.01111619       0.06442428      -0.19284644
Ni       7.72949716       4.43478743       6.41554025        1       1.00000000       0.00751065       0.11872051      -0.37067221
Ni      10.33044498       4.42850951       6.49802496        1       1.00000000       0.06908098       0.09249200      -0.19221731
Ni       3.85226027       6.53329759       6.50794075        1       1.00000000      -0.07034006      -0.17030089      -0.07461699
Ni       6.45480708       6.54633508       6.42972062        1       1.00000000       0.03826844      -0.04849216      -0.23551522
Ni       9.01445434       6.51781071       6.50001962        1       1.00000000      -0.00627120      -0.13752507      -0.18927532
Ni      11.58137917       6.51588138       6.52093711        1       1.00000000      -0.04240878      -0.07856470      -0.15296045
