64
Lattice="10.405324161276749 -0.013199085797898313 0.060010492028585355 5.1912313370307235 8.965041916995677 0.05949036765058133 0.0 0.0 21.601493583276465" Properties=species:S:1:pos:R:3:tags:I:1:initial_magmoms:R:1:forces:R:3 unique_id=4f3e0c41082c4f4285984e50fcc4b7b2 stress="0.0061316102971600015 -9.058630266321187e-05 0.0006217663125134184 -9.058630266321187e-05 0.005958033307822439 0.000220228804994088 0.0006217663125134184 0.000220228804994088 -0.0012659684621343648" energy=-380.77373406346493 pbc="T T T"
Ni      -0.03226568       0.00376832       0.07141663        1       1.00000000      -0.14563032       0.04946244       0.14924464
Ni       2.62474077      -0.01410290       0.00000000        0       1.00000000       0.06470353       0.02017408       0.43713976
Ni       5.20865818      -0.02232206       0.05814258        1       1.00000000       0.05600991       0.07840675      -0.30256870
Ni       7.82995744      -0.04114988       0.11775654        1       1.00000000       0.05622982      -0.09597233       0.13838137
Pt       1.27074846       2.21669425       0.04284916        0       0.00000000       0.06548725      -0.11548110      -0.50179785
Pt       3.88947484       2.18206162       0.02496099        0       0.00000000       0.01200561       0.03103292       0.02315366
Pt       6.55756447       2.14156047       0.04372517        0       0.00000000       0.07449872      -0.09023694       0.01003416
Ni       9.10963396       2.20298226       0.09498582        1       1.00000000       0.00236233      -0.14725200       0.09430757
Ni       2.58542413       4.51745842       0.04212273        0       1.00000000       0.03489324      -0.06230161      -0.19983866
Pt       5.17590940       4.50171292       0.06849288        1       0.00000000       0.23482263      -0.05614332      -0.71457214
Pt       7.86902222       4.47321841       0.06828744        1       0.00000000      -0.07755065      -0.03463825      -0.55435107
Ni      10.42107058       4.50576473       0.01796551        0       1.00000000       0.05214392       0.01747835       0.22720928
Ni       3.85550581       6.76901924       0.02314557        0       1.00000000      -0.03585537       0.11680463       0.46794482
Pt       6.50583387       6.82146191       0.14319567        1       0.00000000      -0.02211794      -0.05596264      -0.39544662
Ni       9.12883224       6.74974770       0.02627951        0       1.00000000      -0.00744229       0.02658903       0.29869828
Ni      11.71659888       6.73127915       0.03021434        0       1.00000000       0.14097003       0.14827920       0.31580323
Ni       1.32913127       0.72529428       2.12365901        2       1.00000000       0.05758487      -0.00226443       0.01936039
Ni       3.87596111       0.76720284       2.14289273        2       1.00000000      -0.17399995       0.07821469       0.14713601
Ni       6.55240753       0.76034046       2.16260559        3       1.00000000       0.12893036       0.05906749       0.22189012
Ni       9.09234150       0.71997067       2.14470766        2       1.00000000      -0.09354969      -0.06103484       0.02164573
Ni       2.64079775       2.95143505       2.16740006        3       1.00000000       0.12123177      -0.13293914       0.28090840
Ni       5.21434216       2.96585090       2.17970559        3       1.00000000      -0.02339380      -0.00712502       0.15372279
Ni       7.79404683       2.93132339       2.19355933        3       1.00000000      -0.05801243      -0.20312199       0.13691420
Pt      10.34735612       2.89675663       2.23722872        3       0.00000000      -0.13031530      -0.06023098       0.03800835
Pt       3.90753415       5.25706223       2.19496436        3       0.00000000      -0.01409183       0.02387849      -0.00794948
Ni       6.51004766       5.23959741       2.18913022        3       1.00000000      -0.01470708       0.05376517       0.17647764
Pt       9.05412832       5.25229181       2.25268559        4       0.00000000      -0.09742451       0.00126461       0.08608280
Pt      11.72695097       5.24014052       2.13628145        2       0.00000000      -0.14975830      -0.07554312       0.03794863
Ni       5.18929477       7.52321861       2.15626957        3       1.00000000      -0.11409339       0.13135999       0.04515542
Ni       7.79438771       7.51546508       2.19006790        3       1.00000000       0.03417827       0.18832778       0.08824612
Pt      10.40637687       7.54707611       2.11088939        2       0.00000000       0.01206755       0.09523988      -0.00135265
Ni      13.03841620       7.50696005       2.17811788        3       1.00000000       0.06158704       0.08519739      -0.03302858
Ni       0.00289178       1.51801970       4.29816502        6       1.00000000      -0.10719454      -0.01914903      -0.15839469
Ni       2.63381480       1.52178136       4.29573595        6       1.00000000       0.03678924       0.04791463      -0.36229838
Pt       5.18978539       1.54926747       4.29029026        6       0.00000000       0.03815101       0.05128881      -0.19756444
Ni       7.84868742       1.52186794       4.32489845        6       1.00000000       0.07032539      -0.00295254      -0.32117702
Pt       1.35694150       3.71527469       4.27925307        6       0.00000000       0.04376165      -0.04633638      -0.07059789
Ni       3.89614652       3.72702332       4.32297961        6       1.00000000      -0.02230543      -0.04817062      -0.31106181
Pt       6.59007906       3.72229153       4.24910869        5       0.00000000       0.08600545       0.00457423      -0.24941254
Ni       9.12987295       3.70297821       4.35569991        7       1.00000000       0.07776732      -0.19444996      -0.19564045
Ni       2.62253246       5.98996384       4.36067648        7       1.00000000       0.01701423       0.04296574      -0.10412390
Pt       5.20643230       5.98411977       4.31361870        6       0.00000000       0.00827204       0.04359134       0.04170329
Ni       7.81618442       5.98430894       4.34896147        6       1.00000000      -0.10923818       0.08570030      -0.25910509
Pt      10.39801432       5.94072313       4.48385573        8       0.00000000       0.00257913      -0.04281297       0.12012970
Pt       3.91210011       8.27609461       4.26635980        6       0.00000000      -0.07128264       0.11204745      -0.11432563
Pt       6.52266123       8.30794137       4.26234384        6       0.00000000      -0.07106922       0.25122801      -0.13281777
Pt       9.07386543       8.23411842       4.37461834        7       0.00000000      -0.07459335      -0.00670897      -0.12271993
Pt      11.74148804       8.22484257       4.35388171        7       0.00000000       0.01164765       0.03829886      -0.15552448
Pt       0.03944372      -0.00892620       6.54145935       10       0.00000000      -0.05407423       0.13046348       0.11999096
Ni       2.65305732       0.01159331       6.51730601       10       1.00000000      -0.05601826      -0.01087215      -0.15688500
Pt       5.16984444      -0.00247656       6.59220618       11       0.00000000       0.07049058       0.07314020       0.16955859
Pt       7.80103170      -0.03738729       6.60149358       11       0.00000000      -0.15808456       0.10196674       0.06147097
Pt       1.39279910       2.22699798       6.44205061        9       0.00000000       0.05239933      -0.08651430       0.54781268
Ni       3.92844683       2.24082696       6.44786225        9       1.00000000      -0.07777303       0.01508916      -0.01080438
Ni       6.52148823       2.23877291       6.47333461       10       1.00000000       0.02681965      -0.13675835      -0.04549600
Pt       9.12806687       2.26884397       6.52649352       10       0.00000000       0.03284161      -0.13739936      -0.01137175
Pt       2.59316380       4.57101865       6.53344657       10       0.00000000       0.10496475      -0.09312052       0.02821020
Pt       5.20615826       4.42985774       6.47688580       10       0.00000000       0.03306623      -0.04831682       0.62033009
Pt       7.89814694       4.52185187       6.46323525       10       0.00000000      -0.01112095       0.07891920       0.50131983
Ni      10.43908694       4.51699390       6.58110260       11       1.00000000       0.01313763      -0.13263363      -0.07759796
Ni       3.90147814       6.73534262       6.54430247       10       1.00000000       0.01091274      -0.03292383      -0.23007229
Pt       6.58298375       6.75756174       6.50871450       10       0.00000000       0.11281010      -0.17165354       0.41985841
Ni       9.15685469       6.73011496       6.58648671       11       1.00000000      -0.01211460       0.00914096      -0.06008798
Ni      11.71443906       6.71082372       6.59758370       11       1.00000000      -0.07665075       0.12014867      -0.18781298
