64
Lattice="10.587513976238132 0.022682946061241868 0.016772483147352534 5.31340099564077 9.196007279797248 0.008819471001995729 0.0 0.0 21.84564958386694" Properties=species:S:1:pos:R:3:tags:I:1:initial_magmoms:R:1:forces:R:3 unique_id=7b62a3bee243482c902c6d3e2db0c0b7 energy=-391.1835211027753 stress="0.00821398006639221 -7.84820767315239e-05 3.133878560155263e-05 -7.84820767315239e-05 0.008241510799119698 1.6758905312160213e-05 3.133878560155263e-05 1.6758905312160213e-05 0.0004173753557003817" pbc="T T T"
Pt      -0.02568113      -0.04279928       0.00000000        0       0.00000000      -0.03417150      -0.04183090       0.01419551
Pt       2.62677294      -0.04131073       0.08952601        1       0.00000000       0.09422437      -0.02494279      -0.62656234
Pt       5.36216597      -0.04032330       0.09108948        1       0.00000000      -0.07733776      -0.04179814      -0.57580916
Ni       7.94386397       0.00464434       0.13319126        1       1.00000000       0.03706861      -0.04363867       0.03534093
Pt       1.31271122       2.30868381       0.10715079        1       0.00000000      -0.14689981       0.02412172      -0.54555823
Pt       3.98931189       2.32116409       0.01121870        0       0.00000000       0.10864284       0.00988604      -0.08858154
Pt       6.65198547       2.31235148       0.01264258        0       0.00000000      -0.09849488       0.02383593      -0.03676757
Pt       9.25186990       2.32482756       0.02769259        0       0.00000000       0.16056414       0.02602124       0.01368520
Pt       2.63987328       4.65666612       0.03796901        0       0.00000000       0.10506087       0.12187265       0.06671819
Pt       5.38156218       4.67793264       0.13326675        1       0.00000000      -0.01485307       0.13938712      -0.29307602
Ni       7.95155781       4.62887290       0.13963290        1       1.00000000      -0.03379344       0.02136891       0.05302417
Pt      10.58926079       4.63903729       0.05926796        1       0.00000000       0.11055381      -0.04511954       0.09016320
Pt       3.93829628       6.94155574       0.11106817        1       0.00000000      -0.07953495       0.06054477      -0.03700338
Ni       6.63904490       6.88572731       0.06368977        1       1.00000000      -0.08169956       0.02682469       0.37562539
Pt       9.24278454       6.86532134       0.01526530        0       0.00000000       0.00919591       0.06024655      -0.00813867
Ni      11.93671480       6.91836960       0.14658165        1       1.00000000       0.07454852      -0.07043226       0.04545299
Pt       1.30035955       0.77191268       2.35049986        3       0.00000000      -0.03930939      -0.03139270       0.30355863
Pt       3.98921907       0.78253468       2.33863671        2       0.00000000      -0.02284453       0.02205243       0.31765491
Pt       6.65707269       0.75248730       2.32118274        2       0.00000000       0.08761074       0.05448077       0.24413639
Pt       9.26028150       0.75113460       2.33165038        2       0.00000000       0.00896820      -0.08553783       0.21052878
Pt       2.57304348       3.14470483       2.36269151        3       0.00000000      -0.08167898       0.12720604       0.24629489
Pt       5.30453932       3.10295317       2.35211817        3       0.00000000      -0.13348924       0.07860567       0.26567820
Pt       7.97298134       3.11490080       2.30339552        2       0.00000000      -0.01102541      -0.02191567       0.18300770
Ni      10.59808122       3.10532571       2.33243511        2       1.00000000      -0.06340359      -0.00266225       0.31056847
Pt       3.93208230       5.42602157       2.39531560        3       0.00000000      -0.14192024       0.03458592       0.26613861
Ni       6.63176585       5.38463552       2.30104219        2       1.00000000       0.00125002       0.02350710       0.26308250
Pt       9.30711682       5.34278784       2.32014493        2       0.00000000       0.06257780      -0.02761266       0.23563897
Ni      11.93409072       5.38696081       2.33328114        2       1.00000000       0.01685121      -0.01898113       0.27404272
Pt       5.29749122       7.62611481       2.41202909        3       0.00000000       0.04717037      -0.04188037       0.28962013
Pt       7.92637493       7.61411050       2.33079562        2       0.00000000       0.02945190      -0.12867544       0.20407820
Pt      10.68764297       7.59569845       2.30074018        2       0.00000000       0.01476204      -0.15877984       0.18052414
Ni      13.25348188       7.66279248       2.31931837        2       1.00000000      -0.02582449       0.01017695       0.25035628
Pt       0.00798535       1.47204203       4.58348732        5       0.00000000      -0.05373451      -0.21338857      -0.19168127
Pt       2.67162396       1.55446926       4.57843405        5       0.00000000       0.11540724      -0.00825942      -0.24707340
Ni       5.30431573       1.55734527       4.58983512        5       1.00000000       0.02006227       0.08439172      -0.27383084
Pt       7.93528407       1.53810871       4.61219632        5       0.00000000      -0.09372506       0.01359744      -0.15772480
Ni       1.34240361       3.85212759       4.56348580        5       1.00000000       0.03252877       0.04535860      -0.23805365
Pt       3.92134497       3.89371860       4.61127790        5       0.00000000      -0.15095663       0.08514365      -0.06060681
Pt       6.60474953       3.85107281       4.55674687        5       0.00000000      -0.00217990      -0.00828674      -0.24607566
Pt       9.34434735       3.83081807       4.59819091        5       0.00000000       0.04562722      -0.08841901      -0.17828701
Ni       2.68053687       6.12931566       4.54679862        4       1.00000000       0.02677087       0.02430993      -0.26265899
Ni       5.30080299       6.17248716       4.55532259        5       1.00000000      -0.03647857       0.05533261      -0.22670355
Pt       7.87798167       6.17205079       4.59966465        5       0.00000000      -0.05403867       0.04593984      -0.10741885
Pt      10.67805222       6.08731631       4.57941185        5       0.00000000       0.01739978       0.01708728      -0.19536352
Ni       4.02573800       8.39317075       4.55546680        5       1.00000000       0.04770686      -0.03602555      -0.23920090
Ni       6.59206755       8.40609960       4.58635270        5       1.00000000      -0.15369757      -0.10381949      -0.11558902
Pt       9.29053942       8.42350246       4.56968202        5       0.00000000       0.13402131      -0.16776076      -0.30242083
Pt      12.02104182       8.39747271       4.53689989        4       0.00000000       0.21036456      -0.15041910      -0.20748672
Ni       0.01200566      -0.00730672       6.69957371        6       1.00000000       0.02836717      -0.04038791      -0.13730635
Pt       2.58368385      -0.05086109       6.71714739        6       0.00000000      -0.20686901      -0.02448246       0.47910399
Pt       5.29815303       0.07125075       6.71567681        6       0.00000000       0.04646893       0.12002359       0.44491890
Pt       8.00515323       0.05956272       6.82804202        7       0.00000000       0.09091368      -0.13596884      -0.05579808
Pt       1.30831101       2.37537239       6.72225005        6       0.00000000      -0.01585156       0.17978379       0.47719355
Ni       3.98494377       2.31412605       6.70459902        6       1.00000000       0.02687717      -0.03725481      -0.12473448
Ni       6.63071716       2.31730689       6.72407388        6       1.00000000      -0.05398143       0.06839116      -0.08036670
Ni       9.27731656       2.32079201       6.73618442        6       1.00000000       0.03533552       0.03342579      -0.00899366
Ni       2.65239231       4.59197482       6.71492944        6       1.00000000      -0.09114342       0.09428702      -0.12158027
Pt       5.30636957       4.59141543       6.74914133        6       0.00000000       0.04171326       0.14257216       0.42504232
Pt       7.99973577       4.61976707       6.84564958        7       0.00000000       0.02719489      -0.05402627      -0.02256353
Ni      10.61258842       4.61497009       6.74200205        6       1.00000000       0.03281145      -0.03782086      -0.05688433
Pt       4.03825535       6.91522195       6.66691766        6       0.00000000      -0.03755895       0.01735848       0.12793986
Ni       6.63665446       6.91058396       6.78104672        7       1.00000000      -0.08320755      -0.04249778      -0.43890359
Ni       9.27901328       6.89851437       6.73243888        6       1.00000000       0.03861001       0.02007005      -0.09475776
Pt      11.92240729       6.84279225       6.82873122        7       0.00000000       0.13302137       0.02222016      -0.08975222
