64
Lattice="9.875078755242349 -0.0010051596585012284 -0.004547907568750624 4.936668883822105 8.548798775741107 -0.006264829946509132 -0.003713350980260216 -0.0037626341294940547 8.438050659337893" Properties=species:S:1:pos:R:3:tags:I:1:initial_magmoms:R:1:forces:R:3 unique_id=d3bff7b6858a44049d566bb5a0005ba5 stress="0.00030154904174101854 8.253686122333544e-07 3.8128074762992034e-07 8.253686122333544e-07 0.0003017266611474029 4.181221196819858e-06 3.8128074762992034e-07 4.181221196819858e-06 0.00026435350396208923" energy=-379.10245756868784 pbc="T T T"
Ni       0.02876610      -0.04837834       0.12981035        4       1.00000000       0.01618616      -0.02596688       0.08350957
Ni       2.49284359      -0.01895857       0.06664208        4       1.00000000       0.00249188       0.00567553      -0.03464088
Ni       4.89243127       0.00004492       0.11002056        4       1.00000000      -0.00349504      -0.00278954       0.03466526
Pt       7.39468912      -0.00762652       0.06668524        4       0.00000000       0.01542583       0.00827657      -0.14974194
Pt       1.24470449       2.15171410       0.05400457        4       0.00000000      -0.01608351      -0.00169478      -0.17267193
Ni       3.75213015       2.15096695       0.10950334        4       1.00000000       0.00887562       0.01706581       0.03632630
Ni       6.14615106       2.18286663       0.11653129        4       1.00000000       0.00651887       0.01630186       0.04239364
Ni       8.61191635       2.19131964       0.22773548        4       1.00000000      -0.02056243       0.04748656       0.13098570
Ni       2.49942649       4.31328805       0.11015229        4       1.00000000       0.01386961      -0.00143375       0.03971918
Ni       4.93770629       4.27204612       0.10467021        4       1.00000000      -0.00515008      -0.00824450       0.03917414
Ni       7.39431059       4.28305648       0.11117637        4       1.00000000      -0.01685274       0.00511505       0.03771113
Ni       9.85179847       4.31189600       0.10698106        4       1.00000000      -0.00823427      -0.00771302       0.00590236
Ni       3.72118403       6.36318409       0.11091164        4       1.00000000      -0.00282945      -0.01946390       0.04216904
Ni       6.15595534       6.37793798       0.05978387        4       1.00000000      -0.00700401      -0.04723831      -0.04931241
Ni       8.65674187       6.39034319       0.05850355        4       1.00000000       0.00599061      -0.02614854      -0.05454920
Ni      11.08707533       6.36574095       0.09588935        4       1.00000000      -0.00436725      -0.01875132      -0.01666420
Ni       1.22361021       0.73499918       2.17190668        3       1.00000000       0.00202705       0.03014499      -0.01706233
Ni       3.72279139       0.75213916       2.14088352        3       1.00000000       0.00402283       0.00032138       0.00446007
Ni       6.14710170       0.72986373       2.16375003        3       1.00000000       0.01746277      -0.00340041      -0.01905971
Ni       8.64972050       0.74401684       2.14183234        3       1.00000000      -0.02032274      -0.02220852       0.03532349
Ni       2.49057802       2.86919051       2.16990402        3       1.00000000      -0.01278568      -0.00444670      -0.03856000
Ni       4.93479555       2.85602216       2.15063113        3       1.00000000      -0.01084627      -0.00128773       0.05850284
Ni       7.38406266       2.86259899       2.15627568        3       1.00000000      -0.02675178       0.02903102       0.10054841
Ni       9.87211211       2.87467939       2.17423507        3       1.00000000       0.04068557       0.00355823       0.02629244
Ni       3.70232515       4.97155745       2.14812826        3       1.00000000      -0.00477077      -0.01667447       0.06295319
Ni       6.14794823       4.94144104       2.13553621        3       1.00000000       0.00083204      -0.00040663       0.03453457
Ni       8.65939887       4.94925068       2.13319640        3       1.00000000      -0.00160760      -0.01507444       0.02818400
Ni      11.10961668       4.97561335       2.13530858        3       1.00000000       0.00233056      -0.00471573       0.00507774
Ni       4.91331268       7.09190975       2.09654068        3       1.00000000       0.00725920      -0.03268962       0.03702643
Pt       7.41380889       7.11312564       2.13150355        3       0.00000000      -0.00638195       0.00175095      -0.02494320
Ni       9.91282509       7.11684475       2.12638890        3       1.00000000      -0.01194566      -0.01524243      -0.01995329
Ni      12.31863836       7.07582917       2.12524173        3       1.00000000       0.00323742       0.00134416      -0.02601427
Ni       0.03284155       1.45317528       4.15917436        2       1.00000000      -0.04047360       0.00219074      -0.00376063
Ni       2.49440755       1.42562731       4.17179264        2       1.00000000       0.02908624      -0.00616543      -0.07985897
Ni       4.92517201       1.42857692       4.19035890        2       1.00000000       0.01777092      -0.00699167      -0.00430017
Ni       7.35771602       1.45803174       4.15240436        2       1.00000000       0.02000181       0.01873353       0.01999421
Ni       1.23764937       3.57451712       4.17617332        2       1.00000000       0.00634787       0.02612974      -0.04734507
Ni       3.70266495       3.55268760       4.19533300        2       1.00000000      -0.00830374      -0.00899142       0.01843041
Ni       6.16219042       3.55941456       4.19129395        2       1.00000000      -0.00625256      -0.00031370       0.03255453
Ni       8.63820003       3.58801453       4.16189711        2       1.00000000       0.00638554      -0.02434155       0.06212383
Ni       2.44198330       5.65294456       4.19099864        2       1.00000000       0.00242191       0.00255028      -0.00398938
Ni       4.95770446       5.64750859       4.18890598        2       1.00000000       0.00321546      -0.00343623      -0.00455688
Ni       7.40853413       5.67476961       4.21427345        2       1.00000000       0.00651191      -0.00879627      -0.03295489
Ni       9.87016632       5.69756001       4.17597187        2       1.00000000      -0.00896290       0.00044634      -0.04834685
Pt       3.70721922       7.81901998       4.17618966        2       0.00000000       0.03405443      -0.01847067      -0.03831422
Ni       6.20676075       7.84277888       4.22292765        2       1.00000000       0.01092343       0.01537793      -0.02866394
Ni       8.65814905       7.84412902       4.21234909        2       1.00000000       0.00893923      -0.00076661      -0.04636726
Ni      11.05168093       7.82578236       4.16753069        2       1.00000000      -0.00816254      -0.00791897      -0.07962147
Ni       0.05008845      -0.03321585       6.25431094        1       1.00000000       0.03025949       0.00475881       0.06484392
Ni       2.48714364      -0.00423819       6.20819671        1       1.00000000       0.02969181       0.01896064      -0.03571680
Ni       4.91740591      -0.00459011       6.22135818        1       1.00000000      -0.01566012       0.00413756       0.01467638
Ni       7.33790377      -0.02575457       6.13333469        1       1.00000000      -0.08106038       0.03538343      -0.05718715
Ni       1.28931974       2.13810380       6.09926739        1       1.00000000       0.02244778       0.00786005      -0.11665226
Ni       3.70140978       2.13291625       6.21636374        1       1.00000000      -0.00848868      -0.00202062       0.01570049
Ni       6.11096401       2.14165841       6.21263646        1       1.00000000      -0.01733491       0.01595136       0.01317029
Pt       8.63537561       2.14456133       6.26430889        1       0.00000000       0.00950882      -0.00761118       0.18893297
Ni       2.47092849       4.27078653       6.21683624        1       1.00000000      -0.00655151      -0.00635976       0.01931670
Ni       4.92816894       4.26790685       6.22142536        1       1.00000000      -0.01118222       0.00195668       0.01802762
Ni       7.37534624       4.31890339       6.22066714        1       1.00000000      -0.00686927       0.01429713       0.02360005
Ni       9.89858344       4.32375547       6.20391124        1       1.00000000       0.01353080       0.02267172      -0.02341237
Ni       3.70149471       6.36872652       6.24994683        1       1.00000000      -0.00425158      -0.01709785       0.03335418
Ni       6.17425961       6.40658773       6.20852103        1       1.00000000       0.00369794       0.00728050      -0.04718520
Ni       8.63923717       6.41698585       6.20268486        1       1.00000000       0.00563937       0.01362023      -0.05511118
Ni      11.09835224       6.40578372       6.20704242        1       1.00000000      -0.00410557       0.01649437      -0.03366703
