64
Lattice="10.766498392466838 0.004697933553941384 -0.007740000831296703 5.387317726036421 9.313872436549467 -0.022843208995635585 0.0 0.0 22.00677306421599" Properties=species:S:1:pos:R:3:tags:I:1:initial_magmoms:R:1:forces:R:3 unique_id=d3f0ae1583eb45139771151b5923b7c9 energy=-403.6082996696175 stress="0.003343728488471198 2.3530080380703694e-05 3.1572116375546686e-05 2.3530080380703694e-05 0.0032891005391036173 0.0001388690181321674 3.1572116375546686e-05 0.0001388690181321674 -0.001624913687053772" pbc="T T T"
Pt       0.00371018       0.00127497       0.09290876        1       0.00000000       0.03074691       0.01506614      -0.34854076
Pt       2.71031639       0.02400133       0.08851736        1       0.00000000      -0.00978769       0.00722953      -0.26657540
Pt       5.36405605       0.02507076       0.08682428        1       0.00000000       0.02254263      -0.00663650      -0.24289320
Pt       8.07079808       0.00500257       0.08505841        1       0.00000000      -0.04585558      -0.02100446      -0.32479707
Pt       1.38532054       2.32919658       0.08545796        1       0.00000000      -0.03155351      -0.02709941      -0.35018610
Ni       4.03621858       2.33363966       0.08308697        1       1.00000000      -0.00150249      -0.03637417       0.30202552
Pt       6.69447523       2.32856902       0.08712686        1       0.00000000       0.02651509      -0.01683755      -0.36368652
Pt       9.42204967       2.33289345       0.08130296        1       0.00000000       0.00574065      -0.00103221      -0.31983931
Pt       2.71117607       4.62626435       0.01267163        0       0.00000000      -0.01279738       0.04292680       0.06491598
Pt       5.36344195       4.62756006       0.07834114        1       0.00000000       0.00818041       0.03144734      -0.33429465
Pt       8.07690100       4.65827840       0.07632690        1       0.00000000      -0.04933396      -0.06102471      -0.28999121
Pt      10.77206505       4.65893061       0.06788501        1       0.00000000       0.05225994      -0.04214551      -0.25808487
Pt       4.03702124       6.97606824       0.07040614        1       0.00000000      -0.01595073      -0.03898116      -0.20740867
Pt       6.73516682       6.98668312       0.06922605        1       0.00000000      -0.03410382       0.00118874      -0.36426102
Pt       9.42312177       6.99413006       0.00000000        0       0.00000000       0.02528315       0.06314948       0.01149050
Pt      12.11560820       6.98355790       0.05964365        1       0.00000000       0.02353867       0.01462417      -0.23895079
Pt       1.34479400       0.77445613       2.37788062        3       0.00000000      -0.00093525       0.01021514       0.43818916
Pt       4.03622159       0.77729270       2.36794880        3       0.00000000      -0.00716756       0.08438720       0.32886549
Pt       6.72850231       0.77079815       2.38090763        3       0.00000000       0.02064402      -0.05280096       0.45323315
Pt       9.41774676       0.76219455       2.40268944        3       0.00000000      -0.01356106      -0.03337674       0.48099816
Pt       2.70189681       3.09985438       2.35296240        3       0.00000000       0.04089492       0.00779365       0.35060992
Pt       5.36980875       3.09408701       2.34949939        2       0.00000000      -0.07913275      -0.03143326       0.40942040
Pt       8.08392898       3.10776903       2.39655200        3       0.00000000       0.01309545       0.01459982       0.52163217
Pt      10.76012755       3.11231544       2.39383465        3       0.00000000       0.03597293       0.05670197       0.55179310
Pt       4.02320953       5.43196664       2.39519832        3       0.00000000      -0.04866890      -0.02894668       0.45206614
Pt       6.72538044       5.43091567       2.36930270        3       0.00000000      -0.03604503       0.03053773       0.50818584
Pt       9.42582322       5.42663452       2.39690234        3       0.00000000       0.04230884       0.03075571       0.50940216
Pt      12.12697732       5.43652821       2.39077477        3       0.00000000       0.01918123       0.00261706       0.50835769
Pt       5.37543530       7.76154404       2.38976498        3       0.00000000       0.01856478      -0.01789466       0.48371165
Pt       8.09263802       7.76137106       2.38904067        3       0.00000000       0.05845624      -0.02902882       0.51090379
Pt      10.75654089       7.76118841       2.38854454        3       0.00000000      -0.03042888      -0.04049844       0.51409398
Pt      13.46737741       7.75397688       2.41192587        3       0.00000000      -0.00738499      -0.03799695       0.58627884
Pt      -0.02342346       1.54928399       4.67035886        5       0.00000000       0.07201968       0.06790216      -0.41370065
Pt       2.70253453       1.52375974       4.66869820        5       0.00000000       0.01552615       0.03750701      -0.41823776
Pt       5.36583529       1.51832346       4.66776662        5       0.00000000      -0.02231134      -0.00130189      -0.43102497
Pt       8.09611327       1.53779024       4.66209576        5       0.00000000      -0.04320755      -0.06610876      -0.39285083
Pt       1.34063275       3.91265843       4.69424261        5       0.00000000       0.06170848       0.16461088      -0.32985283
Pt       4.00273653       3.90612706       4.69181687        5       0.00000000      -0.11999209       0.04530731      -0.25829155
Pt       6.75544979       3.88167410       4.66341278        5       0.00000000      -0.03994526       0.06770691      -0.50283295
Ni       9.42308669       3.87675513       4.67745659        5       1.00000000       0.04434274       0.02252568      -0.48454416
Ni       2.69319268       6.20780194       4.68743678        5       1.00000000      -0.03667698      -0.03331319      -0.39727419
Pt       5.33360020       6.23433381       4.65743910        5       0.00000000      -0.02403653       0.05796120      -0.41298899
Pt       8.11860981       6.21858091       4.68008755        5       0.00000000       0.08636806       0.11688060      -0.27207823
Pt      10.75550865       6.21662830       4.67614679        5       0.00000000      -0.07216814       0.12838880      -0.28258596
Ni       4.02820439       8.51540962       4.67265479        5       1.00000000      -0.03445342      -0.03338444      -0.48038402
Pt       6.72914515       8.52513976       4.65044968        5       0.00000000      -0.03191305       0.02612502      -0.40427471
Ni       9.42277985       8.52052006       4.67705608        5       1.00000000       0.03934418      -0.09211774      -0.41325237
Pt      12.13977810       8.49370666       4.64908031        4       0.00000000       0.10760808      -0.06662848      -0.37861114
Pt      -0.00906565      -0.02171546       6.91606912        6       0.00000000      -0.07185147      -0.10377796       0.19889090
Pt       2.71342949      -0.03905369       6.92169674        6       0.00000000       0.09439360      -0.09263213       0.19195527
Pt       5.35386262      -0.04858712       6.91446067        6       0.00000000      -0.07424821      -0.20638824       0.11692516
Pt       8.07365804      -0.02299408       6.90957465        6       0.00000000       0.03985293      -0.13303834       0.24899753
Pt       1.36200947       2.34322249       6.93108085        6       0.00000000       0.01763523       0.02831958       0.23627059
Pt       4.01726851       2.34070205       7.00677306        7       0.00000000      -0.00084496      -0.03041696      -0.03882622
Pt       6.71774442       2.31623643       6.93211868        6       0.00000000      -0.05503134       0.01066988       0.33253484
Pt       9.42081073       2.33898054       6.91092915        6       0.00000000       0.05083346       0.28285905       0.32528909
Ni       2.68972396       4.64557945       6.93412950        6       1.00000000      -0.02846150       0.06444497      -0.36123425
Pt       5.34960490       4.64997767       6.92715059        6       0.00000000       0.07436285       0.07552945       0.28181641
Pt       8.10188775       4.67200234       6.90661756        6       0.00000000       0.15761851      -0.03827396       0.26888705
Pt      10.76936932       4.67328796       6.90124228        6       0.00000000      -0.17262205      -0.05772540       0.21182911
Pt       4.00405322       6.94769562       6.88061623        6       0.00000000      -0.15823251       0.03052475       0.14672619
Pt       6.75426848       6.96946029       6.91374832        6       0.00000000      -0.03434932      -0.06166334       0.26546813
Ni       9.42189544       6.97408266       6.91779784        6       1.00000000       0.03554456       0.03831792      -0.36657614
Pt      12.10702469       6.94047968       6.88974529        6       0.00000000       0.10347093      -0.13893864       0.13716756
