64
Lattice="10.299086606566746 -0.03242168908511054 0.06240986335659975 5.121465296902065 8.878827169788657 0.04414929300330073 0.0 0.0 21.532946221358664" Properties=species:S:1:pos:R:3:tags:I:1:initial_magmoms:R:1:forces:R:3 unique_id=82acfd284e124f459a905f7ae100de74 stress="0.0058475082155412875 -2.1409016612021598e-06 0.00022440594860724072 -2.1409016612021598e-06 0.0055427610470166686 0.00014992833581535138 0.00022440594860724072 0.00014992833581535138 -0.0009878117479027414" energy=-376.0841727158115 pbc="T T T"
Ni       0.04924933       0.00379397       0.07674313        1       1.00000000       0.12758906       0.02265717      -0.08751402
Ni       2.54052238       0.00537563       0.12471334        1       1.00000000      -0.06961963       0.07578198      -0.02362420
Pt       5.09114826      -0.04438727       0.08143865        1       0.00000000      -0.06064025       0.20924413      -0.85322249
Pt       7.76139309      -0.13126653       0.12779868        1       0.00000000      -0.12298182      -0.02131330      -0.78012388
Ni       1.29639369       2.23062692       0.02461487        0       1.00000000       0.01307479       0.07792958       0.40994161
Pt       3.77315492       2.27698836       0.12468363        1       0.00000000      -0.00146002       0.02174009      -0.35353324
Pt       6.41703630       2.24371291       0.06676000        1       0.00000000       0.06199224      -0.07940160      -0.07324314
Pt       9.11672737       2.23230391       0.10597509        1       0.00000000      -0.04281557       0.12218908      -0.57503227
Ni       2.55694722       4.47150164       0.00000000        0       1.00000000       0.04278698       0.01023790       0.38957900
Ni       5.09984888       4.46707079       0.04780505        0       1.00000000      -0.08460275       0.11637313       0.38586423
Pt       7.75383167       4.49036216       0.06911284        1       0.00000000       0.07609369       0.09535309       0.03008660
Ni      10.34554510       4.44322732       0.05558887        1       1.00000000       0.08814907       0.00333931       0.34268747
Ni       3.83130695       6.60527554       0.04414709        0       1.00000000      -0.01747130      -0.13884132       0.43013779
Pt       6.37877989       6.69950858       0.14114866        1       0.00000000      -0.00333061       0.05606911      -0.25358900
Ni       9.00822324       6.62938720       0.12972328        1       1.00000000      -0.11175215      -0.02677468      -0.17504648
Ni      11.58196436       6.57158212       0.05927924        1       1.00000000       0.04105193       0.00485348       0.23930826
Ni       1.32691917       0.73907453       2.12363327        2       1.00000000       0.15011868       0.00379921       0.07844446
Ni       3.84301102       0.75541643       2.17405883        3       1.00000000       0.01854442       0.00220564       0.23924514
Ni       6.42134619       0.76402708       2.20023650        3       1.00000000      -0.10169413       0.12761546       0.26376096
Pt       9.11018369       0.70925948       2.22588827        3       0.00000000       0.17133125       0.04098744      -0.06791362
Ni       2.56585109       2.96942888       2.17657810        3       1.00000000       0.01658801       0.07796013       0.08988588
Ni       5.13149238       2.98410816       2.20849922        3       1.00000000      -0.06876789       0.10583824       0.19437738
Ni       7.72613666       2.98917337       2.20449508        3       1.00000000       0.02713030       0.11757612       0.16854410
Ni      10.33258137       2.94681996       2.24495135        3       1.00000000       0.05693012      -0.00669129       0.28467044
Ni       3.89175521       5.17084982       2.16380123        3       1.00000000       0.14167088      -0.08129386       0.08773391
Ni       6.41495076       5.17854209       2.21159255        3       1.00000000      -0.05753597       0.03774282       0.13800106
Ni       8.98290879       5.13277026       2.23231772        3       1.00000000      -0.10351416      -0.23029671       0.30514698
Pt      11.62414971       5.08850155       2.21629121        3       0.00000000       0.12718067      -0.11750897       0.10015850
Ni       5.15389338       7.36321755       2.19349903        3       1.00000000       0.05797804      -0.17987914       0.17291217
Ni       7.67233538       7.38755859       2.20111139        3       1.00000000      -0.11955007      -0.03978528       0.24423809
Pt      10.26141372       7.31255780       2.19439309        3       0.00000000      -0.00568196      -0.16900870      -0.12505736
Ni      12.90381111       7.30736181       2.22130617        3       1.00000000       0.18936847      -0.25746421       0.10515147
Ni       0.04659094       1.53237390       4.27487795        5       1.00000000      -0.03629935       0.08242861      -0.16335508
Pt       2.53734424       1.55597309       4.21676792        4       0.00000000      -0.04907794       0.04195467       0.03017247
Ni       5.15622971       1.50633799       4.28178530        5       1.00000000      -0.13771215       0.00831582      -0.44780316
Pt       7.73115601       1.52581353       4.29065614        5       0.00000000      -0.06580704       0.00548034      -0.13889840
Ni       1.28326358       3.73813564       4.33665783        5       1.00000000      -0.04743854       0.03159901       0.00599322
Ni       3.85535723       3.76767460       4.28837248        5       1.00000000      -0.12374938       0.13910982      -0.29515011
Pt       6.40436657       3.76865098       4.31209861        5       0.00000000      -0.08513391       0.02633646      -0.07978387
Ni       9.06813899       3.74874351       4.31522380        5       1.00000000       0.05470340       0.12444790      -0.30105490
Ni       2.59307484       5.85198787       4.34855661        5       1.00000000       0.00782345      -0.20567679      -0.06260246
Ni       5.13283882       5.88691499       4.29511726        5       1.00000000      -0.03445678      -0.11950510      -0.33879820
Ni       7.73477209       5.88321837       4.30083071        5       1.00000000       0.01464393      -0.01645687      -0.42336205
Ni      10.31399013       5.82071804       4.37507701        6       1.00000000       0.00258538      -0.12147332      -0.12515702
Pt       3.94181709       8.03760091       4.28659619        5       0.00000000       0.07197935      -0.14095626       0.08860210
Ni       6.43324046       8.11363939       4.28577533        5       1.00000000      -0.04476816      -0.06163337      -0.37175139
Pt       8.92957128       8.09829598       4.29603669        5       0.00000000      -0.09488150       0.03659304      -0.07694609
Pt      11.59883016       8.03336327       4.30757941        5       0.00000000      -0.07335162      -0.20247008      -0.06596390
Pt       0.03350634       0.02569403       6.47562270        8       0.00000000       0.02562200       0.11602399       0.21990279
Pt       2.58909615       0.02616086       6.52224349        8       0.00000000       0.02150948      -0.07014565       0.26677936
Pt       5.19161428       0.01820428       6.42794259        7       0.00000000      -0.04295826       0.19995897       0.83849794
Pt       7.75859777      -0.07263601       6.48151866        8       0.00000000       0.05439446       0.07816680       0.90253998
Ni       1.31290441       2.30004586       6.45731812        8       1.00000000       0.02844811       0.18612838      -0.26880883
Pt       3.88411009       2.35324946       6.41330545        7       0.00000000       0.04691445       0.06168555       0.34072089
Ni       6.46340025       2.26525235       6.43376335        7       1.00000000      -0.05194627       0.04754488       0.13696247
Pt       9.07518923       2.32394162       6.43438537        7       0.00000000       0.09649401       0.00741159       0.57266786
Ni       2.56737611       4.49444064       6.45429814        8       1.00000000      -0.03131550      -0.01032036      -0.48728338
Ni       5.14374943       4.45054714       6.48294005        8       1.00000000      -0.11495781       0.04852416      -0.30511631
Ni       7.72480319       4.40935273       6.42689798        7       1.00000000      -0.03815215      -0.01213530      -0.03682092
Ni      10.38664908       4.42671673       6.49438780        8       1.00000000       0.18403626      -0.01695717      -0.37097635
Ni       3.83977698       6.58473913       6.48181728        8       1.00000000      -0.06013361      -0.16788653      -0.33136551
Pt       6.39776775       6.56540679       6.40391225        7       0.00000000       0.08780302       0.07178525       0.22786323
Pt       9.07803273       6.52214687       6.52860094        8       0.00000000      -0.03257444      -0.09310294       0.01649684
Ni      11.63011724       6.56550252       6.53294622        8       1.00000000       0.03159681      -0.05600956      -0.28817706
