64
Lattice="10.346609874993389 -4.8930957330996724e-05 0.06704372631787764 5.1732625620446155 8.938570734213457 0.03469749247174688 0.0547409733112018 0.001108393945664434 8.840783451229386" Properties=species:S:1:pos:R:3:tags:I:1:initial_magmoms:R:1:forces:R:3 unique_id=d049e0ca9cf643c689e83d4989cbd9ae stress="0.0003209850627636443 1.7768713289514595e-06 -2.064755173837817e-05 1.7768713289514595e-06 0.00032774521918320365 7.772653840169269e-06 -2.064755173837817e-05 7.772653840169269e-06 0.00030354906312415886" energy=-400.5421844170851 pbc="T T T"
Ni      -0.00992928       0.02331616       0.19791591        4       1.00000000      -0.02940409       0.11770634       0.36236663
Ni       2.59006671       0.00539805       0.12297136        4       1.00000000       0.02363511       0.02818636       0.24021972
Ni       5.17940254      -0.00866187       0.18108657        4       1.00000000       0.02791408       0.14165358       0.27179209
Ni       7.78970609      -0.03620499       0.16213576        4       1.00000000       0.12490362      -0.12270399       0.22454413
Ni       1.28945192       2.21576571       0.16991825        4       1.00000000       0.02269043      -0.11814643       0.24027038
Pt       3.82798096       2.22346202       0.13954706        4       0.00000000      -0.01374640       0.01782309      -0.12574100
Pt       6.49717209       2.16629840       0.23511967        4       0.00000000       0.07424527      -0.12748800       0.13511756
Ni       9.07913976       2.19822622       0.20726270        4       1.00000000       0.00851158      -0.18277004       0.12129678
Ni       2.59110281       4.47662328       0.15198219        4       1.00000000       0.08106954      -0.04068002       0.15112107
Ni       5.17048771       4.46878367       0.18981366        4       1.00000000       0.14033182      -0.09821287       0.19019646
Pt       7.80323759       4.46495808       0.09434809        4       0.00000000       0.15657297      -0.00014485      -0.19199857
Ni      10.37861025       4.47547763       0.12378319        4       1.00000000       0.10729711       0.00095340       0.08118392
Ni       3.85737980       6.73452332       0.20412651        4       1.00000000      -0.00426188       0.15151759       0.26334824
Pt       6.45766202       6.76319438       0.24131048        4       0.00000000      -0.00577730       0.05959574       0.16114307
Ni       9.08247020       6.73077512       0.12601226        4       1.00000000       0.05019824       0.07465795       0.10936328
Ni      11.66249531       6.71905895       0.13466534        4       1.00000000       0.15477974       0.08777010       0.00926399
Ni       1.32765333       0.72766123       2.19748995        3       1.00000000       0.10160631       0.01119667      -0.11226430
Ni       3.86653043       0.78114372       2.25930622        3       1.00000000      -0.06651175       0.12593140       0.08073939
Ni       6.51012320       0.76030058       2.29367514        3       1.00000000       0.08676690       0.08165674       0.16655517
Ni       9.04198552       0.72446566       2.25011591        3       1.00000000      -0.13808012      -0.02470663      -0.09275248
Ni       2.62298219       2.93127697       2.25426541        3       1.00000000       0.04329013      -0.11481883       0.08294306
Ni       5.17542573       2.94933997       2.28927696        3       1.00000000      -0.09102048      -0.18962634       0.02984585
Ni       7.76688651       2.93089411       2.29175707        3       1.00000000       0.07271637      -0.16880645      -0.09510768
Pt      10.34050140       2.87461102       2.26308440        3       0.00000000      -0.06327014      -0.04878065       0.00591945
Pt       3.93152331       5.19893739       2.20925576        3       0.00000000      -0.05740442      -0.06329710       0.08280244
Ni       6.47521693       5.20047957       2.26363192        3       1.00000000       0.04680186      -0.02255894      -0.10838759
Pt       9.00295883       5.21856007       2.31748240        3       0.00000000      -0.12908334      -0.06730631      -0.05987888
Pt      11.67948599       5.22666772       2.23746744        3       0.00000000      -0.01338140       0.03461951      -0.01097614
Ni       5.17179443       7.49795087       2.23743824        3       1.00000000      -0.06248875       0.11073186      -0.04916013
Ni       7.76146645       7.49335954       2.26706430        3       1.00000000       0.04462019       0.10577101      -0.03179808
Pt      10.35952616       7.52704278       2.20004766        3       0.00000000       0.01355403       0.03663374      -0.02216216
Ni      12.97215993       7.49214413       2.26819331        3       1.00000000      -0.01205716       0.06838098      -0.04240348
Ni       0.01128576       1.51058642       4.36998780        2       1.00000000      -0.04923579       0.05501743      -0.05672773
Ni       2.65145092       1.51766896       4.38440976        2       1.00000000       0.09520214       0.07468712      -0.20827862
Ni       5.16644842       1.52247821       4.38554207        2       1.00000000      -0.05245693       0.06928496      -0.22856255
Ni       7.80923203       1.50951239       4.39147266        2       1.00000000       0.08329294       0.07956485      -0.23633570
Pt       1.34631483       3.66690771       4.36378662        2       0.00000000       0.07915609      -0.06483654       0.03437842
Ni       3.90722567       3.67029828       4.40205843        2       1.00000000       0.04464819      -0.08341204      -0.12393270
Pt       6.53706246       3.68184941       4.32631633        2       0.00000000      -0.04980429      -0.06897570       0.00516775
Ni       9.06975022       3.70160855       4.45913802        2       1.00000000       0.04747069      -0.09871474      -0.15970114
Ni       2.60811558       5.95267465       4.40942051        2       1.00000000      -0.00934639       0.01937491      -0.11440093
Pt       5.19346361       5.93963387       4.36661020        2       0.00000000       0.02797941       0.04463530       0.11237642
Ni       7.79873475       5.93570218       4.44017024        2       1.00000000      -0.07888901       0.05644210      -0.11219988
Pt      10.34630091       5.92993059       4.55502844        2       0.00000000       0.03382632      -0.00561760       0.00183434
Pt       3.89511381       8.26018578       4.32601724        2       0.00000000      -0.07103535       0.03839298      -0.02333260
Pt       6.50460280       8.27332044       4.33464133        2       0.00000000       0.00135664       0.12367910      -0.01054313
Pt       9.05292842       8.24811432       4.43378321        2       0.00000000      -0.06333551       0.06458917      -0.04950964
Pt      11.68688216       8.24555982       4.45232741        2       0.00000000       0.01455465       0.11604313       0.01149103
Pt       0.03057994       0.00790363       6.61743147        1       0.00000000      -0.06415556      -0.02438191       0.21971773
Ni       2.64649146       0.00521837       6.58929029        1       1.00000000      -0.01494247      -0.01866581      -0.10701684
Pt       5.16669811      -0.05134880       6.65762150        1       0.00000000      -0.15187760      -0.17047938       0.14606890
Ni       7.77500029      -0.00356414       6.62364222        1       1.00000000      -0.07399195       0.03289451      -0.09948441
Pt       1.38214250       2.20266975       6.60163370        1       0.00000000       0.07551646      -0.03398294       0.09499142
Ni       3.90714151       2.20954810       6.49383447        1       1.00000000       0.00979039      -0.05694245      -0.29626290
Pt       6.49807185       2.18376290       6.53273653        1       0.00000000      -0.05924984      -0.05744758      -0.24197798
Pt       9.08538581       2.29627518       6.59816887        1       0.00000000       0.02822602       0.05275495       0.03178287
Pt       2.56610901       4.49004058       6.59939114        1       0.00000000      -0.17463979       0.03216975       0.01730549
Pt       5.20765016       4.43369161       6.62369396        1       0.00000000      -0.03551408      -0.01893940       0.01582230
Ni       7.83898797       4.48637283       6.50957800        1       1.00000000       0.02334609       0.00443883      -0.45626604
Ni      10.34976541       4.50299969       6.64246963        1       1.00000000      -0.10187645       0.00880432      -0.05774597
Pt       3.83124079       6.74634163       6.63984388        1       0.00000000      -0.12240570       0.05346711       0.14413474
Pt       6.61426634       6.69950755       6.56015982        1       0.00000000       0.04890570       0.03781394      -0.14680739
Ni       9.10693664       6.67388555       6.63870599        1       1.00000000       0.00667441      -0.12516556      -0.05256341
Ni      11.63973514       6.70024221       6.64891921        1       1.00000000      -0.14220749      -0.00123139      -0.12082407
