64
Lattice="10.256390590722694 -0.008747287893314512 -0.014268758750358464 5.120619921831523 8.864293664010978 -0.025696299707505362 -0.011650392733750257 -0.017500346318442977 8.76644917072102" Properties=species:S:1:pos:R:3:tags:I:1:initial_magmoms:R:1:forces:R:3 unique_id=d192adadbc374d03984a229b54be7837 stress="0.00019019130658574912 1.7962393013579595e-06 2.1426428027776767e-06 1.7962393013579595e-06 0.0001908836248813578 5.37674877073485e-06 2.1426428027776767e-06 5.37674877073485e-06 0.00018590277229023344" energy=-396.7889928136438 pbc="T T T"
Ni      -0.00314042       0.01697022       0.18536878        4       1.00000000       0.02302417       0.08379455       0.27276377
Ni       2.55861346      -0.00041525       0.20917700        4       1.00000000      -0.01549143       0.00918765       0.36706046
Ni       5.12749378      -0.02727828       0.15236002        4       1.00000000      -0.03816767       0.06638933       0.21176103
Ni       7.70249923      -0.05815211       0.07511659        4       1.00000000       0.00068983      -0.15790418       0.12209761
Ni       1.24414425       2.21778912       0.18793889        4       1.00000000      -0.15885955       0.01159974       0.31191897
Pt       3.77801783       2.21375290       0.10153738        4       0.00000000      -0.09963017       0.03330199      -0.14677105
Pt       6.43585150       2.15030030       0.18059890        4       0.00000000       0.08237055      -0.12528220       0.27507059
Ni       9.01463910       2.20414072       0.13322595        4       1.00000000       0.11320252       0.03414788       0.10331664
Ni       2.53644269       4.44768397       0.04666567        4       1.00000000      -0.10411381       0.01271921      -0.04629108
Ni       5.11532596       4.43367204       0.14469262        4       1.00000000       0.14064479      -0.09594902       0.29089721
Pt       7.76070873       4.43433740       0.08656174        4       0.00000000       0.13046049       0.00790633      -0.11301203
Ni      10.28369709       4.41297657       0.05422382        4       1.00000000       0.08586752      -0.06584897       0.03999301
Ni       3.80217420       6.66532524       0.06072397        4       1.00000000      -0.10091009       0.06990818       0.07728882
Pt       6.37367798       6.69581477       0.08688350        4       0.00000000      -0.07658556       0.02011940      -0.14252174
Ni       8.98896595       6.65503244       0.13063998        4       1.00000000      -0.02749770       0.00448442       0.18108449
Ni      11.55235564       6.64220594       0.02970662        4       1.00000000       0.05173180      -0.03390774      -0.04205906
Ni       1.28856499       0.75251409       2.15938356        3       1.00000000      -0.02343019       0.08252473       0.01644621
Ni       3.83943240       0.74942616       2.19021986        3       1.00000000       0.06839557       0.02387098       0.03442709
Ni       6.40145549       0.72756031       2.24781597        3       1.00000000       0.01545103       0.01939583       0.23035084
Pt       8.96580345       0.75912181       2.16725766        3       0.00000000      -0.06989462       0.05043278       0.07398547
Ni       2.53688762       2.93177710       2.19348006        3       1.00000000      -0.06578086       0.05933928      -0.03964678
Ni       5.11420472       2.91939573       2.22328398        3       1.00000000      -0.10630877      -0.13539000       0.01431834
Ni       7.72106822       2.96252055       2.21867028        3       1.00000000       0.18429031       0.04651317      -0.04777103
Ni      10.24560144       2.93710306       2.19132387        3       1.00000000      -0.02764334      -0.00420903       0.14097487
Pt       3.84820295       5.15200746       2.14363785        3       0.00000000      -0.07300521      -0.03536734      -0.03426734
Ni       6.43861600       5.16669251       2.18786294        3       1.00000000       0.09578421       0.08275432      -0.06106529
Ni       8.94916392       5.14124121       2.22509553        3       1.00000000      -0.01363832      -0.02136990       0.18768350
Pt      11.49520659       5.10310124       2.18578103        3       0.00000000      -0.04317375      -0.06401420      -0.00262252
Ni       5.11686991       7.39442323       2.15910563        3       1.00000000      -0.11219998       0.00791176      -0.03409239
Ni       7.67562344       7.37551123       2.16245740        3       1.00000000       0.03610622      -0.07209846       0.02421878
Pt      10.26714395       7.39610668       2.12175385        3       0.00000000       0.08324504      -0.06283036       0.06829519
Ni      12.80787678       7.38616419       2.13895441        3       1.00000000      -0.01264862      -0.03959891      -0.07063095
Ni      -0.02220824       1.52748100       4.32311879        2       1.00000000       0.00298701       0.14342007      -0.06521800
Pt       2.57288239       1.56445164       4.26001276        2       0.00000000      -0.04733596       0.07930544       0.02735797
Ni       5.14128180       1.46630705       4.29259113        2       1.00000000       0.06543876      -0.01665695      -0.16158787
Ni       7.67872309       1.45720920       4.30290688        2       1.00000000      -0.03979582       0.04999585      -0.07923553
Ni       1.24764275       3.73445120       4.34703280        2       1.00000000      -0.03731326       0.01183725      -0.04586969
Ni       3.81058859       3.69365501       4.34241828        2       1.00000000      -0.01916847       0.09487339      -0.11766088
Pt       6.45724631       3.65589344       4.22968736        2       0.00000000      -0.01177667      -0.03999751       0.04170849
Ni       9.01020227       3.70311268       4.30520999        2       1.00000000       0.15205021       0.04818076      -0.19823013
Ni       2.49471519       5.87360894       4.38689690        2       1.00000000      -0.11832249      -0.05964854      -0.07797381
Pt       5.09096753       5.88544728       4.32045897        2       0.00000000       0.02244649      -0.00823717      -0.00668563
Ni       7.72284062       5.85388265       4.30366144        2       1.00000000       0.10888759      -0.01848742      -0.21573350
Ni      10.27330909       5.84360840       4.34460191        2       1.00000000       0.01616938      -0.02682373      -0.06185336
Pt       3.71872555       8.12106229       4.31974225        2       0.00000000      -0.02249525      -0.04236680       0.02884711
Pt       6.39487710       8.12761177       4.24209469        2       0.00000000      -0.08363062       0.13825548      -0.00956599
Pt       9.01493703       8.08404289       4.26265453        2       0.00000000      -0.02574311      -0.03305359       0.08471753
Ni      11.53163051       8.10093419       4.32031592        2       1.00000000      -0.09123940      -0.06830332      -0.10966752
Pt      -0.06556850      -0.07215385       6.57045728        1       0.00000000      -0.01099565      -0.05330476       0.15534364
Pt       2.56845493      -0.01488427       6.57484126        1       0.00000000       0.03356714       0.00311556       0.23290959
Pt       5.19513622      -0.06589124       6.51993774        1       0.00000000       0.10156456      -0.17559358       0.09174195
Ni       7.67486071      -0.06455482       6.49401383        1       1.00000000       0.00475289      -0.04475487      -0.11144563
Pt       1.30428164       2.31848235       6.52248437        1       0.00000000       0.16192065       0.05754933       0.20061910
Ni       3.83990763       2.23302687       6.41255510        1       1.00000000       0.05882253       0.00872202      -0.31052012
Pt       6.39507738       2.19505233       6.42474278        1       0.00000000      -0.02812595      -0.00536911      -0.21612004
Pt       8.96291673       2.25809294       6.45407559        1       0.00000000       0.03802583       0.09773025      -0.05530009
Ni       2.52952967       4.47966918       6.46152691        1       1.00000000      -0.05903421       0.17855561      -0.25691595
Pt       5.04992131       4.45128838       6.53314015        1       0.00000000      -0.11309270       0.10838627       0.10011534
Ni       7.67756313       4.42737035       6.39639671        1       1.00000000      -0.11917864      -0.01811392      -0.31251755
Ni      10.28002144       4.44396881       6.44492902        1       1.00000000       0.17205462       0.05436095      -0.24790959
Ni       3.76385762       6.62377903       6.49072257        1       1.00000000      -0.20020511      -0.00866869      -0.12054892
Ni       6.39430939       6.60578943       6.41267972        1       1.00000000       0.05681645      -0.04621309      -0.29126633
Pt       8.98239430       6.51297712       6.48848565        1       0.00000000       0.01030653      -0.11192066       0.08099136
Ni      11.57690854       6.58668457       6.44693493        1       1.00000000       0.07935827      -0.10930573      -0.23572755
