64
Lattice="10.329648446373902 -0.018000820423059935 -0.002236536065393865 5.149235055411616 8.905563309741709 -0.005465506100098525 -0.0018261240505156398 -0.004098615355855918 8.8226421376917" Properties=species:S:1:pos:R:3:tags:I:1:initial_magmoms:R:1:forces:R:3 unique_id=e6eba80fb1154cc5ae5b152f37bed031 stress="0.00028847171304170055 1.9001626876432426e-06 -1.7218365112370378e-05 1.9001626876432426e-06 0.00028459814754552143 2.684060203124607e-06 -1.7218365112370378e-05 2.684060203124607e-06 0.00027226731811219596" energy=-399.5106053747437 pbc="T T T"
Ni       0.01702373       0.02534632       0.19991002        4       1.00000000       0.03492037       0.11438934       0.33048126
Ni       2.58080126      -0.00000020       0.20373655        4       1.00000000       0.01103295      -0.01132782       0.39978076
Ni       5.13999646      -0.02369891       0.16117875        4       1.00000000      -0.09931836       0.14041321       0.25470037
Pt       7.78312072      -0.07929027       0.11325299        4       0.00000000       0.01132315      -0.08667449      -0.07432356
Ni       1.27206327       2.21969723       0.08065972        4       1.00000000      -0.08268249      -0.05822914       0.09018281
Pt       3.78363768       2.22981053       0.11150726        4       0.00000000      -0.15604183       0.04253374      -0.12246183
Pt       6.41603055       2.19484177       0.14826079        4       0.00000000      -0.06554688       0.02821937       0.24837172
Ni       9.07108030       2.19586000       0.13128627        4       1.00000000       0.00324508      -0.11800375       0.12775028
Ni       2.57404974       4.46796123       0.07437004        4       1.00000000       0.05422101       0.04856641       0.08583136
Ni       5.12196160       4.46525690       0.18640493        4       1.00000000      -0.01879197       0.00601240       0.36704666
Pt       7.81479016       4.48156254       0.06340284        4       0.00000000       0.12900264       0.00282878      -0.12771936
Ni      10.35878177       4.44776170       0.05120179        4       1.00000000       0.14179489       0.01392874       0.05515201
Ni       3.84929064       6.64843344       0.19261581        4       1.00000000      -0.02461326      -0.15461581       0.33569863
Pt       6.42059282       6.72656191       0.19701263        4       0.00000000      -0.04103305       0.05085116       0.09005969
Ni       9.05274268       6.68828594       0.07011229        4       1.00000000      -0.00456891       0.07231952       0.01004355
Ni      11.60919787       6.64118446       0.05449235        4       1.00000000       0.04416103      -0.06075504      -0.04172235
Ni       1.29973911       0.72323162       2.17108684        3       1.00000000       0.07806934       0.00405883      -0.05965475
Ni       3.86153590       0.75486085       2.20821984        3       1.00000000       0.03599596       0.05560121       0.06526119
Ni       6.44273609       0.72422617       2.25157931        3       1.00000000      -0.00900821       0.03715489       0.10434544
Ni       9.05162592       0.69680782       2.20805292        3       1.00000000       0.03665067       0.00922251      -0.00835567
Ni       2.60713940       2.96625941       2.21661765        3       1.00000000       0.06040399       0.09589946       0.04208464
Ni       5.10532288       2.97083475       2.24471223        3       1.00000000      -0.12691992      -0.02170831       0.09120079
Pt       7.75675547       2.93324197       2.26710530        3       0.00000000       0.05464442      -0.04840409      -0.17335711
Pt      10.36436645       2.89648847       2.18767360        3       0.00000000       0.14539413       0.01365597       0.02616307
Ni       3.87889805       5.18193156       2.18026291        3       1.00000000      -0.00590042      -0.10512321      -0.05619502
Ni       6.43646944       5.19544885       2.21614465        3       1.00000000       0.08577466      -0.01593940      -0.05301764
Ni       9.01532805       5.20740642       2.24848105        3       1.00000000       0.02562236      -0.00975903       0.15119494
Pt      11.67494256       5.19149165       2.17110347        3       0.00000000       0.04827115      -0.01236742       0.01424698
Ni       5.12060912       7.43201262       2.18844331        3       1.00000000      -0.10938908       0.02448696      -0.09812644
Ni       7.73310388       7.41599836       2.20765903        3       1.00000000       0.02244332      -0.08482110      -0.00407085
Pt      10.28990198       7.41972700       2.12949528        3       0.00000000       0.02503204      -0.10022237      -0.01289838
Ni      12.93333082       7.39816782       2.20198572        3       1.00000000       0.01796703      -0.07963244       0.03081356
Ni      -0.02143136       1.51849533       4.36502385        2       1.00000000       0.01672296       0.09409591      -0.09084634
Pt       2.61521658       1.54514061       4.32648714        2       0.00000000      -0.02199065      -0.01062067      -0.10898466
Ni       5.15972727       1.48799953       4.33807131        2       1.00000000       0.03855437      -0.02371880      -0.21448412
Ni       7.76634056       1.47659060       4.36280752        2       1.00000000       0.05272997       0.04318831      -0.08406422
Pt       1.26090150       3.76645155       4.46169742        2       0.00000000      -0.00535722       0.01367881      -0.01500490
Ni       3.85800836       3.70344419       4.35754235        2       1.00000000      -0.03624206       0.04823977      -0.19649709
Pt       6.46046860       3.69661998       4.33541007        2       0.00000000      -0.11244553      -0.02040227       0.09138632
Ni       9.04290594       3.73222642       4.39136154        2       1.00000000       0.04703220       0.12139047      -0.15760245
Ni       2.54777284       5.91795791       4.38213045        2       1.00000000      -0.03830513       0.03007581      -0.09486988
Pt       5.09962928       5.89250184       4.26220953        2       0.00000000      -0.09213520       0.06674592       0.01279839
Ni       7.79725010       5.88094489       4.35337164        2       1.00000000       0.05510813      -0.07363564      -0.21167753
Ni      10.29525442       5.89396490       4.41919159        2       1.00000000      -0.05347497       0.00598162      -0.09443306
Pt       3.83838434       8.21525554       4.29338135        2       0.00000000      -0.00059340       0.06402578       0.03339957
Pt       6.43835167       8.17259160       4.25764439        2       0.00000000      -0.00222088      -0.00089582       0.00337041
Pt       9.02564262       8.09774990       4.34110256        2       0.00000000      -0.04837047       0.00401356       0.08197484
Pt      11.62050496       8.13595871       4.35480087        2       0.00000000      -0.01413770      -0.02808786      -0.04673078
Pt      -0.01750609       0.03964272       6.59524732        1       0.00000000      -0.02189130       0.01974089       0.17586142
Pt       2.60158040       0.04853657       6.62722116        1       0.00000000       0.00998727       0.07213454       0.23691490
Pt       5.19294687      -0.08065187       6.60246759        1       0.00000000       0.04584965      -0.25337071       0.12982840
Ni       7.73900292      -0.01625034       6.48480616        1       1.00000000       0.07337480       0.05462007      -0.23854833
Ni       1.30138583       2.27936791       6.55520404        1       1.00000000       0.05724032       0.10706022      -0.08203047
Ni       3.83765226       2.24327131       6.47721657        1       1.00000000      -0.02355314      -0.00126733      -0.25592552
Pt       6.46239558       2.17924248       6.46785511        1       0.00000000       0.00863127      -0.03270121      -0.26721994
Pt       9.07950381       2.30132931       6.51807582        1       0.00000000       0.17784748       0.16131445       0.02317741
Ni       2.51919310       4.43108708       6.54901273        1       1.00000000      -0.14038184      -0.01996565      -0.03987908
Pt       5.08125919       4.39764949       6.58243014        1       0.00000000      -0.13683094      -0.02943892       0.17455705
Ni       7.79235890       4.45822178       6.44856074        1       1.00000000       0.08431090       0.05618113      -0.31726055
Ni      10.32549200       4.48518937       6.53615037        1       1.00000000      -0.01859035       0.21028548      -0.07725265
Pt       3.73730233       6.66084935       6.58584960        1       0.00000000      -0.15922624       0.01739950       0.19393787
Pt       6.51457652       6.61943819       6.49672276        1       0.00000000       0.02214151      -0.04872686      -0.23754292
Ni       9.06875981       6.60050081       6.53332262        1       1.00000000       0.06170227      -0.18986821      -0.19221878
Ni      11.56851984       6.60635864       6.53629589        1       1.00000000      -0.14764189      -0.25003134      -0.22264001
