64
Lattice="10.288576251783192 0.028767427145224348 -0.037849451533139046 5.1692014486008775 8.97180138436848 -0.05356014027701807 -0.03090394776679777 -0.032654581959393934 8.858530340955285" Properties=species:S:1:pos:R:3:tags:I:1:initial_magmoms:R:1:forces:R:3 unique_id=9e2cd2b1d7d6471db2c2a4da3b31b60e stress="-0.00047938907885364257 -4.384683076635071e-06 1.103859445851364e-05 -4.384683076635071e-06 -0.0004811576741846693 6.729789323576396e-06 1.103859445851364e-05 6.729789323576396e-06 -0.0004028170058396549" energy=-400.6555617176006 pbc="T T T"
Ni       0.03154444       0.03803815       0.15360823        4       1.00000000       0.09067601       0.14134716       0.21736361
Ni       2.57365545       0.00711460       0.18802502        4       1.00000000       0.02552271      -0.02785618       0.34038147
Ni       5.11120960      -0.02308633       0.06167828        4       1.00000000      -0.08496947      -0.05725908       0.11848291
Pt       7.72893553      -0.07193326      -0.00267709        4       0.00000000      -0.04641147      -0.14569537      -0.11692279
Ni       1.26913516       2.23987881       0.07044434        4       1.00000000      -0.07087942      -0.01216649       0.09027214
Pt       3.78648308       2.23877200       0.17265992        4       0.00000000      -0.10814833      -0.04835469       0.24077189
Pt       6.43521267       2.26321179       0.11568879        4       0.00000000      -0.00792789      -0.01720062       0.30125222
Ni       9.05493257       2.25234124       0.01469972        4       1.00000000       0.05559516      -0.11780721      -0.03539728
Ni       2.57910164       4.49650895       0.05505499        4       1.00000000      -0.02643543      -0.02188489       0.09506713
Ni       5.10921963       4.50187987       0.14426445        4       1.00000000      -0.08102659      -0.04367832       0.31851394
Pt       7.84325404       4.49592451      -0.00789780        4       0.00000000       0.22750483      -0.01872711      -0.16316455
Ni      10.34766288       4.50065121      -0.00043399        4       1.00000000       0.23381752       0.01475052       0.01840774
Ni       3.84798149       6.66958972       0.03858065        4       1.00000000      -0.10251752      -0.25971122       0.07982081
Pt       6.46150163       6.78073693      -0.03277050        4       0.00000000      -0.00623073       0.02629798      -0.20636599
Ni       9.04949933       6.75789136       0.08557193        4       1.00000000       0.05661293       0.03672425       0.15765463
Ni      11.58813527       6.72060196       0.06521619        4       1.00000000      -0.07890108      -0.06806837       0.11915178
Ni       1.32506341       0.75107976       2.17282640        3       1.00000000      -0.01853387       0.03485306      -0.06088546
Ni       3.81796601       0.73434298       2.22061400        3       1.00000000      -0.02622870      -0.04512079       0.06114163
Pt       6.36698188       0.76605420       2.30862343        3       0.00000000      -0.01824184       0.07398622      -0.02995826
Pt       8.99890318       0.80849822       2.20147290        3       0.00000000      -0.04077799       0.05239268      -0.06899978
Ni       2.56879069       2.98353005       2.20600419        3       1.00000000      -0.06106338       0.02178247      -0.05472647
Ni       5.10936020       3.00263287       2.21372546        3       1.00000000      -0.05122814      -0.04936689      -0.01250907
Ni       7.74005282       3.00789008       2.20997131        3       1.00000000       0.06414021       0.04217313      -0.01252762
Pt      10.29508464       3.02755022       2.13959669        3       0.00000000      -0.00921121       0.02704696       0.01387573
Ni       3.84974567       5.21143626       2.14904131        3       1.00000000       0.00454485      -0.00497898      -0.06094647
Pt       6.47609843       5.20497597       2.18587724        3       0.00000000       0.18451621       0.04214210      -0.17582789
Ni       9.01709697       5.25213020       2.21025947        3       1.00000000       0.05757946       0.00156108       0.14392175
Pt      11.63341698       5.26359246       2.13577682        3       0.00000000       0.02707991       0.04572101       0.07459093
Pt       5.12575720       7.46802163       2.13106326        3       0.00000000      -0.04173009      -0.01554183      -0.20992408
Ni       7.74682979       7.50038657       2.16647095        3       1.00000000      -0.06059818      -0.02004678       0.03267693
Pt      10.23621055       7.48394182       2.18581197        3       0.00000000      -0.01865011      -0.02009136       0.05630958
Ni      12.86364441       7.46594215       2.15285950        3       1.00000000      -0.09126876       0.01786110       0.02728398
Ni      -0.05028770       1.50816850       4.42881244        2       1.00000000      -0.02351572       0.02374146      -0.00927555
Pt       2.56723252       1.45844440       4.28523054        2       0.00000000      -0.00381516      -0.00192430       0.09323303
Ni       5.14530779       1.43286602       4.38047509        2       1.00000000      -0.06249677      -0.02766364       0.11589570
Ni       7.73781956       1.50129298       4.37372119        2       1.00000000       0.08351214       0.10097306       0.02155563
Pt       1.20119937       3.76195408       4.47000613        2       0.00000000       0.02400301       0.04337674       0.07956224
Pt       3.84148625       3.74037664       4.28735635        2       0.00000000      -0.00271117      -0.00929990       0.04971724
Pt       6.52014900       3.69027369       4.32365425        2       0.00000000      -0.05863898      -0.11309755       0.04949012
Ni       9.00488312       3.74881163       4.38223841        2       1.00000000       0.02408741       0.03296777      -0.09594646
Ni       2.53460806       5.98300254       4.36954941        2       1.00000000      -0.12238336       0.03990625      -0.09195446
Pt       5.12625865       5.98381755       4.37431718        2       0.00000000      -0.02498212      -0.10022292       0.00790434
Ni       7.78691899       5.95954748       4.33988765        2       1.00000000       0.15052019      -0.02411722      -0.18310701
Ni      10.26568622       6.00165934       4.33187709        2       1.00000000      -0.03233222       0.03437977      -0.07208057
Pt       3.75131946       8.22361383       4.37699549        2       0.00000000      -0.04735479      -0.02515794      -0.00194360
Pt       6.48997737       8.19495215       4.30211359        2       0.00000000       0.04130959       0.08296290       0.02345159
Ni       9.06023784       8.19960789       4.33281622        2       1.00000000      -0.02733529      -0.01718638       0.04802309
Ni      11.52926917       8.22841472       4.35289215        2       1.00000000      -0.15724824      -0.06135249       0.03037899
Pt      -0.08080235       0.02918440       6.62154446        1       0.00000000      -0.07651498       0.11229608       0.10493250
Pt       2.56260988      -0.02602828       6.63062234        1       0.00000000       0.01958496       0.03772878       0.18769330
Ni       5.14608715      -0.02386259       6.52624130        1       1.00000000      -0.01156363      -0.05509149      -0.15221234
Ni       7.66847314      -0.00344703       6.45512104        1       1.00000000      -0.08027082      -0.01465309      -0.26531357
Ni       1.22480812       2.25977561       6.56462185        1       1.00000000      -0.02606881       0.03401427      -0.06690306
Pt       3.82143470       2.24906074       6.52198263        1       0.00000000      -0.04797957       0.05337828      -0.20114474
Pt       6.49428921       2.17474368       6.47035570        1       0.00000000       0.10936391       0.00344122      -0.18484893
Ni       9.01778613       2.28804489       6.49924859        1       1.00000000       0.09315293       0.20181196      -0.23563662
Ni       2.53121897       4.47896804       6.56144899        1       1.00000000       0.01365967       0.04403435      -0.05527950
Pt       5.13565767       4.54142809       6.61922222        1       0.00000000       0.09389368       0.11608279       0.17626350
Ni       7.75112002       4.46944824       6.42821581        1       1.00000000       0.07561054      -0.07309947      -0.31472787
Ni      10.26115217       4.45060867       6.52211555        1       1.00000000      -0.06246559      -0.03616737      -0.02528948
Ni       3.84169988       6.71692560       6.53979341        1       1.00000000       0.04013493       0.07020598      -0.09288814
Ni       6.42918608       6.71549457       6.43915908        1       1.00000000       0.06229369       0.04842516      -0.37300773
Pt       8.99676087       6.65040973       6.48741130        1       0.00000000       0.02018871      -0.07502873       0.06665805
Pt      11.61976131       6.72946233       6.48590195        1       0.00000000       0.03975228      -0.03074783       0.06801522
