64
Lattice="10.390485698817455 0.0003958425211102207 0.042994808855630756 5.195585659087961 8.987813637544717 0.04417921690949757 0.0 0.0 21.58668272601323" Properties=species:S:1:pos:R:3:tags:I:1:initial_magmoms:R:1:forces:R:3 unique_id=9f18ec3fb34843ba83ac9e5a29cce39a stress="0.005931787340563197 0.00012903681347804089 0.000590712323227368 0.00012903681347804089 0.006200973443237851 7.386126220314657e-05 0.000590712323227368 7.386126220314657e-05 -0.0013013046142101876" energy=-380.74931666390495 pbc="T T T"
Ni      -0.03322408       0.00338600       0.07407400        1       1.00000000      -0.13694322       0.03672183       0.14659711
Ni       2.61929643      -0.01375353       0.00000000        0       1.00000000       0.07695287       0.02509780       0.44298451
Ni       5.20384448      -0.01893807       0.05128297        1       1.00000000       0.05886461       0.06827702      -0.28960875
Ni       7.81734847      -0.03453559       0.02538775        0       1.00000000       0.05839248      -0.13177085       0.54548674
Pt       1.26995401       2.21914092       0.04340818        0       0.00000000       0.07047482      -0.12019589      -0.51346528
Pt       3.88699202       2.18767553       0.02213431        0       0.00000000       0.00954862       0.01744992       0.01801085
Pt       6.55384114       2.14651906       0.03022063        0       0.00000000       0.05208245      -0.06781707       0.02515602
Ni       9.09767618       2.21402669       0.07838681        1       1.00000000       0.00885123      -0.16064749       0.08279375
Ni       2.58472077       4.52257106       0.04192651        0       1.00000000       0.02372003      -0.05728697      -0.19898029
Pt       5.17632719       4.50924503       0.06226971        1       0.00000000       0.22024444      -0.03623542      -0.70582873
Pt       7.86279160       4.48631054       0.05575114        1       0.00000000      -0.07288040      -0.03120653      -0.55968074
Ni      10.41271272       4.52580940       0.00171880        0       1.00000000       0.04899405       0.02363426       0.23195831
Ni       3.86019199       6.78820682       0.09534826        1       1.00000000      -0.03718709       0.13262406       0.08714398
Pt       6.50948705       6.83862114       0.13315280        1       0.00000000      -0.04364089      -0.07505355      -0.39554047
Ni       9.12355588       6.77091403       0.01016738        0       1.00000000      -0.00112593       0.02051296       0.30197939
Ni      11.70544664       6.76192987       0.01174543        0       1.00000000       0.15046561       0.12228941       0.31923066
Ni       1.32453562       0.72678285       2.12492782        2       1.00000000       0.05698535      -0.00960498       0.02120041
Ni       3.86804513       0.77157347       2.14072409        2       1.00000000      -0.16747574       0.07031252       0.14824642
Ni       6.54266634       0.76428361       2.15562127        3       1.00000000       0.16162723       0.02507599       0.18308131
Ni       9.07534972       0.73181537       2.13225760        2       1.00000000      -0.13056063      -0.08732471      -0.05930789
Ni       2.63810747       2.95879574       2.16447467        3       1.00000000       0.12444238      -0.14454925       0.28144164
Ni       5.20636289       2.97481359       2.17294383        3       1.00000000      -0.02151338      -0.02656549       0.14922631
Ni       7.78336874       2.94641995       2.17729615        3       1.00000000      -0.06861699      -0.19882570       0.10820141
Pt      10.33130458       2.91370174       2.21869069        3       0.00000000      -0.14701616      -0.05875476       0.01433101
Pt       3.90391906       5.26417309       2.18667994        3       0.00000000      -0.01211104      -0.02121082       0.05212009
Ni       6.50449270       5.25510105       2.17947892        3       1.00000000      -0.01421803       0.05449899       0.18601487
Pt       9.04574543       5.27153485       2.23815421        3       0.00000000      -0.09826389       0.00986499       0.08597178
Pt      11.71233378       5.26397136       2.12041477        2       0.00000000      -0.14506892      -0.05391545       0.02321670
Ni       5.19009611       7.54439298       2.14313841        2       1.00000000      -0.08574222       0.14452003       0.08243708
Ni       7.79005645       7.53910228       2.17855962        3       1.00000000       0.03146980       0.18756904       0.10143439
Pt      10.39922419       7.57410673       2.09410308        2       0.00000000       0.01586539       0.10594577       0.04403466
Ni      13.02013419       7.54289402       2.15802946        3       1.00000000       0.01127796       0.16938757      -0.03012203
Ni      -0.00357146       1.52287785       4.29830973        5       1.00000000      -0.07758607       0.01766674      -0.19292017
Ni       2.62470760       1.52453384       4.29340060        5       1.00000000       0.02815008       0.05689317      -0.35237148
Pt       5.17895250       1.55399867       4.28593381        5       0.00000000       0.01579470       0.08144896      -0.25179081
Ni       7.82873764       1.52748430       4.32368880        5       1.00000000       0.03209257       0.01049480      -0.30687794
Pt       1.34772722       3.71608281       4.27346485        5       0.00000000       0.05246296      -0.05988120      -0.06277711
Ni       3.88898569       3.73364438       4.31490260        5       1.00000000      -0.02626112      -0.02801847      -0.29121437
Pt       6.58333847       3.72697384       4.23520597        4       0.00000000       0.09221913       0.00830792      -0.23557498
Ni       9.11701113       3.71500979       4.34529229        5       1.00000000       0.09133700      -0.18467830      -0.20611882
Ni       2.61310649       5.99412482       4.33817868        5       1.00000000       0.02587834      -0.00102284      -0.15575724
Pt       5.21314418       5.99776395       4.29258672        5       0.00000000       0.03159031       0.04825871      -0.01533659
Ni       7.81114542       5.99978814       4.33370089        5       1.00000000      -0.08697510       0.08527569      -0.23754528
Pt      10.38664256       5.96746510       4.46475368        7       0.00000000       0.01061429      -0.02699639       0.11208544
Pt       3.90597384       8.31794079       4.25362954        5       0.00000000      -0.05154566       0.11796345      -0.14189601
Pt       6.51558548       8.33129042       4.25144346        5       0.00000000      -0.03344452       0.24828582      -0.11852296
Pt       9.07024174       8.25974232       4.36300328        6       0.00000000      -0.08067645      -0.01409935      -0.12786070
Pt      11.74279928       8.26051356       4.37308750        6       0.00000000       0.02395124       0.02861523      -0.13930995
Pt       0.01445373       0.01759158       6.54210303        9       0.00000000       0.01860116       0.09822444       0.13604961
Ni       2.65339260       0.01684768       6.51647715        9       1.00000000       0.05401201       0.02961788      -0.15936310
Pt       5.21666946       0.00464806       6.58668273       10       0.00000000       0.00276182       0.08405959       0.14496263
Ni       7.78424358       0.02406814       6.54222443        9       1.00000000      -0.11858260       0.04569296      -0.21276519
Pt       1.36922524       2.22039957       6.43874166        8       0.00000000      -0.03006544      -0.14835619       0.52858791
Ni       3.91813593       2.23495769       6.44354768        8       1.00000000      -0.08115902      -0.05809035      -0.00015354
Ni       6.51692484       2.22785686       6.46094076        9       1.00000000       0.04157170      -0.09346867      -0.06631191
Pt       9.06909738       2.24557051       6.51039564        9       0.00000000       0.04202208      -0.01870938      -0.08514106
Pt       2.56474094       4.52572826       6.53058997        9       0.00000000       0.12166113      -0.02962342       0.11632857
Pt       5.21052592       4.41567996       6.46499351        9       0.00000000      -0.02906094       0.01994501       0.62285392
Pt       7.89241980       4.52974112       6.44943202        8       0.00000000       0.00674240       0.07182928       0.51251764
Ni      10.41490138       4.53200655       6.56207912       10       1.00000000      -0.02740047      -0.15321866      -0.09715669
Pt       3.82833070       6.79417878       6.57308115       10       0.00000000       0.03622224      -0.14361801       0.08907197
Pt       6.59717372       6.78541726       6.49532843        9       0.00000000      -0.02657252      -0.12427046       0.44901818
Ni       9.15013649       6.75665979       6.56882431       10       1.00000000       0.00593993       0.04728778      -0.05121803
Ni      11.67897359       6.75033493       6.57836694       10       1.00000000      -0.06218995       0.05136702      -0.13325716
