64
Lattice="10.314265691271537 0.002346904414377573 0.002055169104252068 5.159165324478874 8.85347972626959 -0.03379037358281326 0.0 0.0 21.57716976920464" Properties=species:S:1:pos:R:3:tags:I:1:initial_magmoms:R:1:forces:R:3 unique_id=c4e8f4ac149449a4a1d11b1e4000a566 energy=-375.0461334239127 stress="0.0056325532285321405 0.00016431712601158076 2.2087734307316176e-05 0.00016431712601158076 0.004869127960501497 -3.83472586718962e-05 2.2087734307316176e-05 -3.83472586718962e-05 -0.00213281918466921" pbc="T T T"
Ni       0.01326259      -0.00046302       0.15748887        2       1.00000000       0.11899261       0.06844042      -0.14375958
Ni       2.57101645       0.00372536       0.17717416        2       1.00000000      -0.03187728       0.03631132       0.01373144
Ni       5.15471904      -0.01961849       0.14714418        1       1.00000000      -0.05097128       0.11151906      -0.48891865
Ni       7.72759140      -0.05112419       0.16715311        2       1.00000000      -0.04453706      -0.03558535      -0.23446552
Ni       1.28736535       2.22034849       0.07912821        1       1.00000000      -0.02347153       0.01388669       0.38657909
Pt       3.78311495       2.17880768       0.15959224        2       0.00000000       0.04832937       0.04475441      -0.46177712
Pt       6.46490555       2.16552301       0.07535312        1       0.00000000       0.02283919      -0.11403126      -0.16868923
Pt       9.09634727       2.26274363       0.09382016        1       0.00000000       0.04532088       0.05160963      -0.53486213
Ni       2.53317438       4.44768344       0.01671147        0       1.00000000      -0.03354489      -0.01794914       0.18520600
Pt       5.14718348       4.45566164       0.00000000        0       0.00000000       0.01846408      -0.08257759      -0.29140172
Ni       7.75663942       4.44912310       0.03799975        0       1.00000000      -0.00166598       0.03007542       0.07786452
Ni      10.34041718       4.45404675       0.02207921        0       1.00000000       0.06761335       0.06757210       0.20780969
Ni       3.82385246       6.67568959       0.03884057        0       1.00000000      -0.00840214       0.07612822       0.26944666
Pt       6.47691010       6.70258608       0.05951800        1       0.00000000       0.00502162       0.06865509      -0.02956983
Ni       9.03699014       6.64081458       0.09424901        1       1.00000000      -0.06237652       0.00582422      -0.31846941
Ni      11.62403835       6.64107074       0.02075548        0       1.00000000       0.06509978      -0.00076455       0.23390975
Ni       1.31931063       0.74118202       2.20220137        4       1.00000000       0.03308651       0.07298934       0.19949964
Ni       3.81705969       0.73781888       2.19786377        4       1.00000000      -0.20318524       0.02401861       0.16492184
Ni       6.45426198       0.74774850       2.18991948        4       1.00000000       0.04045275       0.06969387       0.18677109
Pt       9.04439808       0.73919568       2.21049588        4       0.00000000       0.05807707       0.15479608       0.02075061
Ni       2.54591571       2.89428171       2.23824482        4       1.00000000      -0.06982309      -0.14526577       0.30947997
Ni       5.16581447       2.93719137       2.19925389        4       1.00000000       0.00916720       0.07379874       0.11862844
Ni       7.71849194       2.93882496       2.21363126        4       1.00000000      -0.04054769      -0.07755704       0.13349165
Ni      10.35838168       2.91754442       2.23179671        4       1.00000000       0.10395332      -0.15172638       0.27784531
Pt       3.87745440       5.15644042       2.19649273        4       0.00000000       0.01051332      -0.06402248      -0.05476165
Ni       6.45796545       5.16129802       2.18090323        4       1.00000000      -0.05882016      -0.02296744       0.08387600
Pt       8.96257026       5.11358835       2.18937582        4       0.00000000      -0.05745976      -0.12260062       0.00980904
Pt      11.60367440       5.10330670       2.18494120        4       0.00000000      -0.03982614      -0.12292961       0.11352426
Ni       5.19437858       7.38266600       2.15896047        4       1.00000000       0.09138403       0.00953492       0.13911440
Ni       7.68991547       7.40278626       2.16810293        4       1.00000000      -0.19011354       0.05707097       0.20056687
Pt      10.31359652       7.40609881       2.08853955        3       0.00000000       0.00499461      -0.04827563       0.01493065
Ni      12.90710894       7.37313259       2.12178298        3       1.00000000       0.05334665      -0.02210396       0.00484921
Ni       0.05942908       1.50667169       4.32154474        5       1.00000000       0.17687239       0.07534811      -0.19637942
Ni       2.50810969       1.50310932       4.30354425        5       1.00000000      -0.12888040       0.05445422      -0.19657197
Pt       5.13705863       1.49420701       4.25146443        5       0.00000000      -0.10473544      -0.04672655      -0.11120182
Ni       7.75657442       1.48321322       4.32786672        5       1.00000000       0.04683395      -0.08646327      -0.25955181
Ni       1.28915325       3.65681546       4.36640976        6       1.00000000       0.00117414      -0.07909038      -0.04431552
Ni       3.80353991       3.70049263       4.32006554        5       1.00000000      -0.16565478      -0.03963849      -0.20276675
Pt       6.53274457       3.68431665       4.32650363        5       0.00000000       0.12007700      -0.06218098      -0.16804118
Ni       9.07526252       3.69680067       4.31624354        5       1.00000000       0.20840499      -0.00406891      -0.17950804
Ni       2.56163290       5.82358902       4.38222167        6       1.00000000      -0.03315003      -0.16037047       0.01293355
Pt       5.18565348       5.88692448       4.36837998        6       0.00000000       0.08869641       0.00036642      -0.07927104
Ni       7.74527462       5.87031928       4.33192057        5       1.00000000       0.04323659      -0.01033562      -0.18151128
Ni      10.33105794       5.81121642       4.36407201        6       1.00000000       0.04459092      -0.14950054      -0.04021512
Pt       3.90879239       8.10434405       4.28136521        5       0.00000000      -0.00284604       0.08159966      -0.02928131
Ni       6.44910245       8.12145877       4.27549786        5       1.00000000      -0.04549631       0.16130088      -0.31271243
Pt       8.93728952       8.07120772       4.25007307        5       0.00000000      -0.06272127       0.03113383      -0.04157417
Pt      11.62050079       8.03179006       4.28214758        5       0.00000000      -0.05542178      -0.11216540       0.01051002
Pt       0.01736641      -0.05189353       6.54020670        8       0.00000000       0.04892066       0.08764874       0.26941759
Pt       2.55470240      -0.01561424       6.53206303        8       0.00000000       0.03711656       0.08096984       0.21363013
Pt       5.16709776      -0.03170642       6.57716977        9       0.00000000      -0.09596192       0.09527847       0.47477768
Pt       7.74304275      -0.06067001       6.57603302        9       0.00000000      -0.00265470       0.17524619       0.37502692
Ni       1.28494707       2.25066357       6.46504546        8       1.00000000       0.00909253       0.10039042      -0.29772861
Pt       3.83097382       2.31246479       6.43351657        7       0.00000000      -0.08854855       0.11457395       0.44492338
Ni       6.45494146       2.22856350       6.43095319        7       1.00000000      -0.01251158      -0.02775804       0.16961744
Pt       9.04558530       2.28922630       6.37748658        7       0.00000000      -0.00913704      -0.08225606       0.48970441
Ni       2.54560274       4.44358467       6.45758313        8       1.00000000      -0.01486597       0.00264662      -0.36152973
Ni       5.16753267       4.42924522       6.40879360        7       1.00000000      -0.04351131      -0.04670818       0.25869222
Ni       7.70848657       4.40372741       6.48174259        8       1.00000000      -0.06852239      -0.02186553      -0.14309985
Ni      10.37701726       4.40073019       6.46076916        8       1.00000000       0.14648154      -0.03841173      -0.33136286
Ni       3.85307356       6.54939630       6.48662356        8       1.00000000      -0.06549639      -0.09297670      -0.19725865
Ni       6.44625079       6.56986253       6.41400041        7       1.00000000       0.10907069       0.04539629       0.18377769
Pt       9.03687945       6.48389518       6.49401496        8       0.00000000       0.04454113      -0.04532719       0.07667694
Ni      11.63677606       6.53824258       6.47939112        8       1.00000000      -0.00502764      -0.00883189      -0.23173771
