64
Lattice="10.18755390359047 0.01934383404512043 -0.041296500414201555 5.110529203484959 8.736601534650152 -0.09719936128759432 -0.033718451392476374 -0.07217307966984246 8.676943048100188" Properties=species:S:1:pos:R:3:tags:I:1:initial_magmoms:R:1:forces:R:3 unique_id=1a6bc9a7cb724ca0a8b496f1bc8343ed stress="-0.007709755548485547 -3.377776402556781e-05 1.416543788624974e-05 -3.377776402556781e-05 -0.007639885704000322 1.942099656667471e-05 1.416543788624974e-05 1.942099656667471e-05 -0.006551041894077313" energy=-390.5988200612054 pbc="T T T"
Ni       0.03829600      -0.06294525       0.20310741        4       1.00000000       0.04579052      -0.08041466       0.13959714
Ni       2.47844116      -0.03895381       0.21227458        4       1.00000000      -0.07827383      -0.06191824       0.15800179
Pt       5.07832223      -0.06113725       0.15146522        4       0.00000000      -0.05628437       0.01638915      -0.17535683
Ni       7.66174547      -0.05625486       0.16171460        4       1.00000000       0.00337534      -0.06734382       0.13795584
Ni       1.27114913       2.19409493       0.10796247        4       1.00000000      -0.02115680       0.02326495       0.14427934
Pt       3.72693817       2.24738873       0.16728215        4       0.00000000      -0.02486311       0.00170135      -0.08048112
Pt       6.38058324       2.26523354       0.05953632        4       0.00000000      -0.04233421       0.02825953      -0.10213363
Pt       8.99245722       2.24938813       0.07777141        4       0.00000000       0.02560953       0.06914416      -0.17517402
Ni       2.52142828       4.41517544       0.06312871        4       1.00000000      -0.00959286       0.02338083       0.06036665
Ni       5.08758220       4.45506728       0.05706230        4       1.00000000      -0.06941953       0.08505023       0.06252002
Ni       7.64217983       4.44857889       0.05541273        4       1.00000000      -0.02128418       0.05215199       0.11598468
Ni      10.23151851       4.42451680       0.03929043        4       1.00000000       0.03887023       0.08257861       0.11205875
Ni       3.83472187       6.52663475       0.04406942        4       1.00000000       0.00893413      -0.02037822       0.03626016
Ni       6.36041044       6.53911478       0.03603020        4       1.00000000      -0.06130116      -0.04069431      -0.04564701
Ni       8.87419770       6.49527019       0.09410058        4       1.00000000      -0.11520102      -0.06180626       0.11272772
Ni      11.51566596       6.49902988      -0.01733825        4       1.00000000       0.06458479      -0.05083940      -0.06789314
Ni       1.29343318       0.72240008       2.19609241        3       1.00000000      -0.01204830       0.02476658       0.13423027
Ni       3.73665607       0.72618009       2.17057802        3       1.00000000      -0.10240189      -0.04909781       0.02064210
Ni       6.39086916       0.73028601       2.17177512        3       1.00000000       0.06306600      -0.02863532      -0.00083416
Pt       8.93861431       0.72929777       2.17066989        3       0.00000000       0.05389063      -0.00775564       0.12164908
Ni       2.49849708       2.92860946       2.22685030        3       1.00000000       0.00944905       0.00642935       0.09921701
Ni       5.07258894       2.97687673       2.15141606        3       1.00000000      -0.03290599       0.14907538      -0.03461937
Ni       7.65373996       2.96423501       2.16870882        3       1.00000000       0.03619007       0.01125376      -0.01482294
Ni      10.24083482       2.95890035       2.17776041        3       1.00000000       0.05391684       0.02533199       0.05667434
Ni       3.81614048       5.07875272       2.12593097        3       1.00000000      -0.00412240       0.00141220       0.03244922
Ni       6.36465703       5.11166420       2.08502166        3       1.00000000      -0.01581308       0.00103674      -0.00522948
Ni       8.89273694       5.04036478       2.11435383        3       1.00000000      -0.00190576      -0.05540253       0.07737342
Ni      11.50338327       5.03213100       2.10612150        3       1.00000000       0.08054042      -0.09572145       0.09035994
Ni       5.13332366       7.20070423       2.07259638        3       1.00000000      -0.04224087      -0.08848086       0.04049518
Ni       7.57455648       7.23316882       2.05462929        3       1.00000000      -0.06191557      -0.10717048       0.04185110
Pt      10.23862032       7.15373818       2.10801869        3       0.00000000       0.04415486      -0.16017721       0.08593867
Ni      12.76131712       7.20126626       2.03685333        3       1.00000000       0.07537684      -0.13619769       0.01791191
Ni       0.04864986       1.46014701       4.26752926        2       1.00000000       0.06807201      -0.00688298      -0.02579591
Ni       2.46390964       1.47255327       4.22751147        2       1.00000000      -0.00257933       0.02934701      -0.02069627
Pt       5.08124135       1.45514917       4.16032466        2       0.00000000      -0.05014050       0.02298506      -0.17015509
Ni       7.63892596       1.44422302       4.23070400        2       1.00000000      -0.01568424      -0.03267204      -0.08588892
Ni       1.26904232       3.61299526       4.27051869        2       1.00000000       0.03965533      -0.00949767      -0.02070443
Ni       3.75863074       3.69121062       4.20455497        2       1.00000000       0.00561369       0.08540381      -0.12578166
Pt       6.38864807       3.69088722       4.22957964        2       0.00000000       0.02425456      -0.00702642      -0.07659303
Ni       8.95902500       3.67026895       4.17353149        2       1.00000000       0.04252632       0.06707387      -0.12111813
Ni       2.51848254       5.72919017       4.24185367        2       1.00000000      -0.04585950      -0.03879687      -0.14754852
Ni       5.08385824       5.77974287       4.22962091        2       1.00000000       0.00646858      -0.03670373      -0.13963420
Ni       7.61738813       5.79090937       4.18378994        2       1.00000000      -0.00027312       0.01192130      -0.12509977
Ni      10.22723772       5.72377947       4.22059962        2       1.00000000       0.02260767      -0.03768940      -0.02341893
Pt       3.82331417       7.88027689       4.17922493        2       0.00000000      -0.02629999      -0.00374685       0.04300612
Ni       6.34040924       7.94782595       4.14675632        2       1.00000000      -0.07317660      -0.01728904      -0.08178317
Pt       8.82599279       7.93321973       4.12360140        2       0.00000000      -0.07062883      -0.02563850      -0.01742195
Ni      11.48687397       7.91967972       4.15874083        2       1.00000000       0.01674080      -0.06995314      -0.07750322
Pt      -0.00736864      -0.09281631       6.47679158        1       0.00000000      -0.05566014       0.02726666       0.14392982
Pt       2.49829815      -0.03236450       6.46460672        1       0.00000000       0.09621329       0.07036491       0.17486879
Pt       5.09675730      -0.05266240       6.33477558        1       0.00000000      -0.04994658       0.02511459       0.06679942
Pt       7.61605589      -0.08060639       6.43399858        1       0.00000000       0.05758934       0.04301020       0.16641443
Ni       1.25140751       2.20861908       6.36356353        1       1.00000000       0.03538882       0.05619885      -0.06371428
Pt       3.77459785       2.29298689       6.31143132        1       0.00000000      -0.00210305       0.11124508       0.03878555
Ni       6.35472526       2.20372089       6.29660248        1       1.00000000      -0.00136522       0.02831775      -0.11938912
Pt       8.91222559       2.26254014       6.23233139        1       0.00000000       0.01862474       0.05667485      -0.04430731
Ni       2.50234717       4.38687079       6.34322994        1       1.00000000       0.00900950       0.09074978      -0.07774877
Ni       5.08764658       4.39474570       6.35935047        1       1.00000000       0.00170023       0.09601674      -0.03074556
Ni       7.56888586       4.33741083       6.36742640        1       1.00000000      -0.10765916       0.01458603       0.03526018
Ni      10.26038958       4.33294507       6.31582458        1       1.00000000       0.16181082       0.00925899      -0.05443285
Ni       3.81040686       6.41074176       6.35224384        1       1.00000000       0.00009866      -0.04975646      -0.03198941
Ni       6.32826418       6.44133690       6.32331252        1       1.00000000       0.02222632       0.01553043      -0.15388443
Pt       8.90529700       6.36896206       6.36809154        1       0.00000000       0.02434404      -0.04579045       0.10963506
Ni      11.48969647       6.44367401       6.29166580        1       1.00000000       0.01774717       0.03118474      -0.13969707
