64
Lattice="10.3703937556366 -0.016484891626596884 0.04788657609702973 5.170920542891034 8.864808111119284 0.002010211444990277 0.03909922565556015 -0.02067870293151515 8.832684464297241" Properties=species:S:1:pos:R:3:tags:I:1:initial_magmoms:R:1:forces:R:3 unique_id=9a8e3d40a77945319e266a1a498ae9be stress="0.00032042326784269964 3.3176064921104553e-06 -1.8420091988656658e-05 3.3176064921104553e-06 0.000326433415296451 1.5128725797656474e-05 -1.8420091988656658e-05 1.5128725797656474e-05 0.0003043330237787398" energy=-399.5699427528006 pbc="T T T"
Ni       0.01327064      -0.00432210       0.18336143        4       1.00000000       0.04858472       0.05119260       0.35299689
Ni       2.59695364       0.00479382       0.21534761        4       1.00000000       0.02810952       0.04581070       0.41149969
Ni       5.18367301      -0.02103819       0.17359294        4       1.00000000      -0.05412927       0.10874785       0.19795978
Ni       7.77735669      -0.06763065       0.21938383        4       1.00000000      -0.00340694      -0.10731966       0.41082041
Ni       1.30545759       2.22062856       0.17575753        4       1.00000000       0.03234973       0.01519525       0.30412719
Pt       3.82217729       2.21796915       0.12446562        4       0.00000000      -0.03226737       0.06335082      -0.12039532
Pt       6.46077700       2.15784619       0.13397924        4       0.00000000       0.03701297      -0.09411210      -0.06932844
Pt       9.15696113       2.20608606       0.15809458        4       0.00000000       0.15376541      -0.01079789       0.09933192
Ni       2.57716491       4.45501844       0.05434834        4       1.00000000       0.00275334       0.03608255      -0.06872771
Ni       5.16442216       4.44036976       0.16568198        4       1.00000000       0.10775028      -0.05571168       0.19044768
Pt       7.78178444       4.46248260       0.06433043        4       0.00000000       0.05873637       0.07478217      -0.18841768
Ni      10.41484741       4.44759115       0.09892355        4       1.00000000       0.12853968       0.07756882       0.09497575
Ni       3.84674665       6.66416480       0.09032116        4       1.00000000      -0.07225018       0.07560303       0.13768609
Pt       6.44481137       6.70670044       0.20912594        4       0.00000000      -0.04048526       0.04419078       0.17657118
Ni       9.09346116       6.66858267       0.09615444        4       1.00000000       0.00829159       0.04558087       0.06046466
Ni      11.68028947       6.63804507       0.09569155        4       1.00000000       0.13852575      -0.01421115       0.00621797
Ni       1.33358053       0.76365948       2.20062918        3       1.00000000       0.05825078       0.15828873       0.01141933
Ni       3.87036593       0.77127543       2.24492028        3       1.00000000      -0.03838115       0.15707682       0.12246695
Ni       6.48383679       0.75817347       2.26291203        3       1.00000000      -0.04429381       0.13027422       0.14300141
Pt       9.09042075       0.72183479       2.28860921        3       0.00000000       0.01590998       0.21276845      -0.01891776
Ni       2.58654979       2.89724256       2.26692799        3       1.00000000      -0.00820627      -0.09012082       0.19855711
Ni       5.18277265       2.91191554       2.26976686        3       1.00000000      -0.11096339      -0.13922051       0.07885156
Ni       7.75904033       2.92007796       2.28350541        3       1.00000000       0.02779435      -0.07737412      -0.10018920
Ni      10.41823566       2.90758050       2.30065565        3       1.00000000       0.09811678      -0.07624543       0.15433112
Pt       3.91152338       5.14048749       2.18115265        3       0.00000000      -0.06945612      -0.10968792      -0.00565398
Ni       6.47962333       5.14610938       2.24881583        3       1.00000000       0.04056083      -0.04223882      -0.03443856
Pt       9.03091842       5.12314740       2.28843697        3       0.00000000      -0.10928174      -0.11138264      -0.09480074
Pt      11.69139807       5.09623108       2.22918093        3       0.00000000       0.01070264      -0.07639082       0.02923175
Ni       5.18026479       7.39429882       2.21935881        3       1.00000000      -0.08371422      -0.01817634       0.02666456
Ni       7.76716517       7.40847429       2.22640979        3       1.00000000       0.05084235       0.02418850      -0.01419855
Pt      10.37077374       7.42625301       2.15277121        3       0.00000000       0.04080035      -0.05149359      -0.08789892
Ni      12.97107063       7.36490187       2.22020626        3       1.00000000       0.02151765      -0.11449268      -0.01769226
Ni       0.04090797       1.53666490       4.34874266        2       1.00000000       0.12323389       0.18069433      -0.11087010
Ni       2.62490773       1.53691004       4.35561309        2       1.00000000       0.00658573       0.09872051      -0.18178955
Ni       5.17462046       1.50112239       4.38981370        2       1.00000000      -0.11956108       0.03227737      -0.17326270
Ni       7.79300560       1.47884772       4.39445013        2       1.00000000       0.02042556      -0.06600655      -0.11950515
Ni       1.33932062       3.65734185       4.36870835        2       1.00000000       0.10056768      -0.06945381      -0.22055093
Ni       3.85166944       3.63259879       4.39351456        2       1.00000000      -0.10444357      -0.08747953      -0.18383268
Pt       6.53093387       3.61164490       4.35912773        2       0.00000000      -0.05085191      -0.03447024      -0.07588673
Ni       9.09697323       3.65173242       4.39044589        2       1.00000000       0.05525087      -0.17006574      -0.26214960
Ni       2.59150175       5.84580484       4.43390228        2       1.00000000      -0.01940384      -0.14490523      -0.02618116
Pt       5.16823789       5.84460384       4.35862557        2       0.00000000       0.05069793      -0.09463458       0.08256003
Ni       7.80436849       5.86121425       4.40954813        2       1.00000000      -0.02602888       0.01996076      -0.10217226
Pt      10.39023437       5.79940540       4.52006878        2       0.00000000       0.04705250      -0.01613830       0.00933584
Pt       3.88259768       8.11530001       4.35687738        2       0.00000000      -0.06618906      -0.07021919       0.18634014
Pt       6.49840308       8.18249770       4.27743307        2       0.00000000      -0.00416180       0.11596743       0.04961918
Pt       9.06813182       8.14716722       4.35154476        2       0.00000000      -0.10280531       0.09268515       0.04378623
Pt      11.68090904       8.13296262       4.36306318        2       0.00000000       0.06118065       0.06141724       0.00317991
Pt       0.01379449      -0.02693960       6.60842688        1       0.00000000      -0.00168722       0.02455799       0.16648830
Pt       2.64345109       0.00398887       6.62895676        1       0.00000000      -0.01773825       0.04253144       0.19922746
Pt       5.21170108      -0.01533974       6.62466851        1       0.00000000      -0.05136011      -0.02538072       0.04110859
Pt       7.77614749      -0.06762400       6.66326206        1       0.00000000      -0.02895619      -0.09322523       0.22813221
Pt       1.36169506       2.31542101       6.52472117        1       0.00000000       0.00873473       0.17929538       0.08740315
Ni       3.91184568       2.21273816       6.47018621        1       1.00000000      -0.06553443      -0.06706361      -0.31896632
Ni       6.49574133       2.19685831       6.49899759        1       1.00000000      -0.02305354      -0.04400873      -0.25633573
Pt       9.05826607       2.27788580       6.46756908        1       0.00000000      -0.04893031       0.05508854      -0.30955053
Ni       2.59685821       4.46044144       6.53016809        1       1.00000000      -0.07375784       0.18487047      -0.27641034
Pt       5.13503657       4.33876433       6.59960182        1       0.00000000      -0.10263208      -0.06893955       0.07998119
Ni       7.82212126       4.41713011       6.47613721        1       1.00000000       0.04293709       0.03759398      -0.46013462
Ni      10.39429645       4.44160967       6.59872657        1       1.00000000      -0.02052165       0.06651038      -0.01878964
Ni       3.85506068       6.58807455       6.56443926        1       1.00000000      -0.09251690      -0.10611576      -0.11214508
Pt       6.54529197       6.56270016       6.52602517        1       0.00000000      -0.00101842      -0.05069998      -0.16325911
Ni       9.11720847       6.57507086       6.59026911        1       1.00000000       0.03246596      -0.03034659      -0.09548035
Ni      11.69067328       6.55715117       6.60353689        1       1.00000000       0.02994050      -0.08474361      -0.09685353
