64
Lattice="10.265077791086895 -0.004467586501710193 -0.02620694221491746 5.128669852139362 8.825225537937142 -0.0781996792767948 0.0 0.0 21.52743466751491" Properties=species:S:1:pos:R:3:tags:I:1:initial_magmoms:R:1:forces:R:3 unique_id=c636c4e0f31c49fb9660de79867f0129 stress="0.005417889796229932 -8.003273161953443e-05 -0.00013408047581428098 -8.003273161953443e-05 0.004417204413837113 -0.00012600609635010483 -0.00013408047581428098 -0.00012600609635010483 -0.002078007486738826" energy=-373.696047247531 pbc="T T T"
Ni       0.01603952      -0.07196025       0.17986372        2       1.00000000       0.08359385      -0.04179776      -0.15160724
Ni       2.55428902      -0.06628459       0.11234998        1       1.00000000       0.01724606      -0.04746717       0.31522913
Ni       5.12847172      -0.04797615       0.15689740        2       1.00000000      -0.03036559       0.02228611      -0.46424821
Ni       7.68550694      -0.07328783       0.15903485        2       1.00000000      -0.08663646      -0.06096649      -0.22801660
Pt       1.27690958       2.19353147       0.08656256        1       0.00000000      -0.02276281      -0.03723024       0.01703988
Pt       3.83351605       2.15952156       0.16951977        2       0.00000000       0.01572071       0.01002815      -0.58319328
Pt       6.41801851       2.16516138       0.07259869        1       0.00000000      -0.03832117      -0.03213293      -0.22413040
Pt       8.98213986       2.24500730       0.08810674        1       0.00000000       0.05849796       0.08418814      -0.68710602
Ni       2.55997077       4.45491304       0.10729541        1       1.00000000       0.06595463       0.02671713      -0.14495277
Pt       5.13088460       4.51258842       0.05658141        1       0.00000000      -0.05745552       0.01599959      -0.02735975
Ni       7.69708920       4.46117008       0.02314145        0       1.00000000      -0.05090345       0.09759386       0.10629132
Ni      10.26645638       4.45738408       0.00976072        0       1.00000000       0.02337485       0.06571925       0.15638789
Ni       3.82553953       6.65063238       0.05378960        1       1.00000000      -0.04131639       0.04841833       0.31672619
Ni       6.42657513       6.65646296       0.04747526        0       1.00000000       0.02895766       0.04278664       0.36456176
Ni       8.95196115       6.61637892       0.08019094        1       1.00000000      -0.11056693       0.04738333      -0.24064154
Ni      11.56313215       6.61207956       0.00000000        0       1.00000000       0.06956710       0.01198697       0.23574420
Ni       1.31004321       0.70191582       2.22667706        4       1.00000000       0.05447239       0.00716695       0.21229232
Ni       3.79046472       0.71307600       2.19611427        4       1.00000000      -0.23857883      -0.05912936       0.05660946
Ni       6.42312790       0.72665391       2.18621301        4       1.00000000       0.07943068       0.04917194       0.13827648
Pt       8.99113086       0.70963235       2.19435112        4       0.00000000       0.10882798       0.09965739      -0.07342624
Ni       2.56811967       2.90676331       2.25295064        5       1.00000000       0.03111546      -0.11520713       0.29006232
Ni       5.11826934       2.95390547       2.20515782        4       1.00000000      -0.06215509       0.14348650       0.17481784
Ni       7.66835806       2.92304308       2.20275567        4       1.00000000      -0.02829656      -0.05893902       0.10971311
Ni      10.28822044       2.91033367       2.23203332        4       1.00000000       0.12045454      -0.10261557       0.32628280
Ni       3.85384357       5.13938138       2.17127943        4       1.00000000       0.00890991      -0.02681227       0.14803922
Ni       6.39877401       5.15997229       2.14470532        3       1.00000000       0.01408531       0.05240498       0.04096681
Pt       8.91684710       5.10019068       2.15863792        4       0.00000000      -0.00080881      -0.06157501       0.05994104
Pt      11.59838716       5.09194030       2.16453361        4       0.00000000       0.00346288      -0.14015241       0.09466420
Ni       5.15510719       7.31202625       2.09986317        3       1.00000000       0.01679886      -0.07531758       0.01040313
Ni       7.62613835       7.35929410       2.10138080        3       1.00000000      -0.15414185       0.02633606       0.06276724
Pt      10.28437672       7.37833255       2.09503320        3       0.00000000       0.04868052      -0.04232003       0.15226562
Ni      12.84593106       7.31579485       2.08977769        3       1.00000000       0.11156925      -0.09233046       0.09202499
Ni       0.04325479       1.47469577       4.31081974        7       1.00000000       0.09401919       0.00793977      -0.23699999
Ni       2.48717631       1.46007601       4.29274133        7       1.00000000      -0.08266979       0.03509069      -0.17984047
Pt       5.13525488       1.43408586       4.21906598        6       0.00000000      -0.03380024      -0.05657552      -0.09020756
Ni       7.69625888       1.44281770       4.29415420        7       1.00000000       0.04675192      -0.06343639      -0.23770340
Ni       1.25799457       3.62648255       4.31463625        7       1.00000000       0.00626051      -0.05966867      -0.13084755
Ni       3.78756952       3.66083046       4.26254130        7       1.00000000      -0.12006876      -0.00255968      -0.38292024
Pt       6.48046163       3.65566658       4.29295428        7       0.00000000       0.08116118      -0.03485851      -0.05314152
Ni       9.02034413       3.66973993       4.27182564        7       1.00000000       0.17820195       0.01356875      -0.16926091
Ni       2.52314447       5.84621802       4.30255761        7       1.00000000      -0.03275034       0.00030196      -0.10403042
Pt       5.12492729       5.85357515       4.28189787        7       0.00000000       0.02590356      -0.01095397      -0.01251326
Ni       7.68567970       5.84025049       4.28819280        7       1.00000000      -0.01939023       0.00262207      -0.13715942
Ni      10.27975543       5.81191795       4.31462187        7       1.00000000       0.07422294      -0.01178716       0.00841874
Pt       3.81582806       8.05398436       4.24079328        6       0.00000000      -0.03803932       0.06822768       0.01475410
Ni       6.40879519       8.08228280       4.23990860        6       1.00000000      -0.15378724       0.09810256      -0.27381003
Pt       8.88532569       8.03251267       4.22781471        6       0.00000000      -0.07981593       0.05848405      -0.00348957
Ni      11.53580607       8.01310184       4.24301290        6       1.00000000      -0.04468966      -0.09548207      -0.11111193
Pt       0.08191255      -0.07162307       6.51498641       10       0.00000000      -0.00703668       0.16335606       0.10509919
Ni       2.54140374      -0.05516610       6.47822165       10       1.00000000       0.06256478      -0.01019083      -0.10078839
Pt       5.10716396      -0.06801479       6.52743467       10       0.00000000       0.03734358       0.02103058       0.37979701
Pt       7.68461951      -0.08393178       6.50407464       10       0.00000000       0.02445148       0.22264502       0.33255152
Ni       1.26477598       2.17658797       6.36011160        9       1.00000000       0.04022689       0.07946859      -0.00808719
Pt       3.80036081       2.19025071       6.38843823        9       0.00000000      -0.11520711       0.15926462       0.52502142
Ni       6.40669987       2.19667541       6.38764586        9       1.00000000       0.00712235      -0.06427213       0.20924170
Pt       8.98265425       2.24541851       6.32502216        8       0.00000000       0.01501172      -0.12090892       0.54798750
Pt       2.50566777       4.43470671       6.42163920        9       0.00000000       0.12067671      -0.14728950      -0.01431520
Ni       5.14269042       4.39309574       6.37683950        9       1.00000000      -0.07375590      -0.01974938       0.16412167
Ni       7.65514802       4.37421110       6.43380738        9       1.00000000      -0.03774193      -0.02933388      -0.07945588
Ni      10.25762845       4.37722175       6.39437037        9       1.00000000       0.01245830      -0.03529352      -0.20134944
Ni       3.84539832       6.55313882       6.44110818        9       1.00000000       0.10213204      -0.00888903      -0.13549817
Ni       6.40141578       6.54347212       6.42955222        9       1.00000000       0.00588940      -0.05602404      -0.20504092
Pt       8.92749491       6.48198701       6.44423004        9       0.00000000      -0.01446280      -0.10387320       0.10135040
Ni      11.52482336       6.55228734       6.39180654        9       1.00000000      -0.11959371       0.14370608      -0.17719671
