64
Lattice="10.328654933523419 0.004772237663028796 -0.004126020999742395 5.1684603458107885 8.890797468801841 -0.04781233526037578 0.0 0.0 21.579562013686413" Properties=species:S:1:pos:R:3:tags:I:1:initial_magmoms:R:1:forces:R:3 unique_id=2fab4221b597449696d40dc587a272ec energy=-375.86086407358954 stress="0.00563981313487212 0.0002271047079675377 5.7653657020184506e-05 0.0002271047079675377 0.0060200869283270515 -0.00022381692249813344 5.7653657020184506e-05 -0.00022381692249813344 -0.0012092155361876338" pbc="T T T"
Ni       0.00994579      -0.01171106       0.15180977        2       1.00000000       0.08521863       0.00166317      -0.10525452
Ni       2.55281384       0.00922078       0.16953211        2       1.00000000      -0.05900527       0.07100201      -0.04124208
Pt       5.15522680      -0.03979350       0.10919392        1       0.00000000      -0.04510427       0.21331367      -0.88416017
Ni       7.76741875      -0.05474215       0.14693577        1       1.00000000      -0.06288655      -0.10141875      -0.16561977
Ni       1.29743162       2.22763196       0.06330567        1       1.00000000       0.00399487       0.03412384       0.47436561
Pt       3.78951253       2.27495235       0.13894712        1       0.00000000       0.01616624       0.00167031      -0.25039964
Pt       6.45732236       2.23261916       0.07164612        1       0.00000000       0.02482275      -0.01407592      -0.04228410
Pt       9.13096788       2.22496191       0.07445305        1       0.00000000       0.02691551       0.10941449      -0.42957316
Ni       2.57621295       4.47698601       0.01510575        0       1.00000000       0.09052195       0.00943070       0.29993515
Ni       5.12710053       4.47542149       0.13532304        1       1.00000000      -0.08372150       0.09817930       0.01324470
Pt       7.79287798       4.50034810       0.04679115        0       0.00000000       0.00015777       0.02663374       0.00754287
Ni      10.37765687       4.47143065       0.01284151        0       1.00000000       0.08567566      -0.02007473       0.26630441
Ni       3.84035008       6.65898990       0.04359509        0       1.00000000      -0.01182609      -0.04111443       0.45555828
Pt       6.41945581       6.71662279       0.12853970        1       0.00000000      -0.08365716       0.02501487      -0.52259101
Ni       9.05490082       6.65687711       0.01037644        0       1.00000000      -0.06116612       0.02697573       0.13013312
Ni      11.65525789       6.63517536       0.00000000        0       1.00000000       0.07812057       0.05096040       0.26622353
Ni       1.31970384       0.76750161       2.15911944        4       1.00000000       0.05469371       0.21270137       0.03460437
Ni       3.83756118       0.77176046       2.21178911        4       1.00000000      -0.04667547       0.12246561       0.29742695
Ni       6.45352846       0.77486886       2.21316761        4       1.00000000      -0.05433363       0.19446217       0.26720863
Pt       9.04818675       0.73724479       2.20642926        4       0.00000000       0.02782725       0.15893696       0.03456319
Ni       2.57379521       2.93000996       2.23556680        4       1.00000000       0.02083927      -0.12791993       0.28108394
Ni       5.14508309       2.96624231       2.20810603        4       1.00000000      -0.09542804      -0.01720789       0.20614220
Ni       7.75431149       2.97680005       2.20660579        4       1.00000000       0.09409953       0.02192864       0.15925247
Ni      10.35714906       2.95555045       2.21237434        4       1.00000000       0.07616589      -0.06551756       0.21614356
Ni       3.88559720       5.15861970       2.12736635        3       1.00000000       0.00418166      -0.14453519      -0.04668148
Ni       6.45679091       5.16339012       2.16714584        4       1.00000000       0.07237840      -0.11110180       0.10164135
Ni       9.01343915       5.14867785       2.18182434        4       1.00000000      -0.07576082      -0.23687958       0.22556877
Pt      11.67777539       5.10611155       2.12355125        3       0.00000000       0.12329836      -0.18786732       0.07635535
Ni       5.14172277       7.38101107       2.13217842        3       1.00000000      -0.16300416      -0.08006046       0.03299635
Ni       7.74164997       7.39871773       2.13480223        3       1.00000000       0.02048543      -0.04892634       0.07210583
Pt      10.30512967       7.34438389       2.12255403        3       0.00000000      -0.02049245      -0.23657233      -0.28850574
Ni      12.94033513       7.37087536       2.09337779        3       1.00000000       0.05355352      -0.11525004      -0.00513696
Ni       0.03459515       1.53832893       4.31531120        6       1.00000000       0.13619714       0.15036818      -0.21583142
Ni       2.55851589       1.53129659       4.28369530        6       1.00000000      -0.04750998       0.08928305      -0.32250781
Ni       5.15142685       1.49998073       4.29203734        6       1.00000000      -0.09300740       0.06448147      -0.40200818
Ni       7.74874465       1.48832679       4.31384278        6       1.00000000       0.02138398      -0.08403275      -0.29362131
Ni       1.31422616       3.63639479       4.35138371        7       1.00000000       0.07347139      -0.11125849      -0.08609520
Ni       3.81865127       3.66812398       4.27520834        6       1.00000000      -0.10339331      -0.05620921      -0.32287621
Pt       6.50008071       3.62977561       4.27020371        6       0.00000000      -0.03780558       0.01251278      -0.06641050
Ni       9.05229413       3.67323579       4.27978828        6       1.00000000       0.05935559      -0.11781176      -0.41703305
Ni       2.57427951       5.84322329       4.35094202        7       1.00000000      -0.00868929      -0.19692544      -0.03971347
Pt       5.11799879       5.84366770       4.21810490        5       0.00000000      -0.02840602      -0.13404299      -0.14871972
Ni       7.76860840       5.86633787       4.29098322        6       1.00000000      -0.04079846      -0.05485619      -0.33163610
Pt      10.32688328       5.79996436       4.38348858        7       0.00000000       0.08390013      -0.04934357      -0.00210196
Pt       3.86897164       8.12733184       4.27592679        6       0.00000000      -0.01188828      -0.00585102       0.06017713
Pt       6.45632221       8.18830584       4.17599729        5       0.00000000      -0.05537174       0.13985929      -0.21473657
Pt       9.00765114       8.16192591       4.24340533        5       0.00000000      -0.12163606       0.08444148      -0.03398576
Pt      11.64544972       8.14348268       4.22550892        5       0.00000000       0.03345500      -0.03445470      -0.09066295
Pt      -0.00201621      -0.00506226       6.56946557       10       0.00000000      -0.01930207       0.18925330       0.32646689
Pt       2.57531546      -0.00816462       6.57528660       10       0.00000000       0.08248842       0.08759095       0.32783063
Pt       5.17269907      -0.05438614       6.46705084        9       0.00000000      -0.03550947       0.16007362       1.04004037
Pt       7.73440438      -0.05381833       6.57956201       10       0.00000000      -0.00265465       0.19962683       0.40463806
Ni       1.27944929       2.26316241       6.46579443        9       1.00000000      -0.07591131       0.14527416      -0.36263501
Pt       3.81459572       2.24770229       6.38927017        8       0.00000000       0.00832485       0.00523431       0.32330923
Ni       6.46693744       2.20841387       6.41728324        8       1.00000000      -0.02412252      -0.05199529       0.06536402
Pt       9.04759448       2.30133309       6.37541022        8       0.00000000       0.01117675      -0.06330734       0.44415503
Ni       2.52394142       4.44764400       6.46407833        9       1.00000000      -0.05757174       0.02805308      -0.42620330
Pt       5.13579003       4.41542491       6.53033978        9       0.00000000      -0.05655139      -0.06451860       0.08090362
Ni       7.78357242       4.43005628       6.40091390        8       1.00000000       0.04642463       0.12599465      -0.04687366
Ni      10.35925913       4.43495190       6.48715613        9       1.00000000       0.06259903      -0.08033073      -0.24163467
Ni       3.82258651       6.60075482       6.48730784        9       1.00000000      -0.06603560      -0.06924125      -0.25064258
Pt       6.50570030       6.59382123       6.42905127        8       0.00000000       0.10431770      -0.07784870       0.44304053
Ni       9.06943939       6.57719224       6.48064730        9       1.00000000       0.01280659      -0.08162056      -0.13605496
Ni      11.63357486       6.57618880       6.48796688        9       1.00000000       0.05420825       0.02124676      -0.20089310
