64
Lattice="10.285553044435781 0.028579654063767036 -0.014075194149503083 5.167527228668485 8.900678457232306 -0.011491997993069453 0.0 0.0 21.549826674452934" Properties=species:S:1:pos:R:3:tags:I:1:initial_magmoms:R:1:forces:R:3 unique_id=c5a43d0e4b5b435c86e5cca73f1f4a49 energy=-375.525106124961 stress="0.005768807570769688 0.0002382889554616569 4.905337616482824e-05 0.0002382889554616569 0.0059959134033488425 -4.1100477415735135e-05 4.905337616482824e-05 -4.1100477415735135e-05 -0.001175613540810437" pbc="T T T"
Ni       0.00886167       0.00121726       0.15668312        2       1.00000000       0.10992764       0.03707311      -0.04498657
Ni       2.54057738       0.02267568       0.17295935        2       1.00000000      -0.06665809       0.08288690       0.01681446
Pt       5.13558395      -0.03376221       0.10401957        1       0.00000000      -0.03494795       0.17461973      -0.94360535
Ni       7.73907463      -0.03593890       0.15049417        2       1.00000000      -0.07197453      -0.06424553      -0.15728865
Ni       1.29131308       2.23232251       0.08344010        1       1.00000000      -0.00888567       0.01526905       0.40956829
Pt       3.75290335       2.23625970       0.15473999        2       0.00000000       0.05220804       0.00417561      -0.31951771
Pt       6.45387723       2.21187598       0.08089166        1       0.00000000      -0.01807468      -0.01460699      -0.14781779
Pt       9.10909146       2.24249670       0.08706941        1       0.00000000       0.00212816       0.13998080      -0.46939250
Ni       2.53560717       4.48049046       0.04137795        0       1.00000000       0.00027179      -0.00580806       0.24351239
Pt       5.07141864       4.51776556       0.16303137        2       0.00000000      -0.03718272       0.08659956      -0.43307331
Pt       7.77501566       4.50968247       0.00000000        0       0.00000000      -0.13756322       0.01505869      -0.24665702
Ni      10.35794059       4.49702957       0.02398556        0       1.00000000       0.06962580      -0.02287669       0.29404701
Ni       3.81718460       6.71113945       0.08088543        1       1.00000000      -0.02571146       0.03221275       0.39218273
Pt       6.43920174       6.78152004       0.14743540        1       0.00000000      -0.06087886       0.01654944      -0.35381455
Ni       9.04512151       6.68686797       0.03396954        0       1.00000000      -0.00841684       0.01405553       0.13265806
Ni      11.62224011       6.66407201       0.03031198        0       1.00000000       0.06835617       0.05664715       0.29076807
Ni       1.31477162       0.75395210       2.20870192        4       1.00000000       0.05332454       0.06725492       0.22506503
Ni       3.81542440       0.78157414       2.23482085        4       1.00000000      -0.06686665       0.09821852       0.29601969
Ni       6.42842721       0.79067089       2.22956764        4       1.00000000      -0.04336738       0.12587673       0.29816398
Pt       9.02051774       0.75400446       2.22271480        4       0.00000000       0.06941759       0.10860151       0.03607715
Ni       2.56789410       2.93924240       2.25980797        5       1.00000000       0.04324627      -0.12011200       0.29811160
Ni       5.12255367       2.96453343       2.24636840        4       1.00000000      -0.14914043      -0.08431150       0.19015811
Ni       7.70393438       2.96871864       2.22276299        4       1.00000000      -0.01314211      -0.04351078       0.14344221
Ni      10.34185737       2.96563544       2.22896498        4       1.00000000       0.16031318      -0.12275832       0.29021609
Ni       3.87982118       5.20780100       2.25319926        5       1.00000000       0.10151770      -0.03324347       0.28349235
Ni       6.40962404       5.21999056       2.23402925        4       1.00000000      -0.02265078       0.07090281       0.15919645
Pt       8.97839692       5.16811879       2.26366517        5       0.00000000      -0.09752942      -0.21580675      -0.06165590
Pt      11.66578158       5.15431806       2.19055806        4       0.00000000       0.09586355      -0.16792897       0.12737468
Ni       5.16550171       7.39283118       2.21323992        4       1.00000000       0.04133109      -0.11824686       0.19260300
Ni       7.68722040       7.46246185       2.20674381        4       1.00000000      -0.12488527       0.05771129       0.17646890
Pt      10.30269547       7.40880545       2.18117463        4       0.00000000       0.01571456      -0.06367045      -0.20937194
Ni      12.91277052       7.41207889       2.13439013        3       1.00000000       0.08821397      -0.10027387       0.05340442
Ni       0.05386154       1.52303270       4.32325246        6       1.00000000       0.18020592       0.03460858      -0.16352959
Ni       2.52508885       1.52896690       4.28761941        6       1.00000000      -0.09839114       0.04695597      -0.27577841
Ni       5.12892304       1.52364889       4.29324940        6       1.00000000      -0.09262525       0.02264947      -0.37831572
Ni       7.71303416       1.52120355       4.31557630        6       1.00000000       0.01309191      -0.08451893      -0.26574827
Ni       1.29269305       3.69249359       4.37585153        7       1.00000000       0.03137227      -0.07086146      -0.02949666
Ni       3.81334966       3.72865682       4.27522382        6       1.00000000      -0.10436997      -0.00365796      -0.31035689
Pt       6.45475187       3.70896373       4.26528800        6       0.00000000      -0.02386192      -0.00302245      -0.02581776
Ni       9.04646246       3.74649523       4.32045054        6       1.00000000       0.16576004      -0.07503689      -0.14729587
Ni       2.59256223       5.86407058       4.37868128        7       1.00000000       0.06806899      -0.20243779       0.01631001
Ni       5.14505384       5.91954650       4.27652934        6       1.00000000       0.06332602      -0.16914410      -0.32975124
Ni       7.73062752       5.92389157       4.32614709        6       1.00000000      -0.08707345      -0.01858854      -0.16985035
Ni      10.30452460       5.89027597       4.39846972        7       1.00000000       0.08672530      -0.06556000       0.07390535
Pt       3.93785711       8.08766618       4.30951997        6       0.00000000       0.12185216      -0.10331941       0.12078870
Ni       6.44132251       8.17173103       4.27232781        6       1.00000000      -0.05091823       0.07266688      -0.35607871
Pt       8.92872783       8.15888722       4.27915346        6       0.00000000      -0.07230764       0.05959118       0.05881337
Pt      11.62136362       8.14404326       4.27676923        6       0.00000000       0.05580867      -0.09080569       0.01531789
Pt      -0.00079576       0.02107819       6.53075515        9       0.00000000       0.06796236       0.15517482       0.22259781
Pt       2.55071824       0.01753524       6.53263985        9       0.00000000      -0.01512169       0.05413632       0.21712621
Pt       5.13759893      -0.02691695       6.44253469        8       0.00000000      -0.01455032       0.14850359       0.99181298
Pt       7.70309937      -0.01615027       6.54982667        9       0.00000000      -0.03734538       0.18848038       0.31640219
Ni       1.27262993       2.29278735       6.46779133        9       1.00000000      -0.08337078       0.19527884      -0.36757713
Pt       3.79819314       2.28266444       6.38485235        8       0.00000000      -0.00946726       0.01249038       0.29052339
Ni       6.43634978       2.25248352       6.40792778        8       1.00000000      -0.02673148      -0.03147544       0.02400001
Pt       9.01249422       2.34790251       6.36790021        8       0.00000000       0.01529713       0.01242956       0.43977946
Ni       2.50957178       4.48016651       6.46515202        9       1.00000000      -0.07474714       0.01168545      -0.43540070
Pt       5.10264802       4.47303588       6.42216968        8       0.00000000      -0.10509309       0.04661747       0.31768387
Ni       7.75695441       4.47675677       6.38212486        8       1.00000000       0.04462286       0.09162232       0.02555971
Ni      10.31952822       4.50736624       6.45265779        9       1.00000000       0.03584225      -0.01540485      -0.45065490
Ni       3.81962291       6.63244051       6.48789102        9       1.00000000      -0.09464851      -0.09859334      -0.24390521
Pt       6.47718444       6.63688999       6.38598695        8       0.00000000      -0.00754395      -0.00508913       0.31133515
Ni       9.04873779       6.60976765       6.47036381        9       1.00000000       0.08525240      -0.12573679      -0.30466763
Ni      11.58127474       6.61228408       6.47951560        9       1.00000000      -0.02060510      -0.01593234      -0.34989442
