64
Lattice="10.411871325672937 -0.03577028929127581 0.023283697538643868 5.1749576836095015 8.984697098862288 -0.014153033024160822 0.019011059431658123 -0.024319647781436294 8.94020842382388" Properties=species:S:1:pos:R:3:tags:I:1:initial_magmoms:R:1:forces:R:3 unique_id=42e96cd287bf48ba89c6a900ac72b461 stress="0.0005304612754942276 -1.6895554998077233e-06 -1.101964443069058e-05 -1.6895554998077233e-06 0.0005246132185590183 -3.610727959163802e-06 -1.101964443069058e-05 -3.610727959163802e-06 0.00047544508623945797" energy=-403.7366831668415 pbc="T T T"
Ni       0.01261013      -0.00520470       0.16184000        4       1.00000000       0.03184047      -0.03392175       0.26767623
Pt       2.54209652       0.00583314       0.21742863        4       0.00000000      -0.06336703       0.02654870       0.22996379
Pt       5.18216708      -0.06724950       0.13068818        4       0.00000000      -0.01081239       0.06022680       0.19454718
Pt       7.85810448      -0.14135807       0.17601016        4       0.00000000       0.03815089      -0.11739011       0.27564739
Ni       1.29602095       2.27944831       0.09399477        4       1.00000000       0.03519233       0.18119859       0.29725682
Pt       3.82998286       2.33483170       0.12148551        4       0.00000000      -0.00987229       0.13894698      -0.03290794
Pt       6.48949760       2.28828939       0.17077860        4       0.00000000       0.04393545       0.10454794       0.19999825
Pt       9.20828126       2.25285376       0.16645994        4       0.00000000       0.11063468       0.01220057       0.15059657
Ni       2.57623619       4.51272161       0.06693640        4       1.00000000       0.03672249       0.10570374       0.06082610
Ni       5.15280310       4.50747117       0.16863805        4       1.00000000      -0.10081682       0.09110747       0.36888072
Pt       7.85078637       4.53412239       0.12119041        4       0.00000000       0.12443855       0.09104505      -0.04720667
Ni      10.43924763       4.48671288       0.07980243        4       1.00000000       0.15668407       0.06574647       0.13955037
Ni       3.86711313       6.68899381       0.16883728        4       1.00000000      -0.07561282      -0.27545083       0.39680245
Pt       6.41885761       6.71381546       0.19464759        4       0.00000000      -0.11139857      -0.03907733       0.01655463
Ni       9.10768327       6.68603235       0.07622253        4       1.00000000       0.02393220      -0.03781128       0.11327669
Ni      11.69829801       6.64994477       0.07893108        4       1.00000000       0.05148484      -0.17705113       0.09448122
Ni       1.31353744       0.76711012       2.25484859        3       1.00000000       0.09302440       0.21073435       0.08876816
Ni       3.87820352       0.77286501       2.27518802        3       1.00000000       0.00511090       0.13565404       0.00077101
Pt       6.46519950       0.77902133       2.32483253        3       0.00000000      -0.11285825       0.07172830      -0.11520482
Pt       9.22511431       0.70992289       2.29416103        3       0.00000000       0.06780826       0.06824254      -0.06348005
Ni       2.60360208       2.98297312       2.24802375        3       1.00000000       0.02114259       0.06379044       0.06976962
Ni       5.15396721       3.03368589       2.28225420        3       1.00000000      -0.22891948       0.17468977       0.08917663
Ni       7.82677956       3.03514712       2.27846632        3       1.00000000       0.15120790       0.17602721      -0.02124694
Ni      10.43196755       2.97054300       2.28893271        3       1.00000000       0.09942655       0.05148710       0.18373738
Ni       3.92053337       5.22750344       2.24409182        3       1.00000000       0.09728922      -0.06548240       0.13876842
Ni       6.47643919       5.22461413       2.27410914        3       1.00000000      -0.08417949       0.09644095       0.00762319
Ni       9.06697723       5.18260631       2.27427521        3       1.00000000      -0.05843271      -0.18077710       0.19899123
Pt      11.75384123       5.14854446       2.19206736        3       0.00000000       0.12787936      -0.12444518       0.05403748
Ni       5.17922386       7.43143402       2.23170509        3       1.00000000      -0.09448979      -0.24881380      -0.00363481
Ni       7.76542029       7.43629476       2.25171680        3       1.00000000      -0.04891155      -0.25076905      -0.06578856
Pt      10.33885176       7.37556241       2.21046028        3       0.00000000       0.00891148      -0.17526079      -0.21229726
Ni      13.02957612       7.38984267       2.24781959        3       1.00000000       0.05927247      -0.25828959       0.03352724
Ni       0.02999448       1.51224976       4.42161361        2       1.00000000       0.13990348       0.01112226      -0.06362977
Pt       2.63757491       1.54311537       4.38260212        2       0.00000000       0.05096052      -0.03649525      -0.08515646
Ni       5.18126650       1.51344041       4.44114808        2       1.00000000      -0.01447250       0.15765710      -0.05350384
Pt       7.85637395       1.53493841       4.40551506        2       0.00000000       0.11007486       0.08599754       0.12890744
Pt       1.30166729       3.73074305       4.47341600        2       0.00000000      -0.00066674      -0.02427422      -0.02679406
Ni       3.90615290       3.75436810       4.42049404        2       1.00000000      -0.01293965       0.14212661      -0.23488235
Pt       6.48209850       3.80148249       4.33856837        2       0.00000000      -0.08396790      -0.02684810      -0.02166452
Ni       9.09993640       3.73307634       4.42418181        2       1.00000000      -0.05265475       0.04089439      -0.29934446
Ni       2.61733050       5.93076021       4.42610676        2       1.00000000       0.04917838      -0.23085938      -0.16844111
Ni       5.17065026       5.93571282       4.38889336        2       1.00000000      -0.11412172      -0.08888941      -0.21259861
Ni       7.80224720       5.92760905       4.41366404        2       1.00000000      -0.03224626      -0.01967635      -0.25414267
Pt      10.35019192       5.88425568       4.51511220        2       0.00000000      -0.07536727      -0.02731693      -0.04703193
Pt       3.90802971       8.14237393       4.35090842        2       0.00000000      -0.03254090      -0.19419334       0.08970633
Pt       6.47450316       8.17733980       4.30547860        2       0.00000000      -0.04753569      -0.06187870      -0.04300581
Pt       9.05928523       8.18789966       4.36969030        2       0.00000000      -0.00780254       0.03925830      -0.01669789
Pt      11.71267180       8.13816286       4.40451548        2       0.00000000       0.04781554      -0.14171853       0.00299051
Pt       0.03378219       0.02779835       6.66520209        1       0.00000000      -0.02041359       0.01005295       0.01916137
Pt       2.62191105       0.02818061       6.63241561        1       0.00000000      -0.02606861       0.08320404      -0.08677791
Pt       5.19560305      -0.07565642       6.59017154        1       0.00000000      -0.01723529      -0.10710631      -0.35443838
Pt       7.81279819      -0.06400501       6.63019585        1       0.00000000       0.00304481       0.07307836      -0.17239613
Ni       1.33246583       2.28735144       6.63365121        1       1.00000000       0.11904344       0.15857153      -0.09693842
Ni       3.87216739       2.25123813       6.57041995        1       1.00000000      -0.12351279       0.06856655      -0.23762162
Pt       6.48760559       2.25007545       6.58505525        1       0.00000000       0.02821124       0.10004292      -0.18839856
Pt       9.19549313       2.33024969       6.57893712        1       0.00000000       0.13494750       0.23191128      -0.14942502
Ni       2.55240273       4.45342673       6.63093631        1       1.00000000      -0.19284661      -0.07800630      -0.13210427
Pt       5.12921775       4.43272509       6.63341459        1       0.00000000      -0.15774026      -0.06406535       0.08252039
Ni       7.84933404       4.48498100       6.56659525        1       1.00000000       0.08798103       0.09080286      -0.29274307
Ni      10.43210136       4.48729907       6.65839591        1       1.00000000       0.10411963       0.18283163      -0.00456661
Pt       3.81722053       6.65174185       6.63976563        1       0.00000000      -0.14793665      -0.02138816       0.17260464
Pt       6.55918875       6.65528246       6.56316549        1       0.00000000      -0.00633272      -0.02913780      -0.14100204
Ni       9.12624296       6.65308017       6.64413398        1       1.00000000      -0.00521637      -0.10585119      -0.10456584
Ni      11.67346271       6.63313456       6.65631796        1       1.00000000      -0.08807952      -0.15993971      -0.11748106
