64
Lattice="10.333305996812696 0.03182417345310691 -0.05760723053770368 5.194213541071179 8.926417691066495 -0.10691832958935144 -0.04703610677075038 -0.07364725894196635 8.831174146651403" Properties=species:S:1:pos:R:3:tags:I:1:initial_magmoms:R:1:forces:R:3 unique_id=697fa5b8c7a84a038bccaa415845af71 stress="0.0002713024782216508 -9.715772490332385e-07 1.0055681144238751e-05 -9.715772490332385e-07 0.0002812853897975545 1.7024875285290107e-05 1.0055681144238751e-05 1.7024875285290107e-05 0.00026335585859493804" energy=-399.3901126032316 pbc="T T T"
Ni      -0.01027310       0.00968792       0.17605556        4       1.00000000      -0.02810206       0.06704359       0.25102248
Ni       2.58204997       0.00262141       0.18984043        4       1.00000000       0.03505559      -0.01412844       0.36944825
Ni       5.16833424      -0.02136019       0.05394432        4       1.00000000      -0.02857544      -0.04696209       0.04272533
Ni       7.74761990      -0.03547070       0.03005262        4       1.00000000      -0.08036276      -0.25456609       0.05117176
Ni       1.27931087       2.22023058       0.14145648        4       1.00000000      -0.10003361      -0.07877383       0.22349176
Pt       3.82306772       2.21951259       0.15731760        4       0.00000000      -0.07047832      -0.03314806       0.19774062
Pt       6.48584548       2.17412019       0.13257026        4       0.00000000       0.03676372      -0.14067597       0.24874044
Ni       9.07205771       2.22331078       0.06259158        4       1.00000000       0.04857261      -0.15070069       0.07406206
Ni       2.56948265       4.47401656       0.00254124        4       1.00000000      -0.14930268      -0.03324080      -0.01866979
Ni       5.16140543       4.46657696       0.08522521        4       1.00000000       0.09835303      -0.15269020       0.28315068
Pt       7.85631568       4.46562702      -0.03253873        4       0.00000000       0.15560796      -0.04938920      -0.14771176
Ni      10.38126395       4.48564108      -0.03813073        4       1.00000000       0.14824931      -0.03446834       0.01567754
Ni       3.85570635       6.70810787      -0.00689850        4       1.00000000      -0.13032242       0.07348936       0.04361672
Pt       6.44887165       6.77035499      -0.02137589        4       0.00000000      -0.06636916      -0.01157747      -0.18124048
Ni       9.08118923       6.72026463       0.03815024        4       1.00000000      -0.05231013      -0.01781149       0.17552745
Ni      11.66124174       6.72164002      -0.06787024        4       1.00000000       0.03370108      -0.03373962      -0.03543812
Ni       1.29645276       0.71070495       2.15337626        3       1.00000000      -0.07106394      -0.04296983      -0.11295946
Ni       3.86615784       0.73770564       2.19547359        3       1.00000000       0.06092402       0.02909055       0.07627000
Ni       6.43384100       0.74177887       2.22119291        3       1.00000000      -0.03318932       0.02880707       0.21191444
Pt       8.99050584       0.72525355       2.13182467        3       0.00000000      -0.12432722      -0.00442667       0.02703915
Ni       2.56169424       2.94014002       2.17523837        3       1.00000000      -0.10354895       0.07454123      -0.05459629
Ni       5.16600638       2.92322087       2.19671568        3       1.00000000      -0.00063228      -0.12452167       0.08248952
Ni       7.76382729       2.96034710       2.17832656        3       1.00000000       0.07842190      -0.01059155       0.03457994
Pt      10.32204677       2.97621835       2.15417717        3       0.00000000      -0.03302579      -0.00174516       0.11250897
Pt       3.86434451       5.21671198       2.07285441        3       0.00000000      -0.03393356       0.06979878      -0.07133172
Pt       6.52587636       5.21060277       2.15375727        3       0.00000000       0.17377815       0.08558228      -0.12210611
Ni       9.05262241       5.21897205       2.15915778        3       1.00000000       0.06926294       0.08350785       0.17024292
Pt      11.61384113       5.22444931       2.11477333        3       0.00000000       0.00305899       0.02057167       0.03677151
Ni       5.17012460       7.44843439       2.09633608        3       1.00000000      -0.08435478       0.01309498      -0.06176633
Ni       7.77049367       7.46015039       2.09067769        3       1.00000000       0.08507531       0.03586460       0.00396462
Pt      10.35551887       7.49091332       2.03785175        3       0.00000000       0.07241665       0.06205095       0.00643537
Ni      12.91444040       7.46382151       2.04900587        3       1.00000000      -0.09977023       0.00500593      -0.08314843
Ni      -0.05245047       1.48812928       4.36654764        2       1.00000000      -0.12094844       0.03191565      -0.01130900
Pt       2.52262320       1.47992290       4.23667700        2       0.00000000      -0.04899128       0.11847984       0.02857485
Ni       5.18978783       1.42475715       4.29438239        2       1.00000000       0.04602177      -0.04168966      -0.18588542
Ni       7.72635169       1.45551353       4.29354916        2       1.00000000      -0.04847117       0.01574923      -0.13828835
Ni       1.23122943       3.73491239       4.36981496        2       1.00000000      -0.05198270       0.11292608       0.00471897
Pt       3.81050862       3.71281067       4.28604180        2       0.00000000      -0.04980252      -0.02568504       0.03414945
Pt       6.53305588       3.64596698       4.27243557        2       0.00000000      -0.02579753      -0.10615553       0.09233440
Ni       9.07110107       3.73161262       4.30523161        2       1.00000000       0.12024049       0.11554661      -0.10853201
Ni       2.50492114       5.92521967       4.37839857        2       1.00000000      -0.19851967       0.05138488       0.01106584
Pt       5.14473443       5.94747857       4.32695675        2       0.00000000      -0.03489157       0.01297195       0.00577926
Ni       7.80544867       5.89604645       4.30114770        2       1.00000000       0.20554948      -0.01692004      -0.09776174
Ni      10.35790033       5.89231446       4.29749937        2       1.00000000       0.05869640      -0.01637644      -0.07454345
Pt       3.75196261       8.15803334       4.29008847        2       0.00000000      -0.04575962      -0.03953945       0.01409372
Pt       6.46037019       8.15147926       4.19528765        2       0.00000000      -0.07635552       0.04882849      -0.05658110
Pt       9.12520589       8.13247705       4.23948034        2       0.00000000      -0.04646758      -0.05370952       0.06603452
Ni      11.62414352       8.16649234       4.28413706        2       1.00000000      -0.09458957      -0.03714036      -0.03174135
Pt      -0.09366193      -0.11154455       6.61569539        1       0.00000000      -0.04590550      -0.02258686       0.15885305
Pt       2.57270232      -0.08404131       6.61830011        1       0.00000000       0.04892150      -0.02678822       0.23087566
Ni       5.18881285      -0.08252429       6.52177887        1       1.00000000       0.12544200      -0.19000528      -0.12583747
Ni       7.67154424      -0.08136526       6.50968640        1       1.00000000      -0.09781205      -0.14190401      -0.11262123
Pt       1.25371672       2.28100188       6.54138773        1       0.00000000       0.09961964       0.06301283       0.10367759
Pt       3.86663027       2.19073986       6.47871319        1       0.00000000      -0.00202602       0.05606087      -0.24930501
Pt       6.44936313       2.11590917       6.43510600        1       0.00000000       0.04500720      -0.08870758      -0.17649337
Pt       9.00372158       2.26504578       6.45183712        1       0.00000000       0.02083728       0.12346671      -0.03185599
Ni       2.52181778       4.48894544       6.48950090        1       1.00000000      -0.06184408       0.25479137      -0.20857296
Pt       5.14577588       4.50499811       6.55658442        1       0.00000000       0.03907687       0.14191941       0.12911919
Ni       7.75092850       4.45247654       6.37613835        1       1.00000000       0.01550037       0.05207128      -0.34006995
Ni      10.34092079       4.47171923       6.42424503        1       1.00000000       0.20204430       0.07160001      -0.24537104
Ni       3.79381828       6.64394017       6.48155419        1       1.00000000      -0.23727865       0.02255518      -0.12444785
Ni       6.46232704       6.64096049       6.39005201        1       1.00000000       0.19022369       0.03683873      -0.31914131
Pt       9.09564442       6.57496423       6.45208754        1       0.00000000       0.17208235       0.01528567       0.12491254
Ni      11.64621705       6.66724242       6.40787864        1       1.00000000       0.08864151       0.04948154      -0.21545348
