64
Lattice="10.248612272289426 -0.0126488702557304 -0.013446101086820273 5.113351893174072 8.849830413480483 -0.02860882677760273 0.0 0.0 21.635534644619202" Properties=species:S:1:pos:R:3:tags:I:1:initial_magmoms:R:1:forces:R:3 unique_id=8f5a5e8c3e8d4127a051769e899c486f stress="0.004240354623533497 -4.9356923323533075e-05 -9.804508185542707e-05 -4.9356923323533075e-05 0.004027291796118415 -0.00025323792645724384 -9.804508185542707e-05 -0.00025323792645724384 -0.002512599921457542" energy=-371.23965879573154 pbc="T T T"
Ni       0.02002025       0.03815709       0.19521711        2       1.00000000       0.20418363       0.05514044      -0.59697643
Ni       2.57961832       0.03236763       0.24813368        2       1.00000000       0.00254104      -0.02193681      -0.25310233
Ni       5.09650387      -0.02566143       0.10530833        1       1.00000000      -0.06627620       0.08344137       0.19838198
Ni       7.68874706      -0.03262938       0.07760176        1       1.00000000      -0.04111620       0.08333185       0.00445204
Ni       1.28007730       2.22159722       0.14592072        1       1.00000000       0.00995518       0.04231228       0.39481019
Ni       3.80138006       2.21266662       0.24226217        2       1.00000000       0.03076227       0.04031718      -0.17049934
Pt       6.39968708       2.27296113       0.18509093        2       0.00000000      -0.01713708       0.14413805      -1.16600767
Ni       9.00719333       2.24107236       0.09156220        1       1.00000000      -0.01360092       0.10889277       0.18125971
Ni       2.56662822       4.39970387       0.09997612        1       1.00000000       0.00270368      -0.08354104       0.24969111
Ni       5.06127585       4.41858539       0.10438240        1       1.00000000      -0.15303980       0.00752912       0.17433745
Ni       7.74643356       4.40837553       0.09778025        1       1.00000000       0.17948370       0.00329754       0.09728805
Ni      10.23110487       4.38886255       0.08371806        1       1.00000000      -0.01726143       0.00800684       0.19467664
Ni       3.80809961       6.60653006       0.06401374        1       1.00000000       0.00768730      -0.10757566       0.05954832
Pt       6.43514407       6.63115567       0.00000000        0       0.00000000       0.13069865       0.12262640      -0.45242079
Ni       8.97067151       6.61101658       0.15445344        2       1.00000000      -0.04973328      -0.11264748      -0.17521932
Ni      11.51378599       6.61533275       0.04502789        0       1.00000000      -0.08978982      -0.09814728       0.11633684
Ni       1.32571801       0.78016967       2.19747539        3       1.00000000       0.02270464       0.09569906       0.00480545
Ni       3.78566917       0.74573505       2.20284925        3       1.00000000       0.01508893       0.00803346       0.15240767
Pt       6.35809709       0.73539736       2.23737877        3       0.00000000      -0.10661731       0.03919756       0.07376189
Pt       9.02912492       0.81977450       2.17732258        3       0.00000000       0.01257986      -0.00175342       0.02302344
Ni       2.57075806       2.92508276       2.19910560        3       1.00000000      -0.06038448       0.01040009       0.02819657
Ni       5.03704239       2.96651591       2.24413129        3       1.00000000      -0.12387361       0.00799562       0.22278308
Ni       7.74183229       2.98283992       2.23861385        3       1.00000000       0.15379333       0.05101673       0.15591881
Ni      10.24846484       2.94508711       2.20785391        3       1.00000000       0.04934330      -0.02201037       0.04939118
Ni       3.83585239       5.08644107       2.23110540        3       1.00000000      -0.01003045      -0.12525496       0.03889812
Pt       6.43416919       5.10691666       2.20878230        3       0.00000000       0.03535606      -0.11658229       0.02551838
Ni       8.95281460       5.10357424       2.22838081        3       1.00000000       0.02488817      -0.11294485       0.06801662
Pt      11.50719282       5.05740312       2.16980505        3       0.00000000      -0.00209724      -0.07006037      -0.04605480
Pt       5.14053313       7.35355842       2.19437969        3       0.00000000       0.03396477      -0.07493938      -0.02662600
Ni       7.68401226       7.38420674       2.21880773        3       1.00000000      -0.05594024      -0.03123153       0.12747414
Pt      10.13447364       7.33665384       2.23562008        3       0.00000000      -0.09485947      -0.05908474       0.09596746
Pt      12.78858596       7.30769781       2.16912733        3       0.00000000       0.01500862      -0.08779068      -0.01074903
Ni       0.00219059       1.49731109       4.42598006        5       1.00000000       0.02241061      -0.03306833      -0.08734586
Pt       2.51439843       1.48772572       4.31693748        4       0.00000000      -0.01002223       0.00051833      -0.06582617
Pt       5.08039175       1.41893089       4.39591043        5       0.00000000      -0.11879303      -0.04343038       0.01497101
Pt       7.76496897       1.48758870       4.41403341        5       0.00000000       0.06357555       0.02577478       0.05690398
Pt       1.22986248       3.73044634       4.46350700        6       0.00000000      -0.02868751       0.01973178       0.03609414
Ni       3.82199336       3.74692474       4.38559455        5       1.00000000      -0.06877896       0.02280509      -0.09248215
Pt       6.39446526       3.75649037       4.41638884        5       0.00000000      -0.02425743       0.14361974      -0.09493107
Ni       8.97337046       3.72112230       4.40401995        5       1.00000000      -0.02435045       0.16692033      -0.05888306
Ni       2.53955785       5.86181260       4.44547992        5       1.00000000      -0.10319795      -0.06679092      -0.07612031
Ni       5.06458802       5.85304145       4.43113783        5       1.00000000      -0.08715961      -0.06265874      -0.14463617
Ni       7.73646079       5.87190029       4.38280760        5       1.00000000       0.20610007      -0.04632662      -0.22766089
Ni      10.23040754       5.89121567       4.39213065        5       1.00000000      -0.02349096       0.00637537      -0.11309992
Pt       3.77864378       8.01323176       4.44584662        5       0.00000000      -0.02561736      -0.03829924       0.00029254
Pt       6.43445450       8.02541433       4.36539886        5       0.00000000       0.07267608      -0.04836238      -0.05344234
Ni       8.97622445       8.04354547       4.38094190        5       1.00000000      -0.02178542      -0.03815467      -0.07049309
Ni      11.48062020       8.02855695       4.43972939        5       1.00000000      -0.09450966      -0.06023523       0.01866115
Pt      -0.06914496       0.01761837       6.63553464        9       0.00000000       0.00466783       0.01366683       0.30567880
Pt       2.58189552      -0.02876995       6.63502101        9       0.00000000       0.03616974      -0.09566188       0.23136963
Ni       5.16149775      -0.06357057       6.55175184        9       1.00000000       0.02247639       0.00225602      -0.04884375
Ni       7.63869901      -0.07747997       6.56562400        9       1.00000000      -0.03787185      -0.02184323      -0.00596865
Ni       1.22705761       2.24470922       6.57245554        9       1.00000000       0.01657549      -0.03097278      -0.09244579
Pt       3.79305329       2.30788628       6.62762135        9       0.00000000       0.10572634       0.24353103       0.16514281
Pt       6.44967335       2.20194032       6.55170210        9       0.00000000      -0.05342156       0.11177454       1.38955520
Ni       8.99898187       2.24527803       6.55393227        9       1.00000000       0.04427084       0.14605051      -0.07126993
Ni       2.53460032       4.47971430       6.54985885        8       1.00000000       0.01158282       0.09725954      -0.18655551
Ni       5.09409875       4.48713882       6.54143054        8       1.00000000      -0.05646652      -0.03514287      -0.13106674
Ni       7.69764124       4.41819158       6.54414157        8       1.00000000       0.07942856      -0.06605950      -0.12326656
Ni      10.24435489       4.38064362       6.54446204        8       1.00000000      -0.01677426       0.05798537      -0.12657160
Ni       3.79761119       6.56577823       6.53915935        8       1.00000000       0.01897523      -0.01862916      -0.17226790
Ni       6.36196198       6.55475149       6.42095337        7       1.00000000       0.05344594      -0.06059635       0.35804962
Pt       9.00993587       6.54215209       6.52219714        8       0.00000000      -0.02262195       0.01942011      -0.05870136
Ni      11.55183104       6.60807174       6.50237843        8       1.00000000       0.03073964      -0.09733258      -0.31412951
