64
Lattice="10.385709127282308 0.032476034644800096 0.08262123486239174 5.2209796346577315 9.052449511607222 0.053068742677075106 0.06745995577716937 0.011085666793869173 8.980609733493964" Properties=species:S:1:pos:R:3:tags:I:1:initial_magmoms:R:1:forces:R:3 unique_id=d795744bcc6743d282e2893e0390a452 stress="0.0005736461058257342 6.633517701336934e-06 -1.679453053080508e-05 6.633517701336934e-06 0.0005695608907368491 -1.753487414457965e-06 -1.679453053080508e-05 -1.753487414457965e-06 0.0005127312287927302" energy=-404.38835036501564 pbc="T T T"
Pt      -0.05652898       0.05242413       0.01818105        4       0.00000000      -0.11763952       0.09499533      -0.12603054
Ni       2.64992897       0.00681106       0.06874495        4       1.00000000       0.16432105      -0.04334834       0.12461114
Ni       5.22192769       0.01252516       0.09419922        4       1.00000000       0.20037509      -0.04870490       0.00860276
Ni       7.74164986       0.06271332       0.15534834        4       1.00000000      -0.19153003       0.15365714       0.23597425
Pt       1.30545303       2.27357789       0.00058521        4       0.00000000       0.04095797       0.03797767      -0.22624751
Ni       3.93869309       2.24002193       0.17157877        4       1.00000000       0.12996975       0.01240890       0.29542950
Ni       6.52376566       2.23297086       0.20845091        4       1.00000000       0.06294036      -0.23475696       0.29041791
Ni       9.05755467       2.30652425       0.13997504        4       1.00000000      -0.15780406       0.08470680       0.17202092
Pt       2.54726664       4.55943739       0.14567147        4       0.00000000      -0.07067730       0.07138401       0.19394631
Pt       5.28360910       4.43567654       0.19962186        4       0.00000000       0.13689758      -0.14088686       0.16136354
Ni       7.86106260       4.52428331       0.21059421        4       1.00000000       0.22102538      -0.03644695       0.22349390
Ni      10.35827717       4.58590946       0.15896334        4       1.00000000      -0.15618761       0.15971149       0.14145296
Pt       3.83485339       6.84661831       0.15839623        4       0.00000000      -0.06711000       0.08234179       0.12581737
Pt       6.60596658       6.77419714       0.18336996        4       0.00000000       0.11366052      -0.01465828       0.33257931
Ni       9.16310844       6.79770512       0.14232317        4       1.00000000       0.21686349      -0.02318111       0.15060731
Ni      11.66777520       6.83941736       0.23198952        4       1.00000000      -0.06563664       0.07623246       0.12692459
Pt       1.29781617       0.76274904       2.26213376        3       0.00000000      -0.03158954       0.06099191      -0.15024922
Pt       4.01877223       0.76764242       2.20683167        3       0.00000000       0.12804269      -0.12006024       0.00708748
Ni       6.56476092       0.76396617       2.29004090        3       1.00000000       0.18686342      -0.10573757      -0.01082286
Ni       9.03169660       0.78201676       2.33820370        3       1.00000000      -0.18776674       0.06531743       0.04405596
Pt       2.65550988       3.03477426       2.31246523        3       0.00000000      -0.00326211       0.02460374      -0.04428851
Ni       5.25676132       3.01869056       2.32562111        3       1.00000000       0.02268176      -0.00795681       0.16304184
Pt       7.75204029       3.02996483       2.32728028        3       0.00000000      -0.02144918      -0.07116946       0.11081339
Pt      10.34308938       3.11874563       2.31532344        3       0.00000000      -0.05263710      -0.04102697      -0.18387864
Pt       3.93165452       5.27121990       2.34856297        3       0.00000000       0.02465981      -0.02003195      -0.15075664
Ni       6.56513002       5.25484481       2.33839160        3       1.00000000       0.13294751      -0.05079255       0.06565993
Ni       9.12065878       5.29685473       2.33665378        3       1.00000000       0.00770328      -0.01850573       0.06741820
Ni      11.68323900       5.33417733       2.35624634        3       1.00000000      -0.04532180      -0.03364726       0.02406844
Pt       5.15964483       7.58102180       2.35660989        3       0.00000000      -0.09176821       0.10062934      -0.10516475
Pt       7.89442980       7.47069056       2.35248364        3       0.00000000       0.00345875      -0.06692591       0.10178182
Pt      10.51920094       7.51921531       2.32226593        3       0.00000000       0.10349529      -0.01341374       0.16900220
Ni      12.99520383       7.63317877       2.38707243        3       1.00000000       0.04118962       0.23955992       0.04415643
Pt      -0.10120561       1.52531727       4.53708241        2       0.00000000      -0.15745898       0.08517527      -0.22543315
Pt       2.64106521       1.53383751       4.53168585        2       0.00000000       0.09511945       0.04290098       0.02014697
Pt       5.33412652       1.54370028       4.46102423        2       0.00000000       0.08405300       0.04024855      -0.04332660
Ni       7.83056615       1.51572566       4.52234309        2       1.00000000      -0.08831717      -0.04139108      -0.12888728
Pt       1.24236350       3.82632547       4.48590487        2       0.00000000      -0.13012847       0.10702405      -0.04987863
Ni       3.96329226       3.76913319       4.49545665        2       1.00000000       0.02084384      -0.06779012       0.02228749
Ni       6.58537329       3.78119153       4.49564303        2       1.00000000       0.17438619      -0.05907726      -0.04794487
Ni       9.08972334       3.82742975       4.54237308        2       1.00000000      -0.21558568       0.05526154      -0.18543875
Pt       2.57827567       6.12464849       4.43087070        2       0.00000000      -0.16316551       0.13605151      -0.00255730
Pt       5.30267150       5.98522141       4.46808197        2       0.00000000       0.13012395      -0.08391703       0.15326766
Ni       7.88863300       5.99454089       4.52112932        2       1.00000000       0.14086432      -0.18470358      -0.13137908
Ni      10.39544848       6.04245944       4.56314425        2       1.00000000      -0.21236012      -0.09115867      -0.08000137
Ni       3.89092333       8.35053826       4.50272611        2       1.00000000      -0.23313150       0.14536258      -0.13890266
Pt       6.52972832       8.31911299       4.55552313        2       0.00000000      -0.02601503      -0.06104816       0.06870701
Pt       9.21891463       8.23818156       4.64558200        2       0.00000000       0.11536956       0.00832127       0.07857442
Ni      11.78128186       8.35735598       4.57023740        2       1.00000000       0.10379418       0.22626628      -0.08099149
Ni       0.03277104       0.05741282       6.59742142        1       1.00000000      -0.05878778       0.09268669      -0.24991228
Ni       2.64602075       0.01171194       6.70701396        1       1.00000000      -0.07420849      -0.02916034      -0.09307008
Ni       5.22760345       0.00894794       6.72412127        1       1.00000000      -0.05647983       0.03836745      -0.09848018
Ni       7.84626451       0.04876426       6.70912923        1       1.00000000       0.04882491      -0.00851891      -0.23640573
Ni       1.29475581       2.24600196       6.60434854        1       1.00000000      -0.20888333      -0.04330563      -0.33939030
Pt       3.91959039       2.18450675       6.75959572        1       0.00000000      -0.03593083      -0.13646567       0.16713394
Pt       6.62557759       2.19556840       6.74559760        1       0.00000000       0.08673025      -0.11663043       0.16990368
Ni       9.16493567       2.27647828       6.75831325        1       1.00000000       0.05713645      -0.04305541       0.00925570
Pt       2.59203469       4.51090197       6.63392381        1       0.00000000      -0.06895443       0.01818166      -0.30162492
Pt       5.27185268       4.50326127       6.64494088        1       0.00000000       0.04213820      -0.12039587      -0.12314301
Pt       7.96455753       4.53949607       6.70674543        1       0.00000000       0.06605130      -0.08988792       0.06855934
Ni      10.42627682       4.54848714       6.75745970        1       1.00000000       0.01776074      -0.03612548      -0.10683940
Pt       3.94343823       6.90529671       6.63536159        1       0.00000000       0.00773169       0.05255261      -0.27513684
Pt       6.64007115       6.85164073       6.68843714        1       0.00000000       0.03695246      -0.00998198      -0.22394478
Ni       9.16282998       6.81838643       6.75993469        1       1.00000000      -0.06238838      -0.04791802      -0.02752180
Pt      11.63975443       6.88191870       6.77813580        1       0.00000000      -0.11375842       0.04886478       0.04948553
