64
Lattice="10.30057163736806 0.009353896587826331 0.008443133279447746 5.158386530753461 8.895522439987495 0.002278650450634768 0.006893789454986225 -0.001831798950109373 8.779906997376166" Properties=species:S:1:pos:R:3:tags:I:1:initial_magmoms:R:1:forces:R:3 unique_id=f2e91b3b01cf435f98a89f3880fb726d stress="0.0002069630779563611 4.114327378903959e-06 -1.5555239303823525e-05 4.114327378903959e-06 0.0002092243056366072 3.50530344888158e-06 -1.5555239303823525e-05 3.50530344888158e-06 0.00020808239707166554" energy=-397.1394631658538 pbc="T T T"
Ni      -0.01923217       0.02813699       0.20568994        4       1.00000000      -0.09167355       0.06243007       0.30843803
Ni       2.57487708       0.00611754       0.21437234        4       1.00000000       0.02672574       0.00335101       0.37375459
Ni       5.15427815      -0.00653328       0.17230755        4       1.00000000      -0.00067170       0.15466280       0.28858917
Ni       7.75118198      -0.03151425       0.12504648        4       1.00000000       0.07660885      -0.12286870       0.20808901
Ni       1.27074516       2.21803575       0.09229858        4       1.00000000      -0.06140004      -0.03952245       0.13201407
Pt       3.80739297       2.23467653       0.19715277        4       0.00000000      -0.05892179       0.05371333       0.20215055
Pt       6.47013190       2.17072798       0.20137113        4       0.00000000       0.04884393      -0.05208872       0.21453244
Ni       9.03822303       2.19031022       0.15514241        4       1.00000000      -0.02360352      -0.18118898       0.12849217
Ni       2.57939310       4.46919138       0.08003401        4       1.00000000       0.10271832       0.06823662       0.07861496
Ni       5.12511238       4.46684933       0.19433615        4       1.00000000      -0.00723953       0.01591522       0.33268863
Pt       7.80244771       4.46181816       0.11186892        4       0.00000000       0.12750487      -0.01586287      -0.06401565
Ni      10.34110672       4.46451836       0.06590781        4       1.00000000       0.14094238       0.02927536       0.05097611
Ni       3.83788729       6.67567400       0.19738282        4       1.00000000      -0.04390431      -0.04282805       0.28638137
Pt       6.41579665       6.72154687       0.19919714        4       0.00000000      -0.07484768       0.04560694       0.08349525
Ni       9.04485606       6.69040918       0.08180516        4       1.00000000      -0.00325512       0.03534422      -0.00093518
Ni      11.61705278       6.68670475       0.06901327        4       1.00000000       0.14076528       0.06681164      -0.06295919
Ni       1.28528208       0.72619697       2.15625347        3       1.00000000      -0.07527399      -0.00028731      -0.10359180
Ni       3.86370272       0.74986176       2.21141372        3       1.00000000       0.10654525       0.01852198       0.02882788
Ni       6.46710321       0.75100292       2.25123752        3       1.00000000       0.07767669       0.05129276       0.14728902
Ni       8.99158099       0.72910614       2.18638411        3       1.00000000      -0.11175943       0.00895820      -0.02500083
Ni       2.59242047       2.98113802       2.22140232        3       1.00000000       0.02173345       0.15207866      -0.02744555
Ni       5.13749812       2.98464516       2.24898980        3       1.00000000      -0.11586317      -0.03423373      -0.00432713
Ni       7.73361119       2.95687427       2.24649701        3       1.00000000       0.06187415      -0.05326994      -0.03743653
Pt      10.26957725       2.92098821       2.19406861        3       0.00000000      -0.00050317       0.03192665       0.01366167
Ni       3.90837474       5.19225000       2.21731940        3       1.00000000       0.09281525       0.01063905       0.10721544
Ni       6.42718187       5.19539142       2.23528402        3       1.00000000      -0.00397505       0.13369084      -0.06816314
Ni       8.99218529       5.19979779       2.25349337        3       1.00000000      -0.00198781      -0.02332311       0.14639653
Pt      11.65977220       5.20749258       2.17375536        3       0.00000000       0.07666515       0.02248724      -0.01415288
Ni       5.11744900       7.40612393       2.19852506        3       1.00000000      -0.13817070      -0.10372176      -0.10393332
Ni       7.73311804       7.40945414       2.20378133        3       1.00000000       0.04146822      -0.13298588      -0.07168614
Pt      10.29173459       7.42779257       2.12884134        3       0.00000000       0.03425796      -0.11022804      -0.01168368
Ni      12.92164361       7.43561502       2.16871898        3       1.00000000      -0.01701836      -0.00295135      -0.07827086
Ni      -0.02322408       1.50683456       4.34045367        2       1.00000000      -0.04980817       0.00576791      -0.09649386
Pt       2.57576678       1.52122125       4.24506322        2       0.00000000       0.01543132       0.02723911       0.00002360
Ni       5.16856623       1.50362870       4.30939629        2       1.00000000      -0.00072684       0.02465816      -0.16150947
Ni       7.75741650       1.50538844       4.30957502        2       1.00000000       0.08176493       0.08485931      -0.20391104
Pt       1.26588472       3.76220042       4.43209041        2       0.00000000      -0.00696372      -0.02140222      -0.02439852
Ni       3.87770210       3.75651449       4.30739505        2       1.00000000      -0.01334139       0.07000317      -0.19024589
Pt       6.46670753       3.73270153       4.25227480        2       0.00000000      -0.05540745      -0.05339600       0.12443166
Ni       9.01339795       3.73956791       4.35734592        2       1.00000000      -0.00733450       0.06054366      -0.21463706
Ni       2.59627057       5.90102152       4.35668816        2       1.00000000       0.08099294       0.00825685      -0.14845575
Ni       5.13026183       5.90112007       4.30188276        2       1.00000000      -0.07976104      -0.01829249      -0.17076018
Ni       7.77790322       5.88024458       4.32858366        2       1.00000000       0.05705886      -0.06138560      -0.22334721
Ni      10.28598445       5.90762585       4.40787900        2       1.00000000      -0.03774342      -0.00049193      -0.11976263
Pt       3.86308676       8.16314445       4.26776672        2       0.00000000      -0.00161601      -0.00535932       0.02728787
Pt       6.42563252       8.11449799       4.23053784        2       0.00000000      -0.01174247      -0.10277883       0.00043559
Pt       9.02350249       8.09414448       4.33566424        2       0.00000000      -0.01878603       0.00522133       0.11461603
Pt      11.62747728       8.14530240       4.34277775        2       0.00000000      -0.02935290      -0.03350834       0.02651548
Pt      -0.02574001       0.03605168       6.56736458        1       0.00000000      -0.05278806       0.03070955       0.16846262
Pt       2.57989104      -0.00053738       6.59614381        1       0.00000000      -0.01966985      -0.00379658       0.22092308
Pt       5.20132603      -0.09071129       6.58598649        1       0.00000000       0.05329291      -0.20815073       0.12364570
Ni       7.72728209      -0.00197609       6.52828427        1       1.00000000       0.03780543       0.07418507      -0.12701356
Ni       1.27992680       2.27505769       6.52336227        1       1.00000000       0.00124401       0.06739086      -0.09673520
Pt       3.81262869       2.27303608       6.45822119        1       0.00000000      -0.09106170      -0.01242880      -0.32173004
Pt       6.48732754       2.20365984       6.44438356        1       0.00000000       0.04453063      -0.01148477      -0.25522541
Pt       9.06817265       2.32296831       6.50063736        1       0.00000000       0.11192028       0.14675237       0.00233737
Ni       2.51300191       4.46073022       6.51508333        1       1.00000000      -0.14635481       0.04425433      -0.06806948
Pt       5.13410129       4.45922191       6.52087598        1       0.00000000      -0.05017212       0.02187392       0.07136626
Ni       7.79333493       4.47117650       6.42638350        1       1.00000000       0.08580170       0.05869080      -0.29883021
Ni      10.31374584       4.50510352       6.51635829        1       1.00000000      -0.02643763       0.18784684      -0.07974839
Pt       3.75108420       6.66005684       6.54074644        1       0.00000000      -0.15221007       0.02218834       0.16575923
Pt       6.51148734       6.61716475       6.44909819        1       0.00000000       0.03355969      -0.00817402      -0.28590650
Ni       9.06626637       6.59483934       6.50794750        1       1.00000000       0.05289111      -0.20462992      -0.19106184
Ni      11.56433337       6.61375768       6.51906219        1       1.00000000      -0.15209222      -0.24474369      -0.22596724
