64
Lattice="10.341031563347096 -0.020087791991416214 0.06395424589638243 5.153119243503046 8.858218105595146 0.025778261451259103 0.052218423110207315 -0.005844342666822181 8.812592493915533" Properties=species:S:1:pos:R:3:tags:I:1:initial_magmoms:R:1:forces:R:3 unique_id=9e35de929c2446b5886b2a845c07ec93 stress="0.00029711804454596313 5.444575919264014e-06 -2.7470149754750822e-05 5.444575919264014e-06 0.00030090310464675474 1.168484569782681e-05 -2.7470149754750822e-05 1.168484569782681e-05 0.00027737640950739606" energy=-398.5651384547799 pbc="T T T"
Ni       0.01461990       0.00404144       0.17833659        4       1.00000000       0.08899141       0.06435429       0.34345601
Ni       2.59110174       0.00491945       0.21756458        4       1.00000000       0.03213283       0.03513591       0.44995787
Ni       5.17011077      -0.03037488       0.18624320        4       1.00000000      -0.02484177       0.08751592       0.21342275
Ni       7.75842795      -0.07096945       0.23300771        4       1.00000000       0.00695342      -0.08624774       0.38892154
Ni       1.29888029       2.22197880       0.18846520        4       1.00000000       0.04692581       0.00614304       0.34331272
Pt       3.79413954       2.17215079       0.20647851        4       0.00000000      -0.03605493       0.03386138       0.15167144
Pt       6.46252540       2.12485909       0.14468101        4       0.00000000       0.07483245      -0.07227003      -0.02618378
Pt       9.14086383       2.20201217       0.17557093        4       0.00000000       0.16633056       0.00468785       0.09342721
Ni       2.53854192       4.45581249       0.07292251        4       1.00000000      -0.04173139       0.02853532       0.01759769
Pt       5.11623626       4.45756029       0.06430121        4       0.00000000      -0.03289712       0.03415830      -0.17351343
Pt       7.80267189       4.46496259       0.08136716        4       0.00000000       0.13604605       0.09194908      -0.15995983
Ni      10.39050108       4.44720417       0.12416913        4       1.00000000       0.14584103       0.09875350       0.03623440
Ni       3.81708703       6.68556585       0.10627266        4       1.00000000      -0.06149194       0.10581516       0.16356412
Pt       6.45886115       6.74372350       0.22839309        4       0.00000000       0.02019952       0.07587806       0.26045202
Ni       9.07971527       6.67037108       0.11981732        4       1.00000000       0.07186280       0.07193182       0.00164204
Ni      11.64302095       6.63305047       0.12761432        4       1.00000000       0.13562429      -0.00877950      -0.01375919
Ni       1.33649073       0.74370382       2.24066410        3       1.00000000       0.05407043       0.03648770       0.18086128
Ni       3.85657329       0.75135535       2.27592084        3       1.00000000      -0.07064209       0.13528187       0.15915037
Ni       6.46812630       0.75104534       2.28251111        3       1.00000000      -0.02552295       0.09052690       0.16867299
Pt       9.07463452       0.72205038       2.30333415        3       0.00000000       0.03191569       0.22986360      -0.05776306
Ni       2.56606769       2.90119806       2.28850477        3       1.00000000      -0.04661806      -0.10714259       0.22737324
Ni       5.17737869       2.90810072       2.29746225        3       1.00000000      -0.10395932      -0.08957865       0.02459617
Ni       7.74276277       2.92078645       2.30091433        3       1.00000000       0.04643157      -0.06333471      -0.08775396
Ni      10.38830950       2.90848795       2.32499755        3       1.00000000       0.06540689      -0.08509843       0.18701516
Pt       3.87857879       5.16121479       2.25968938        3       0.00000000      -0.03037813      -0.10474111      -0.19813612
Ni       6.47084243       5.15510086       2.27429318        3       1.00000000       0.01430268      -0.02779529      -0.10234682
Pt       9.01323963       5.12836424       2.34584064        3       0.00000000      -0.12045567      -0.07663876      -0.09393219
Pt      11.64026532       5.09910136       2.29258198        3       0.00000000      -0.03257892      -0.04012388       0.07039242
Ni       5.19078131       7.40410454       2.25830684        3       1.00000000       0.07105829       0.03960204       0.10065786
Ni       7.72491394       7.41514368       2.28695803        3       1.00000000      -0.10438436       0.04034155       0.12385380
Pt      10.33731837       7.41345891       2.19656091        3       0.00000000       0.00094411      -0.03326594      -0.07262227
Ni      12.93415327       7.36534599       2.25420048        3       1.00000000       0.01583966      -0.07424615       0.00291931
Ni       0.06608913       1.51797269       4.33623672        2       1.00000000       0.16105191       0.10908727      -0.08303065
Ni       2.58468374       1.50337275       4.33279831        2       1.00000000      -0.06517841       0.07906866      -0.10708790
Ni       5.18628699       1.48010173       4.35897855        2       1.00000000      -0.10260835      -0.06444475      -0.18555343
Ni       7.77389904       1.47937464       4.39793394        2       1.00000000       0.00874875      -0.08327325      -0.10562816
Ni       1.30980797       3.69984972       4.37524640        2       1.00000000      -0.01170578       0.00414243      -0.09920319
Ni       3.84931551       3.67464443       4.36844378        2       1.00000000      -0.15381433      -0.12392763      -0.19029404
Pt       6.51374324       3.62863159       4.39217346        2       0.00000000       0.01735924      -0.08620091      -0.15792979
Ni       9.10373436       3.69631901       4.41231039        2       1.00000000       0.16098947      -0.08157114      -0.12961552
Ni       2.56677839       5.85083934       4.44142947        2       1.00000000      -0.09729263      -0.10916575       0.01639839
Pt       5.18335908       5.87075249       4.38288371        2       0.00000000       0.17125081       0.02356716       0.06655444
Ni       7.80113849       5.87081940       4.42063875        2       1.00000000      -0.03360600      -0.02587855      -0.02288274
Ni      10.35471680       5.83433758       4.49804477        2       1.00000000       0.02101614      -0.04879714       0.02590050
Pt       3.91342351       8.11533228       4.36443351        2       0.00000000      -0.02743289      -0.02690088       0.18742494
Ni       6.48092431       8.14539412       4.35651237        2       1.00000000      -0.04700455       0.08578951      -0.08868516
Pt       8.99413339       8.09904300       4.37247890        2       0.00000000      -0.06614984       0.04637932       0.13879777
Pt      11.64345132       8.07918986       4.39154361        2       0.00000000      -0.00955096      -0.04961884       0.05906758
Pt       0.02843156      -0.03138304       6.56428624        1       0.00000000      -0.03880885       0.00182682       0.13522375
Pt       2.62310157      -0.02614426       6.58577723        1       0.00000000      -0.03419310       0.07837937       0.17408558
Pt       5.20871789      -0.06502827       6.61540817        1       0.00000000      -0.03678088      -0.13944108       0.04898091
Pt       7.77059608      -0.07070597       6.64845329        1       0.00000000      -0.08206902      -0.13737552       0.22907513
Pt       1.32084446       2.32338021       6.51237233        1       0.00000000      -0.02921258       0.21993251       0.08421649
Pt       3.95291644       2.29241969       6.45433866        1       0.00000000      -0.00593277       0.08549998      -0.18982013
Ni       6.49365328       2.22293449       6.49626440        1       1.00000000      -0.03055825      -0.02330591      -0.24289282
Pt       9.03122385       2.28357822       6.46510641        1       0.00000000      -0.05983283       0.04275400      -0.32915044
Ni       2.60241440       4.48861445       6.51846438        1       1.00000000      -0.02673890       0.13210305      -0.25016095
Ni       5.18561561       4.41539349       6.47698444        1       1.00000000      -0.04063875       0.01367584      -0.39186425
Ni       7.80013456       4.42055207       6.47436492        1       1.00000000       0.08587782       0.00981604      -0.42322636
Ni      10.37027106       4.47637294       6.56144659        1       1.00000000      -0.03256436       0.12763797      -0.23586295
Ni       3.85973163       6.56958321       6.55698924        1       1.00000000      -0.07265151      -0.15125301      -0.11618271
Pt       6.51792077       6.53516783       6.52226109        1       0.00000000       0.00053093      -0.06287329      -0.12138385
Ni       9.10455696       6.55138183       6.56999906        1       1.00000000       0.04251503      -0.14709391      -0.22784024
Ni      11.65198159       6.54021394       6.59636432        1       1.00000000      -0.05916737      -0.14009886      -0.19061193
