64
Lattice="9.862914016570796 0.004032363333385967 -0.028303283012553068 4.934949137369405 8.539644379174641 -0.018928385137709516 0.0 0.0 21.28137842784738" Properties=species:S:1:pos:R:3:tags:I:1:initial_magmoms:R:1:forces:R:3 unique_id=617ba5f3385b4b00baf900e9b414f6e7 stress="0.003926733482800367 2.8132062735024787e-05 -0.0002979749802297769 2.8132062735024787e-05 0.003902131679390547 6.081994164509393e-05 -0.0002979749802297769 6.081994164509393e-05 -0.0019654506151946995" energy=-356.36544467896795 pbc="T T T"
Ni       0.00033804       0.00172465       0.07872931        1       1.00000000       0.01077000      -0.01742037      -0.04111735
Ni       2.45598069      -0.00671195       0.06474267        1       1.00000000      -0.00148305      -0.00950644       0.08686041
Ni       4.92545546      -0.00673045       0.06058609        1       1.00000000      -0.01905797      -0.00180257       0.08770791
Ni       7.39485427      -0.00264137       0.05551277        1       1.00000000      -0.00685545      -0.02291614      -0.05426483
Ni       1.21954031       2.12997039       0.06169526        1       1.00000000      -0.01296376       0.00325646       0.07282578
Ni       3.66167079       2.11498507       0.03017653        0       1.00000000      -0.03862848      -0.05294679      -0.20129819
Ni       6.19619851       2.11430626       0.00000000        0       1.00000000       0.02587758      -0.00653070      -0.09267542
Ni       8.63602996       2.13821611       0.03596216        0       1.00000000       0.00348644       0.01521811       0.02150280
Ni       2.45589591       4.26940115       0.08362892        1       1.00000000      -0.01776598       0.03212459      -0.04945733
Ni       4.92807001       4.30510486       0.03005109        0       1.00000000       0.00266018       0.06848962      -0.18650118
Ni       7.40128089       4.27543940       0.04939675        0       1.00000000       0.00616582      -0.00170478       0.05813242
Ni       9.86012037       4.27249771       0.04319764        0       1.00000000      -0.02280929       0.00211642       0.09290684
Ni       3.69377457       6.41451720       0.19058489        2       1.00000000       0.01023186      -0.02122519      -0.84425508
Ni       6.17138413       6.41257200       0.04862396        0       1.00000000      -0.02376976       0.01575463       0.05762807
Ni       8.62846177       6.40461750       0.04672731        0       1.00000000      -0.00323338      -0.00147979       0.10176080
Ni      11.08647445       6.40492939       0.03734820        0       1.00000000       0.00133665       0.00558876       0.08279692
Ni       1.22461585       0.70851051       2.09426114        4       1.00000000       0.01169322      -0.00198857       0.02291067
Ni       3.66907137       0.66431081       2.09261657        4       1.00000000      -0.01020218      -0.03290437       0.04954801
Ni       6.18371898       0.66412208       2.08083919        4       1.00000000      -0.00442882      -0.02732838       0.03816927
Ni       8.63323238       0.74198724       2.02641382        3       1.00000000       0.01327022      -0.01740835       0.02371423
Ni       2.40178419       2.83255836       2.06688196        4       1.00000000      -0.00247163      -0.03562425       0.04607692
Pt       4.95954623       2.82582782       2.04083747        3       0.00000000      -0.03287999      -0.00257171      -0.06310456
Ni       7.45132439       2.85439747       2.07206054        4       1.00000000       0.03095480       0.01900559       0.00586719
Ni       9.85672241       2.85466542       2.06593496        4       1.00000000       0.00441401       0.02075934       0.00570276
Ni       3.67289768       5.01747495       2.08396983        4       1.00000000       0.00108889      -0.01877007       0.13058472
Ni       6.19599023       5.02114733       2.07423792        4       1.00000000       0.02641359       0.00985351       0.04490640
Ni       8.63373018       4.98644268       2.07436926        4       1.00000000       0.01060142       0.00645248       0.00745765
Ni      11.07349623       4.98510382       2.06163600        4       1.00000000      -0.03334649       0.00212424       0.04503675
Ni       4.96863741       7.12131935       2.05888020        4       1.00000000       0.06646613       0.02262639       0.06362375
Ni       7.40339734       7.11491649       2.07622557        4       1.00000000       0.03450481       0.00142916       0.03649702
Ni       9.85043638       7.10704572       2.06979472        4       1.00000000      -0.03799694      -0.01373669       0.02801573
Ni      12.28622908       7.11247095       2.03707817        3       1.00000000      -0.07130188      -0.01245225       0.07815379
Ni       0.00960280       1.47133527       4.14997552        5       1.00000000      -0.00383532      -0.00201395      -0.07046495
Ni       2.43217544       1.37798808       4.15090993        6       1.00000000      -0.01446729      -0.02522333      -0.04191271
Ni       4.93346547       1.36830944       4.16928581        6       1.00000000      -0.02084862      -0.01002276      -0.03738863
Ni       7.36895659       1.47427075       4.13116460        5       1.00000000       0.01604509      -0.00223768      -0.07587197
Ni       1.16217900       3.56021267       4.14965176        5       1.00000000      -0.01988420       0.02230738      -0.05208905
Pt       3.65681377       3.56141734       4.19224267        6       0.00000000       0.03269598       0.01284636       0.09830062
Ni       6.21482466       3.57098367       4.15943400        6       1.00000000      -0.00610584       0.03539454      -0.06008936
Ni       8.62282745       3.56985315       4.12814776        5       1.00000000       0.00745066       0.01707854      -0.06430491
Ni       2.37891279       5.69732745       4.12740755        5       1.00000000      -0.04111425       0.04734326      -0.02688048
Ni       4.99309692       5.69304584       4.11831540        5       1.00000000       0.03223079       0.04021253      -0.03816085
Ni       7.41357564       5.69400181       4.12902061        5       1.00000000       0.02770372       0.02306391      -0.03856895
Ni       9.83057445       5.69211769       4.12059567        5       1.00000000      -0.02371393       0.01490254      -0.04009455
Pt       3.69070999       7.86172136       4.09946079        5       0.00000000       0.00512794       0.04976918       0.05439626
Ni       6.20721631       7.82608115       4.13345658        5       1.00000000       0.00748366      -0.00379758      -0.04501325
Ni       8.62080015       7.81409700       4.13035787        5       1.00000000      -0.00542908      -0.01890181      -0.02514229
Ni      11.03636704       7.82474561       4.12435412        5       1.00000000      -0.00038147      -0.00860496      -0.02966741
Ni       0.03018395       0.05062389       6.21394119        7       1.00000000      -0.00097561      -0.06654382       0.04587521
Ni       2.46421441      -0.00364983       6.18683790        7       1.00000000       0.02755031      -0.00713843      -0.05236050
Ni       4.90716754      -0.00411457       6.18410234        7       1.00000000      -0.02164525      -0.00728631      -0.03939580
Ni       7.34156809       0.05448654       6.19180945        7       1.00000000       0.02196523      -0.08055539       0.03788891
Ni       1.21846058       2.13235935       6.18609437        7       1.00000000      -0.00317290      -0.00816213      -0.08001535
Ni       3.68682417       2.08930447       6.21000069        7       1.00000000      -0.02172216      -0.06431501       0.22406566
Ni       6.15508685       2.13506991       6.15769500        7       1.00000000       0.03478730      -0.02433659       0.06735817
Ni       8.61776914       2.14934533       6.15956881        7       1.00000000       0.01917467       0.01933341      -0.10282432
Ni       2.38489049       4.22930227       6.23180084        7       1.00000000       0.00928603       0.09055145       0.17811455
Ni       4.98764125       4.22822990       6.20296994        7       1.00000000      -0.00236443       0.11666261       0.28658690
Ni       7.40571374       4.26877821       6.16954106        7       1.00000000       0.05529045      -0.01092401      -0.09294375
Ni       9.83286870       4.26952871       6.15858847        7       1.00000000      -0.03923841      -0.01709256      -0.09075670
Pt       3.68968307       6.37254122       6.28137843        8       0.00000000      -0.00898379      -0.07027849       0.47464943
Ni       6.21618068       6.40450233       6.16561595        7       1.00000000      -0.06526402       0.00801676      -0.01741971
Ni       8.62038346       6.40431310       6.16124147        7       1.00000000       0.00170991       0.00065383      -0.10279428
Ni      11.02278840       6.40610593       6.15267418        7       1.00000000       0.07990419       0.00281665       0.00121116
