64
Lattice="10.129799718929286 -0.03681448777806879 0.08398404362834776 5.033017577821522 8.794557312123848 0.0853565097688398 0.06857268447503062 0.04088443132723559 8.699470747764837" Properties=species:S:1:pos:R:3:tags:I:1:initial_magmoms:R:1:forces:R:3 unique_id=042b3f98d45942878703bdf490ecca3f stress="-0.006232226008990267 3.322544464232859e-05 -5.205066578659039e-05 3.322544464232859e-05 -0.006251854776716505 -2.8183744695458972e-05 -5.205066578659039e-05 -2.8183744695458972e-05 -0.005545362019851452" energy=-391.6544340023877 pbc="T T T"
Ni       0.05374408       0.03237434       0.15100282        4       1.00000000       0.21269217       0.12809226       0.00712872
Ni       2.53062318      -0.04845113       0.24552836        4       1.00000000       0.05564345      -0.07233737       0.17930556
Ni       5.05467925      -0.07749566       0.12939312        4       1.00000000      -0.01451160      -0.05537492       0.00394629
Ni       7.61171158      -0.05731526       0.11538749        4       1.00000000       0.06898058      -0.01462139       0.00834113
Ni       1.21993980       2.22726508       0.13917851        4       1.00000000       0.01333285       0.12766450       0.05911786
Pt       3.73539505       2.19571451       0.24450467        4       0.00000000       0.02169725      -0.01674324      -0.05395631
Pt       6.39958970       2.22377130       0.10633115        4       0.00000000       0.09750130       0.11559957      -0.08881363
Ni       8.92327940       2.23144325       0.14499644        4       1.00000000       0.15271685       0.16438360      -0.04232598
Ni       2.48296783       4.43626743       0.15569288        4       1.00000000      -0.03307381       0.06760203       0.05663683
Ni       5.03273103       4.43279093       0.25070448        4       1.00000000      -0.04908437      -0.00226026       0.19534267
Ni       7.66492235       4.41760058       0.15502020        4       1.00000000       0.26049406       0.08639936      -0.05655037
Ni      10.13040494       4.37947693       0.21692314        4       1.00000000       0.07351898       0.07901780       0.04568737
Ni       3.77471052       6.56898983       0.11367814        4       1.00000000       0.03350974      -0.05385310      -0.04705951
Ni       6.35664564       6.58984229       0.12694000        4       1.00000000       0.17404438       0.00953457      -0.13658978
Ni       8.85671033       6.57260426       0.29758111        4       1.00000000       0.05795958      -0.01565315       0.13811852
Ni      11.34515348       6.54304487       0.18458908        4       1.00000000      -0.08164011      -0.02839880      -0.09494347
Ni       1.32787322       0.79159119       2.15647419        3       1.00000000       0.01218396       0.10411303       0.06885600
Ni       3.78117240       0.66973478       2.22779463        3       1.00000000      -0.01440043      -0.12397443       0.05035337
Pt       6.24763809       0.71100543       2.26400456        3       0.00000000       0.00947660      -0.00559825      -0.03817282
Pt       8.92602331       0.80548087       2.21088794        3       0.00000000      -0.00507001      -0.01351151      -0.01402913
Ni       2.49669661       2.99642826       2.22180563        3       1.00000000      -0.09546077       0.11064458       0.01527413
Ni       5.02304076       2.94329237       2.28760668        3       1.00000000      -0.05161579      -0.02952098       0.10203808
Ni       7.66430201       2.96361375       2.25403420        3       1.00000000       0.08838070       0.04337818      -0.00694741
Ni      10.15783056       2.97342654       2.26184410        3       1.00000000      -0.00781645       0.03767195       0.03660434
Ni       3.75953594       5.07258381       2.24812297        3       1.00000000      -0.04682408      -0.01390132       0.07508483
Pt       6.39993718       5.10740463       2.21588007        3       0.00000000       0.11133606      -0.01774232      -0.00452348
Ni       8.92113181       5.11720096       2.28890850        3       1.00000000       0.07720402      -0.05011392       0.06959310
Ni      11.34561141       5.07395440       2.26863655        3       1.00000000      -0.07370859       0.00499281      -0.04315615
Pt       5.09174731       7.30865296       2.18388981        3       0.00000000       0.00108296      -0.02579282      -0.03193704
Ni       7.66780372       7.32343530       2.27411720        3       1.00000000       0.03404114      -0.08758677       0.12614467
Ni      10.05465448       7.26261908       2.31271599        3       1.00000000       0.00157444      -0.05978803       0.03744836
Pt      12.57082613       7.20306713       2.28664753        3       0.00000000      -0.03190700      -0.02745967      -0.03015519
Ni       0.03465533       1.52430241       4.34045003        2       1.00000000       0.04141280      -0.02641354      -0.04002490
Pt       2.59011034       1.49811874       4.24958150        2       0.00000000      -0.00050987      -0.00687823      -0.01408193
Ni       5.08826706       1.43036683       4.37844075        2       1.00000000       0.00671046      -0.05478397      -0.01967926
Pt       7.64447485       1.47172698       4.45593440        2       0.00000000       0.02248891      -0.01530038      -0.07959735
Pt       1.24722738       3.75305585       4.34641210        2       0.00000000      -0.03947934      -0.02060980      -0.01555748
Ni       3.80976853       3.74107281       4.32331290        2       1.00000000      -0.05361370       0.07292218      -0.03496938
Pt       6.34379415       3.69514611       4.39401878        2       0.00000000      -0.06344191       0.02216043       0.00798911
Ni       8.89539187       3.70812431       4.41777450        2       1.00000000      -0.01650060       0.05402677      -0.08323631
Ni       2.51857963       5.85821433       4.40849626        2       1.00000000      -0.05885802      -0.02951928      -0.05501136
Ni       5.04255488       5.85061543       4.38738941        2       1.00000000      -0.03790414      -0.03854214      -0.09535180
Ni       7.67967560       5.84686169       4.40545523        2       1.00000000       0.13893133      -0.01446190      -0.04798684
Ni      10.14051318       5.88342673       4.39402202        2       1.00000000       0.00808133       0.01057511      -0.10569813
Pt       3.74018132       8.00656398       4.43412164        2       0.00000000      -0.00986433      -0.02226466      -0.06198206
Pt       6.39162311       8.00112198       4.38345454        2       0.00000000       0.01981093      -0.00421716       0.01444961
Ni       8.93620167       8.03567490       4.39785256        2       1.00000000       0.00363798      -0.04507249      -0.00776748
Ni      11.33127877       8.00700219       4.50160888        2       1.00000000      -0.02072265      -0.06868367      -0.06068961
Pt      -0.03929767       0.06235355       6.52229159        1       0.00000000      -0.15702961       0.01431616       0.08458125
Pt       2.60406314      -0.00541386       6.55492044        1       0.00000000      -0.03682146      -0.03232643       0.19543908
Ni       5.17411393      -0.01193851       6.45802282        1       1.00000000      -0.04567343      -0.04925088      -0.08040142
Ni       7.56558134      -0.02339102       6.53183070        1       1.00000000      -0.17637165      -0.06356968      -0.00677222
Ni       1.26080570       2.27529761       6.47918295        1       1.00000000      -0.05500891      -0.01427757      -0.00428463
Pt       3.85537755       2.25466486       6.42193407        1       0.00000000      -0.03828888       0.09419046       0.08247662
Ni       6.39225481       2.19012657       6.43852056        1       1.00000000      -0.08950250      -0.02592729      -0.02960959
Ni       8.89535534       2.25667814       6.53173981        1       1.00000000      -0.04994451       0.07680726      -0.07609929
Ni       2.51195858       4.47166285       6.48638090        1       1.00000000      -0.09148655       0.01783516      -0.00048220
Pt       5.08789950       4.51351628       6.57043850        1       0.00000000      -0.07136590       0.08861685       0.21154107
Ni       7.65733595       4.37118467       6.52559736        1       1.00000000      -0.01806298      -0.07190657      -0.07456918
Ni      10.16745296       4.36507281       6.56698259        1       1.00000000      -0.02172985      -0.06914127       0.03732671
Ni       3.75490168       6.60993269       6.51749580        1       1.00000000      -0.16662109      -0.00224936      -0.04417226
Ni       6.35278967       6.59984674       6.52190917        1       1.00000000       0.02558369       0.01588924      -0.17032129
Pt       8.94646280       6.52325804       6.56160199        1       0.00000000       0.02223949      -0.08329554       0.12859133
Ni      11.45504381       6.58962166       6.54490038        1       1.00000000      -0.02235308      -0.07350984      -0.13991035
