64
Lattice="10.38712526514073 0.01745047971511295 0.04144635675638224 5.2086751913118725 8.976429496033063 0.017098533343759957 0.033840808583496855 -0.0034173481109872595 8.84084766221485" Properties=species:S:1:pos:R:3:tags:I:1:initial_magmoms:R:1:forces:R:3 unique_id=21a14939af55434fa56a866905c6bd08 stress="0.00034470818689120997 5.0709854943525905e-06 -2.32821776970505e-05 5.0709854943525905e-06 0.00034462098177842626 5.0856689086389955e-06 -2.32821776970505e-05 5.0856689086389955e-06 0.0003274806146799647" energy=-401.13043648079974 pbc="T T T"
Ni      -0.01369215       0.02169566       0.19974843        4       1.00000000      -0.05647145       0.10368445       0.33261009
Ni       2.60112593       0.00708232       0.21534772        4       1.00000000       0.04262661      -0.00085729       0.40910796
Ni       5.20016478      -0.00339432       0.18259099        4       1.00000000       0.02286649       0.16074938       0.25133083
Ni       7.81630238      -0.01927213       0.14418352        4       1.00000000       0.10697080      -0.11218856       0.23994271
Ni       1.29288213       2.23231791       0.18135810        4       1.00000000      -0.00011045      -0.08948199       0.26879450
Pt       3.85540936       2.24320201       0.21157494        4       0.00000000      -0.00101196       0.02162688       0.13879581
Pt       6.53321643       2.19442685       0.22352710        4       0.00000000       0.09250851      -0.09545708       0.15370790
Ni       9.11578678       2.22455487       0.18314787        4       1.00000000       0.01093824      -0.18910623       0.09427579
Ni       2.59899895       4.49664256       0.15238132        4       1.00000000       0.02549831      -0.05193134       0.14719530
Ni       5.20208567       4.49417455       0.18037561        4       1.00000000       0.19078322      -0.09375842       0.23217254
Pt       7.87301745       4.50696424       0.13961732        4       0.00000000       0.16745068      -0.02122204      -0.09713018
Ni      10.41867265       4.51246246       0.10302466        4       1.00000000       0.11186585       0.01172131       0.01205987
Ni       3.88417372       6.76097033       0.18911585        4       1.00000000      -0.02201693       0.15157241       0.23502441
Pt       6.49300846       6.78818497       0.22792085        4       0.00000000      -0.01867150       0.04585257       0.10300642
Ni       9.12641157       6.75319698       0.11280041        4       1.00000000       0.01392981       0.03145887       0.03044520
Ni      11.71076925       6.75855384       0.10790350        4       1.00000000       0.12961415       0.08321051      -0.04015217
Ni       1.30244066       0.73240182       2.17581107        3       1.00000000      -0.06876854      -0.00880668      -0.10098848
Ni       3.90282153       0.75559205       2.23405755        3       1.00000000       0.08571168      -0.00124322       0.01453699
Ni       6.52610036       0.76052273       2.27684957        3       1.00000000       0.09574354       0.02328431       0.14681141
Ni       9.07625565       0.75054614       2.22830329        3       1.00000000      -0.15185626       0.01590006      -0.10014698
Ni       2.60765273       2.98339570       2.23126686        3       1.00000000      -0.08104338       0.10706976      -0.02922739
Ni       5.21069455       2.97652509       2.27940223        3       1.00000000      -0.04746542      -0.15144195       0.06706903
Ni       7.81072839       2.98233898       2.27247474        3       1.00000000       0.08141544      -0.11948724      -0.06539355
Pt      10.34497034       2.94653412       2.23857008        3       0.00000000      -0.09676423       0.01491607       0.04294770
Pt       3.93745824       5.22369515       2.19146058        3       0.00000000      -0.03756480      -0.04684502       0.04535080
Ni       6.54631289       5.23099487       2.25132886        3       1.00000000       0.16112932       0.01642041      -0.05483253
Ni       9.07520231       5.25169765       2.28771799        3       1.00000000      -0.04786310       0.01160962       0.16863454
Pt      11.68838247       5.27070473       2.21727179        3       0.00000000      -0.10234743       0.05080718      -0.02911177
Ni       5.19540366       7.52450164       2.21325298        3       1.00000000      -0.12789587       0.09170701      -0.09589819
Ni       7.81382475       7.48553781       2.24264869        3       1.00000000       0.05307624      -0.07982021      -0.00574939
Pt      10.38165554       7.51417202       2.17046457        3       0.00000000      -0.01174341      -0.03564099      -0.04497510
Ni      13.02165813       7.53027120       2.22943947        3       1.00000000      -0.03383499       0.05984415      -0.11178452
Ni      -0.01768014       1.51972261       4.36296731        2       1.00000000      -0.05647962       0.07838059      -0.10710460
Pt       2.63611969       1.53634179       4.26848811        2       0.00000000       0.01181605       0.05949116      -0.03374690
Ni       5.23531313       1.51005367       4.35279999        2       1.00000000       0.04333742      -0.02739635      -0.23635001
Ni       7.83105907       1.51741538       4.36691331        2       1.00000000       0.07042110       0.05891191      -0.28642281
Pt       1.26283365       3.79161916       4.37675330        2       0.00000000      -0.01778033       0.00059677       0.06307470
Ni       3.92494264       3.74251038       4.37092865        2       1.00000000       0.00270053      -0.00370185      -0.13212866
Pt       6.57822489       3.71307857       4.30431642        2       0.00000000      -0.01632891      -0.06437641       0.04266566
Ni       9.10530480       3.77579341       4.42101164        2       1.00000000      -0.00423288       0.07443513      -0.20939365
Ni       2.59953604       5.98224155       4.39451906        2       1.00000000      -0.03334229       0.03362090      -0.14500997
Pt       5.20999588       5.95768242       4.33615441        2       0.00000000       0.05511167       0.03647010       0.06588671
Ni       7.87803676       5.93993572       4.39389138        2       1.00000000       0.09280233      -0.10681038      -0.22848001
Ni      10.38491777       5.97188370       4.47090371        2       1.00000000      -0.06892613       0.00205206      -0.09822198
Pt       3.89904096       8.28687459       4.30417307        2       0.00000000       0.02533816       0.03848366      -0.08187823
Pt       6.51805752       8.24230891       4.28957483        2       0.00000000       0.00456825       0.03421743      -0.02329782
Pt       9.12705653       8.16923676       4.38856251        2       0.00000000      -0.06275216       0.00020479       0.06942561
Pt      11.73627597       8.23282249       4.40253287        2       0.00000000      -0.03536785      -0.00426546      -0.08091920
Pt      -0.02451385       0.00600542       6.61311250        1       0.00000000      -0.02655442       0.03017519       0.17465200
Pt       2.64517261      -0.03793084       6.64719798        1       0.00000000       0.00418888      -0.04197869       0.21750553
Pt       5.27002717      -0.09461995       6.64268117        1       0.00000000      -0.00152812      -0.20850862       0.13796459
Ni       7.80018450       0.00413602       6.59901964        1       1.00000000       0.00515740       0.05035966      -0.14911692
Pt       1.28527152       2.27610173       6.61556050        1       0.00000000      -0.00098576       0.03478205       0.12462555
Pt       3.93397386       2.24704868       6.50931357        1       0.00000000      -0.05570380      -0.05154495      -0.23638169
Pt       6.55814793       2.20970460       6.51682865        1       0.00000000      -0.01940815      -0.05203531      -0.22406767
Pt       9.09726586       2.32676485       6.56982284        1       0.00000000       0.00666013       0.12226968      -0.03777295
Pt       2.54427404       4.54949023       6.59315990        1       0.00000000      -0.13554217       0.04474502       0.06448715
Pt       5.24733293       4.48814585       6.61400156        1       0.00000000      -0.02552172       0.01989325       0.02500896
Ni       7.87619580       4.51347129       6.50393920        1       1.00000000       0.07536227       0.04076151      -0.30050203
Ni      10.36683957       4.56605820       6.58622242        1       1.00000000      -0.17303802       0.16408601      -0.19893762
Pt       3.83582301       6.77523075       6.62202094        1       0.00000000      -0.11308759       0.08000250       0.11358549
Pt       6.60865197       6.67993338       6.53814339        1       0.00000000       0.07587815      -0.02054956      -0.18524197
Ni       9.16668526       6.66446826       6.58333387        1       1.00000000       0.06652018      -0.19572382      -0.20665434
Ni      11.67582827       6.72209664       6.60002822        1       1.00000000      -0.17998178      -0.13119464      -0.25568248
