64
Lattice="10.277969968995986 -0.008814662946451385 -0.023273537583496127 5.131351262460569 8.844005369651944 -0.09288488935260511 0.0 0.0 21.611633785949124" Properties=species:S:1:pos:R:3:tags:I:1:initial_magmoms:R:1:forces:R:3 unique_id=9796747115884325a83e585c0206ea37 stress="0.005079178620210946 -2.1447738648452495e-05 -0.00022003359894179987 -2.1447738648452495e-05 0.004918589501819259 -0.0004826440532004679 -0.00022003359894179987 -0.0004826440532004679 -0.0021661775101346863" energy=-373.86122072224055 pbc="T T T"
Ni      -0.00292442       0.01052283       0.21187347        2       1.00000000       0.08771339       0.01488607      -0.32181403
Ni       2.56367309      -0.00543226       0.23117937        2       1.00000000      -0.01895404       0.02428308      -0.20651895
Ni       5.14036569      -0.02928481       0.17755476        2       1.00000000       0.03098788       0.15554720      -0.26456178
Ni       7.71387613      -0.05599775       0.09405837        1       1.00000000      -0.09218150      -0.05386902       0.22457516
Ni       1.24519476       2.20828832       0.19577013        2       1.00000000      -0.09861558       0.04113553       0.01878068
Pt       3.79334829       2.20151664       0.10925590        1       0.00000000       0.00442117      -0.02735864      -0.05916288
Pt       6.47392474       2.18945512       0.18630829        2       0.00000000       0.04498578      -0.06432414      -0.55209646
Ni       9.02225166       2.21948134       0.14179470        1       1.00000000       0.04757897       0.12736459      -0.04168041
Ni       2.53299207       4.43135913       0.03383898        0       1.00000000      -0.13660207      -0.05422487       0.13755694
Ni       5.12374263       4.41236908       0.12221290        1       1.00000000       0.01586928      -0.11763652      -0.53824226
Ni       7.76147179       4.40852789       0.05030737        1       1.00000000       0.18137413      -0.06213215       0.15983407
Ni      10.25890186       4.39762355       0.04187102        0       1.00000000      -0.07339332      -0.08098761       0.31163356
Ni       3.81157818       6.64535876       0.03614444        0       1.00000000      -0.02184226       0.07550884       0.21087790
Pt       6.41704870       6.66005998       0.01057621        0       0.00000000      -0.01891380       0.16461804      -0.32223771
Ni       8.99570966       6.60230261       0.10324388        1       1.00000000      -0.09850396      -0.13872808      -0.21089884
Ni      11.57390862       6.61975381       0.00000000        0       1.00000000       0.03508052      -0.05455520       0.24055445
Ni       1.28657987       0.73727813       2.18338387        4       1.00000000      -0.01737150       0.05793640       0.05038661
Ni       3.84563505       0.73356802       2.21149954        4       1.00000000       0.05657176       0.02184257       0.19410539
Ni       6.41453784       0.71932491       2.25470186        5       1.00000000       0.01931754       0.04602340       0.30109276
Pt       8.98185275       0.74405825       2.18223506        4       0.00000000      -0.06968922       0.00483040       0.08520873
Ni       2.53608783       2.90259688       2.20365029        4       1.00000000      -0.06341423      -0.00955304       0.08998015
Ni       5.11143227       2.87737200       2.23400969        4       1.00000000      -0.13635247      -0.15793687       0.28890274
Ni       7.76066818       2.92880966       2.20995410        4       1.00000000       0.22334540       0.06862069       0.16879357
Ni      10.26297320       2.91551914       2.18876777        4       1.00000000      -0.00031130      -0.04194164       0.21362691
Pt       3.82006195       5.12697461       2.13717214        3       0.00000000      -0.03903513      -0.06213872      -0.05860753
Pt       6.49756997       5.12446620       2.14957431        3       0.00000000       0.04746250      -0.03521422       0.00311025
Ni       8.99234748       5.09927480       2.16760878        4       1.00000000       0.07907770      -0.10883482       0.14523965
Pt      11.50659065       5.07395899       2.16864160        4       0.00000000      -0.00763647      -0.08510250       0.06516599
Ni       5.11969758       7.37339458       2.12069770        3       1.00000000      -0.05944061      -0.02556431       0.02392720
Ni       7.70511124       7.37642375       2.12339050        3       1.00000000       0.06548343       0.06223085       0.08683258
Pt      10.28728607       7.36793988       2.08513639        3       0.00000000       0.05610118      -0.04364670       0.06153177
Ni      12.82742890       7.35973318       2.10316736        3       1.00000000      -0.01434197       0.02717625      -0.04993959
Ni      -0.02642681       1.49716603       4.34817348        7       1.00000000       0.01169329       0.16941282      -0.18632444
Pt       2.57446652       1.53246307       4.27945422        7       0.00000000      -0.02697001       0.05668354      -0.01549452
Ni       5.14675599       1.42796053       4.31313964        7       1.00000000       0.03119222      -0.02346670      -0.32269330
Ni       7.69219931       1.42148158       4.32300955        7       1.00000000      -0.01897485       0.00869269      -0.18397997
Ni       1.24530631       3.69738927       4.35331437        8       1.00000000      -0.07914133       0.01002594      -0.08631647
Ni       3.81176648       3.65556846       4.34774859        7       1.00000000      -0.02417272       0.05780113      -0.17240598
Pt       6.46919657       3.59907560       4.27571208        7       0.00000000       0.08595797      -0.03759778       0.02681273
Ni       9.02677920       3.66383381       4.31177377        7       1.00000000       0.15957662       0.05365848      -0.18535065
Ni       2.49066003       5.83135449       4.38089222        8       1.00000000      -0.13884232      -0.09340207      -0.04779681
Pt       5.07407942       5.84544316       4.34201275        7       0.00000000      -0.04749285       0.02518707      -0.03787591
Ni       7.74387452       5.81021529       4.31670122        7       1.00000000       0.15118221      -0.06529250      -0.18154016
Ni      10.29308446       5.80120194       4.33127159        7       1.00000000       0.01061789      -0.01963538      -0.07655429
Pt       3.72204407       8.08123988       4.28813787        7       0.00000000      -0.06385841       0.02136275       0.02586548
Pt       6.40210455       8.08181159       4.21232956        6       0.00000000      -0.05507971       0.16186499      -0.15660599
Pt       9.03024701       8.03462462       4.23383356        6       0.00000000       0.00007369      -0.00332953      -0.04429320
Ni      11.55177095       8.05412931       4.28690225        7       1.00000000      -0.14385819      -0.02046095      -0.15345666
Pt      -0.06860221      -0.11176762       6.61163379       11       0.00000000       0.09189491       0.19114125       0.25180473
Pt       2.57067922      -0.05461341       6.61086135       11       0.00000000       0.06304089      -0.04641492       0.37047175
Pt       5.20163401      -0.10464997       6.55627712       11       0.00000000       0.01186618      -0.11251004       0.29705480
Ni       7.68685694      -0.10623559       6.52583875       10       1.00000000      -0.00993501       0.04715540      -0.03538887
Pt       1.30137798       2.27443350       6.54167055       10       0.00000000      -0.07492590      -0.09796418       0.01833716
Ni       3.84379420       2.18898834       6.43312571        9       1.00000000       0.08917558       0.01215575       0.10348439
Pt       6.40909710       2.14763300       6.45070216       10       0.00000000      -0.06797707      -0.03405487       0.70283346
Pt       8.97802183       2.21906788       6.47716823       10       0.00000000       0.09159512       0.02056053      -0.00876524
Ni       2.53243986       4.43008008       6.46418676       10       1.00000000       0.00598664       0.10481970      -0.25838803
Pt       5.05714421       4.40096818       6.54111176       10       0.00000000      -0.12948558      -0.08035016       0.40795221
Ni       7.68975735       4.37925220       6.47393307       10       1.00000000      -0.11887423      -0.01996385      -0.10568541
Ni      10.29624864       4.39503913       6.44759068        9       1.00000000       0.13754850       0.01487342      -0.27681302
Ni       3.76374031       6.57127174       6.47938313       10       1.00000000      -0.10382512      -0.02181659      -0.13984024
Ni       6.40862301       6.55204839       6.38799062        9       1.00000000       0.11469444       0.01276719       0.28437766
Pt       8.99737037       6.45691660       6.47610840       10       0.00000000       0.02848211       0.07981871       0.06816000
Ni      11.59603262       6.53217501       6.42821454        9       1.00000000      -0.00993618      -0.03997666      -0.33754188
