64
Lattice="10.317844213181926 0.009346904890674607 -0.003993181079326239 5.167016763673045 8.90905014320837 -0.00854500440868155 -0.003260418698295158 -0.006173903803731966 8.809105337124667" Properties=species:S:1:pos:R:3:tags:I:1:initial_magmoms:R:1:forces:R:3 unique_id=74babfc3f2a14d3f9dc37184914c0901 stress="0.00027268282555336504 5.644792487159685e-07 -1.1203558434746867e-05 5.644792487159685e-07 0.0002727311207604624 9.297702662062401e-07 -1.1203558434746867e-05 9.297702662062401e-07 0.0002643021015709471" energy=-398.0212385901022 pbc="T T T"
Ni       0.00376604       0.02340290       0.18096280        4       1.00000000       0.03092537       0.04761723       0.23794291
Ni       2.54762576       0.01347790       0.20712956        4       1.00000000      -0.05043205       0.07768025       0.39282126
Pt       5.15409976      -0.02626340       0.13924670        4       0.00000000      -0.03245075      -0.05564517       0.33368077
Ni       7.76871962      -0.03026428       0.17801526        4       1.00000000       0.02062443      -0.12773804       0.31582001
Ni       1.25415116       2.23379490       0.10686269        4       1.00000000      -0.13452788       0.04632678       0.21495568
Pt       3.79221732       2.28502182       0.19172895        4       0.00000000      -0.07127123       0.11547061       0.15114629
Pt       6.49539637       2.23082380       0.11567790        4       0.00000000       0.10116915       0.07285361      -0.02849369
Ni       9.07782099       2.23308603       0.14121699        4       1.00000000       0.13359178       0.06718164       0.13238432
Ni       2.57210425       4.48177043       0.07424013        4       1.00000000       0.05370664       0.09489021       0.01126086
Ni       5.13299290       4.48278982       0.18368393        4       1.00000000      -0.01889651       0.07108608       0.36169440
Pt       7.82102207       4.47642701       0.10056183        4       0.00000000       0.10713454       0.01324024      -0.10045339
Ni      10.35497244       4.45295130       0.06965515        4       1.00000000       0.12929435      -0.05960196       0.14172917
Ni       3.84372796       6.67691757       0.18789994        4       1.00000000      -0.05551137      -0.05431740       0.30124459
Pt       6.42389294       6.72472814       0.18772071        4       0.00000000      -0.07720681       0.01134202       0.08369064
Ni       9.04821299       6.67097703       0.07503524        4       1.00000000       0.02142766      -0.01447197       0.10936443
Ni      11.64152140       6.65488665       0.06705344        4       1.00000000       0.09730697      -0.06758882       0.07655827
Ni       1.29726667       0.76506505       2.16725908        3       1.00000000      -0.04663037       0.13450555      -0.10120430
Ni       3.84882543       0.76779786       2.22706765        3       1.00000000       0.07480489       0.02895863       0.00679812
Ni       6.45299049       0.78794437       2.24551044        3       1.00000000      -0.04786969       0.13220329       0.08774538
Pt       9.04036277       0.79057483       2.18508763        3       0.00000000      -0.00610016       0.10160713       0.16071748
Ni       2.57087177       2.97667659       2.23150020        3       1.00000000       0.01307625       0.07547925      -0.03192641
Ni       5.15199366       2.99137518       2.24575920        3       1.00000000      -0.10063175       0.01369755       0.03273870
Ni       7.75857472       2.99313132       2.24262936        3       1.00000000       0.12527544       0.07776728      -0.00831898
Ni      10.32146728       2.97310180       2.20892325        3       1.00000000       0.03550141       0.04726987       0.08157630
Ni       3.90669816       5.18937548       2.21943239        3       1.00000000       0.09506400      -0.05735142       0.11830071
Ni       6.43745873       5.19406550       2.23902450        3       1.00000000      -0.01095539       0.06691530      -0.01038221
Ni       9.00689914       5.16814878       2.23174497        3       1.00000000      -0.04433825      -0.19134167       0.15567239
Pt      11.66689617       5.13161340       2.17448325        3       0.00000000       0.10380486      -0.11994854       0.05833425
Ni       5.13932635       7.38982311       2.20033722        3       1.00000000      -0.14506268      -0.14795830      -0.05592244
Ni       7.73477708       7.41661707       2.19454924        3       1.00000000       0.00243736      -0.13774481      -0.08880625
Pt      10.30157629       7.36801513       2.18145073        3       0.00000000      -0.00898694      -0.11805667      -0.28445322
Ni      12.93184348       7.40337204       2.15787607        3       1.00000000       0.01078525      -0.12801654      -0.02026325
Ni      -0.01418253       1.55014904       4.35444533        2       1.00000000      -0.05524135       0.13344702      -0.11233134
Pt       2.53685451       1.58065776       4.26556363        2       0.00000000       0.00503426       0.00731509       0.04115814
Ni       5.17645986       1.52531549       4.33150054        2       1.00000000      -0.06694646       0.06036614      -0.18675186
Ni       7.74623652       1.52631323       4.34761636        2       1.00000000       0.06303128       0.00811610      -0.12617171
Ni       1.28764848       3.70315658       4.39892771        2       1.00000000      -0.03283398      -0.03601526      -0.04829894
Ni       3.85842792       3.76348023       4.31909743        2       1.00000000      -0.00731523       0.08089177      -0.19882414
Pt       6.47391853       3.70579952       4.29306874        2       0.00000000      -0.05215721       0.01306643      -0.01169907
Ni       9.03650938       3.69334732       4.33602532        2       1.00000000       0.02746580      -0.11404158      -0.32764606
Ni       2.59843379       5.86528125       4.36273558        2       1.00000000       0.03552076      -0.14304540      -0.13886211
Ni       5.14287324       5.89210702       4.31105434        2       1.00000000      -0.03220671      -0.10262627      -0.17168502
Ni       7.75055571       5.88640332       4.33059102        2       1.00000000      -0.00006326      -0.08008124      -0.26072138
Pt      10.31667028       5.83092954       4.43205360        2       0.00000000       0.00046629      -0.03689578      -0.03250856
Pt       3.88006927       8.13424742       4.29816356        2       0.00000000      -0.03659036      -0.12554297       0.13937937
Pt       6.43283014       8.13656981       4.23192635        2       0.00000000      -0.06431050      -0.03195582      -0.04138816
Pt       9.00105005       8.15482244       4.31314203        2       0.00000000      -0.02123724       0.02970584       0.05022479
Pt      11.64814606       8.17918636       4.28801327        2       0.00000000       0.01175433       0.00316640       0.02628895
Pt       0.00907772       0.04902317       6.58513997        1       0.00000000       0.01398357       0.05690677       0.07902349
Pt       2.57898021       0.00735845       6.60989326        1       0.00000000      -0.05186679       0.00714788       0.21577206
Pt       5.16335343      -0.02991998       6.48249099        1       0.00000000       0.06111008      -0.05104944      -0.37624212
Pt       7.71712029       0.03717410       6.59127462        1       0.00000000      -0.03405859       0.08073658       0.11951450
Ni       1.27439798       2.29660603       6.52125918        1       1.00000000      -0.05792065       0.17342312      -0.16486536
Pt       3.83211542       2.27944422       6.46572837        1       0.00000000      -0.11727024       0.07749327      -0.26420370
Ni       6.46665487       2.24644391       6.44531931        1       1.00000000       0.01711114       0.02959096      -0.28082400
Pt       9.04043578       2.35093487       6.50551842        1       0.00000000       0.04304879       0.12593117       0.02852856
Ni       2.50567523       4.44646426       6.50675713        1       1.00000000      -0.19105944      -0.01736864      -0.25466552
Pt       5.18099435       4.41968381       6.53656573        1       0.00000000       0.07134110      -0.05482879       0.10888113
Ni       7.78416145       4.46349775       6.44143808        1       1.00000000       0.11915132       0.11050227      -0.32291435
Ni      10.34763351       4.47071838       6.53443061        1       1.00000000       0.10637258       0.02113451      -0.00595366
Pt       3.78894767       6.61165020       6.55114546        1       0.00000000      -0.10114907      -0.06039636       0.16687950
Pt       6.51726894       6.62181860       6.46211655        1       0.00000000       0.03982199       0.05189488      -0.27673037
Ni       9.06411970       6.61466902       6.53345052        1       1.00000000       0.05320839      -0.15791207      -0.10593125
Ni      11.58297051       6.62499781       6.53765224        1       1.00000000      -0.05125316      -0.07538776      -0.10238461
