64
Lattice="10.309707557896157 -0.008963097453225452 0.016543745989580874 5.147091508856987 8.862505091858804 -0.014597978545085913 0.013507912036229624 -0.021561902811434882 8.792068081195362" Properties=species:S:1:pos:R:3:tags:I:1:initial_magmoms:R:1:forces:R:3 unique_id=10a3851cb57c4db0b29b5d746db8e5ff stress="0.00020740246376809574 5.742533870112337e-06 -1.364556750726711e-05 5.742533870112337e-06 0.00021176161311894232 2.1150202228783028e-05 -1.364556750726711e-05 2.1150202228783028e-05 0.00020650308454283478" energy=-397.2441772227519 pbc="T T T"
Ni      -0.00113614       0.01810858       0.18362566        4       1.00000000       0.05171539       0.06472560       0.28820587
Ni       2.57870550       0.00259842       0.21727149        4       1.00000000       0.01841934       0.00798487       0.38958814
Ni       5.15410449      -0.02044610       0.17592045        4       1.00000000      -0.02836934       0.12435989       0.29898037
Ni       7.74619826      -0.05441717       0.10007134        4       1.00000000       0.02628716      -0.14752237       0.13500974
Ni       1.25685471       2.21917011       0.18726193        4       1.00000000      -0.13567363       0.01142022       0.30354569
Pt       3.80341966       2.21611661       0.11303125        4       0.00000000      -0.06423737       0.04070010      -0.13736621
Pt       6.47087878       2.15479581       0.19744429        4       0.00000000       0.10404119      -0.09970704       0.22984019
Ni       9.06160143       2.20665291       0.15685763        4       1.00000000       0.13907506       0.03623706       0.10906665
Ni       2.55307853       4.44903195       0.05209910        4       1.00000000      -0.09045625       0.01158832      -0.05680555
Ni       5.14597889       4.43403492       0.15724414        4       1.00000000       0.18979555      -0.09191412       0.23316997
Pt       7.80973765       4.43688484       0.10646681        4       0.00000000       0.15608564       0.00183122      -0.11370950
Ni      10.33644784       4.41931914       0.07907636        4       1.00000000       0.11581747      -0.05790926       0.03310520
Ni       3.82357958       6.66701656       0.07376673        4       1.00000000      -0.07499563       0.07954618       0.08355762
Pt       6.41605891       6.69319133       0.18849257        4       0.00000000      -0.05725107       0.01800312       0.17225594
Ni       9.04206671       6.65548635       0.07182878        4       1.00000000       0.00925558       0.01495076      -0.02488913
Ni      11.61239515       6.64152728       0.05764858        4       1.00000000       0.09003318      -0.03471383      -0.03698084
Ni       1.30197447       0.75507238       2.16459002        3       1.00000000      -0.02523311       0.10813066      -0.01379521
Ni       3.86107458       0.74912353       2.20821448        3       1.00000000       0.05076816       0.03175027       0.05905451
Ni       6.44116212       0.73314224       2.25434973        3       1.00000000      -0.00013047       0.04240537       0.16729075
Pt       9.02257684       0.76400839       2.19368348        3       0.00000000      -0.07466902       0.07268549       0.07755857
Ni       2.55652673       2.92841239       2.20374093        3       1.00000000      -0.08934783       0.04861741      -0.03910033
Ni       5.14800428       2.91872209       2.24250880        3       1.00000000      -0.09748075      -0.13028598       0.04338348
Ni       7.76508574       2.96092396       2.24291649        3       1.00000000       0.18991039       0.05496060      -0.05567860
Ni      10.30525920       2.93675238       2.22676344        3       1.00000000      -0.03105503       0.01069471       0.12720528
Pt       3.86819904       5.14570629       2.15073618        3       0.00000000      -0.08325361      -0.03725918      -0.03928004
Ni       6.47957723       5.15118956       2.21643545        3       1.00000000       0.10692805       0.03064503      -0.05543533
Ni       9.00000187       5.13774366       2.25401745        3       1.00000000      -0.02514389      -0.05768742       0.17779446
Pt      11.56010608       5.09853067       2.21901434        3       0.00000000      -0.07514825      -0.03953746       0.03245527
Ni       5.13861767       7.39877775       2.18568946        3       1.00000000      -0.13776576       0.00880060      -0.05111024
Ni       7.73358900       7.37522066       2.19741414        3       1.00000000       0.03028246      -0.08859731      -0.00277842
Pt      10.28620065       7.37807886       2.12066764        3       0.00000000       0.00063876      -0.12772043      -0.02289776
Ni      12.88870834       7.37960503       2.16561216        3       1.00000000      -0.03172243      -0.03441456      -0.08813970
Ni      -0.00700252       1.53759153       4.33244923        2       1.00000000       0.03910950       0.21241598      -0.09171852
Pt       2.59929972       1.56777704       4.27893945        2       0.00000000      -0.08211224       0.06346767       0.00413259
Ni       5.15755528       1.47972061       4.32876548        2       1.00000000       0.01482873      -0.02158651      -0.16718558
Ni       7.75771653       1.47669080       4.33939864        2       1.00000000       0.04398618       0.04602936      -0.10930304
Ni       1.26362665       3.73175860       4.36179165        2       1.00000000      -0.08265995       0.04181827      -0.05214387
Ni       3.84021455       3.68440086       4.36012915        2       1.00000000      -0.03971174       0.06353749      -0.16429555
Pt       6.50549210       3.65136219       4.26478942        2       0.00000000       0.00563869      -0.09128023       0.08629079
Ni       9.06804035       3.70174560       4.34653179        2       1.00000000       0.15850402       0.02047979      -0.22042933
Ni       2.53460299       5.84330802       4.40435566        2       1.00000000      -0.09734136      -0.10081099      -0.05183595
Pt       5.12125653       5.85993962       4.31241849        2       0.00000000       0.08492541      -0.01944879       0.04756761
Ni       7.79844807       5.84014205       4.33857244        2       1.00000000       0.10522075      -0.08856868      -0.19149288
Ni      10.30687074       5.82431082       4.41134351        2       1.00000000      -0.00351060      -0.06509468      -0.06135227
Pt       3.83056631       8.12688097       4.33868217        2       0.00000000      -0.00819934      -0.00105816       0.04317381
Pt       6.44133650       8.14195922       4.24003935        2       0.00000000      -0.04674540       0.06287844       0.04004313
Pt       9.02635220       8.05268149       4.32330263        2       0.00000000      -0.05496450       0.00227823       0.10686830
Pt      11.61095659       8.08649464       4.34826123        2       0.00000000      -0.03238552      -0.06856441      -0.03716669
Pt      -0.04963333      -0.03741048       6.59318993        1       0.00000000      -0.03661787       0.00230081       0.16924750
Pt       2.61488327      -0.00440278       6.60716597        1       0.00000000       0.01130346       0.08195807       0.23675536
Pt       5.20667911      -0.09687722       6.60103210        1       0.00000000       0.03650021      -0.28233407       0.16687735
Ni       7.73426185      -0.06627645       6.55122603        1       1.00000000       0.01244047      -0.07893041      -0.10128529
Pt       1.32146047       2.32484966       6.54212348        1       0.00000000       0.06062905       0.20047143       0.18724282
Ni       3.86889571       2.21663683       6.44519732        1       1.00000000       0.00453086      -0.06729909      -0.29896206
Pt       6.44721509       2.17334321       6.46024760        1       0.00000000      -0.02901404      -0.00035833      -0.23446631
Pt       9.02345745       2.26638368       6.50304741        1       0.00000000       0.03148607       0.12354230      -0.03376379
Ni       2.55022763       4.47307641       6.48963609        1       1.00000000      -0.15879209       0.20895615      -0.24718856
Pt       5.05188738       4.39476686       6.55775253        1       0.00000000      -0.18808119       0.05781283       0.07911493
Ni       7.78391673       4.43217173       6.43749839        1       1.00000000       0.07153800       0.01831026      -0.31028191
Ni      10.31815678       4.48110141       6.49432535        1       1.00000000       0.01206657       0.18474672      -0.20920312
Ni       3.79102181       6.61786233       6.51902907        1       1.00000000      -0.18861234       0.00895681      -0.13414282
Pt       6.50056528       6.56692330       6.47577370        1       0.00000000       0.07228755      -0.06462205      -0.26084922
Ni       9.06980437       6.55428722       6.50840187        1       1.00000000       0.10172123      -0.15837580      -0.21739273
Ni      11.62096757       6.56426142       6.51806202        1       1.00000000       0.02491151      -0.16439689      -0.19595552
