64
Lattice="10.318904866450277 -0.01253226071076687 -0.008721534681877816 5.148599177082767 8.892611244201404 -0.010498200938682851 -0.007121103248195778 -0.005786427888062569 8.810340552221959" Properties=species:S:1:pos:R:3:tags:I:1:initial_magmoms:R:1:forces:R:3 unique_id=ec1625ead73d407f97f91aee861b9a99 stress="0.0002295616687284438 3.6680912123490813e-06 -1.6068770558232553e-05 3.6680912123490813e-06 0.0002281766400322599 2.8928564583843837e-06 -1.6068770558232553e-05 2.8928564583843837e-06 0.00022227622873708525" energy=-398.1340748309439 pbc="T T T"
Ni      -0.01844468       0.02353860       0.20333298        4       1.00000000      -0.08496265       0.07737381       0.30297630
Ni       2.57784212       0.00117809       0.20438154        4       1.00000000       0.00626274      -0.00788503       0.38970442
Ni       5.15601479      -0.02642580       0.15931163        4       1.00000000      -0.07186083       0.09607274       0.25285947
Ni       7.76379611      -0.05365957       0.10494385        4       1.00000000       0.06842770      -0.14112734       0.20197735
Ni       1.27167677       2.21409605       0.07843608        4       1.00000000      -0.07016097      -0.07788658       0.07585361
Pt       3.79209965       2.22676323       0.10628665        4       0.00000000      -0.11089783       0.03684641      -0.13075421
Pt       6.44328464       2.14156995       0.14041337        4       0.00000000       0.00906446      -0.05926903       0.24100686
Ni       9.05511200       2.17318014       0.12729723        4       1.00000000      -0.01069116      -0.17508842       0.11811251
Ni       2.57516008       4.46466312       0.07086461        4       1.00000000       0.06902189       0.07393851       0.07105900
Ni       5.11982808       4.45836323       0.18461928        4       1.00000000      -0.00842796      -0.00355623       0.35891694
Pt       7.80443179       4.46870793       0.05556512        4       0.00000000       0.10305894      -0.02224051      -0.13043967
Ni      10.35118617       4.44731095       0.04330030        4       1.00000000       0.14007938       0.03750645       0.04412893
Ni       3.82910422       6.67526688       0.19143787        4       1.00000000      -0.07204677      -0.00486646       0.29401613
Pt       6.41160264       6.72086770       0.19000987        4       0.00000000      -0.08510796       0.05877399       0.10372255
Ni       9.04715469       6.68085358       0.06161123        4       1.00000000      -0.00723927       0.05496276       0.00029383
Ni      11.62175576       6.66760434       0.04667571        4       1.00000000       0.12351879       0.06832131      -0.04370347
Ni       1.29501590       0.72071453       2.16433316        3       1.00000000       0.04824808      -0.01176154      -0.07885512
Ni       3.85897238       0.75569841       2.20204939        3       1.00000000       0.05772800       0.05420499       0.05781428
Ni       6.45270391       0.71073918       2.23051747        3       1.00000000       0.04242033      -0.00740573       0.11326352
Ni       9.02440774       0.68772708       2.17074133        3       1.00000000      -0.03629172      -0.02260847      -0.06529731
Ni       2.60559754       2.96169456       2.20968051        3       1.00000000       0.06929831       0.09364488       0.01154086
Ni       5.10442394       2.96426953       2.23229655        3       1.00000000      -0.08769516      -0.04648218       0.05676417
Pt       7.74882126       2.92576864       2.25682212        3       0.00000000       0.04344628      -0.05560169      -0.17066244
Pt      10.35190387       2.89343591       2.17458020        3       0.00000000       0.13754190       0.00076063       0.00938872
Ni       3.87532685       5.17695489       2.17108048        3       1.00000000      -0.00864534      -0.07048336      -0.08338085
Ni       6.43109832       5.18886844       2.20740865        3       1.00000000       0.08276151      -0.01078789      -0.05935763
Ni       9.00711463       5.20372998       2.23879887        3       1.00000000       0.02597829      -0.01415292       0.13263686
Pt      11.66695638       5.19188846       2.15695569        3       0.00000000       0.06641246       0.01334724      -0.00615625
Ni       5.11011742       7.42505881       2.17818132        3       1.00000000      -0.12683438       0.02766256      -0.09462600
Ni       7.72946911       7.40638449       2.19780349        3       1.00000000       0.02230398      -0.08938195      -0.01339170
Pt      10.28831818       7.41438054       2.11607898        3       0.00000000       0.01821405      -0.10831619       0.01276471
Ni      12.92136922       7.41736602       2.15217124        3       1.00000000      -0.01831172       0.02575873      -0.05124583
Ni      -0.02223474       1.51696532       4.36150494        2       1.00000000       0.01018643       0.09210337      -0.07671308
Pt       2.61040320       1.54273872       4.31685393        2       0.00000000      -0.02788550      -0.01262601      -0.11290032
Ni       5.15131033       1.48803139       4.32955094        2       1.00000000       0.04119133      -0.02795768      -0.21557413
Ni       7.75656236       1.47554852       4.35078933        2       1.00000000       0.05085791       0.03735426      -0.06457210
Pt       1.25795024       3.76071665       4.45272690        2       0.00000000      -0.00166589       0.01436131      -0.03289670
Ni       3.85328044       3.69845623       4.34679190        2       1.00000000      -0.03474538       0.04836039      -0.20433641
Pt       6.45370671       3.69119662       4.32445158        2       0.00000000      -0.11623317      -0.01726294       0.08358323
Ni       9.03349062       3.72851510       4.37895823        2       1.00000000       0.04493182       0.10675928      -0.15682413
Ni       2.54592990       5.90690368       4.37555721        2       1.00000000      -0.03545674       0.04360982      -0.09013657
Pt       5.09256402       5.88539701       4.25132662        2       0.00000000      -0.09788484       0.07114758       0.01571069
Ni       7.79011375       5.87346290       4.33929986        2       1.00000000       0.04414808      -0.06692439      -0.21281989
Ni      10.28546567       5.88859624       4.40464294        2       1.00000000      -0.04248519       0.01642340      -0.10119074
Pt       3.83293562       8.20503928       4.28107173        2       0.00000000      -0.01108299       0.07475900       0.01008861
Pt       6.43184206       8.16155956       4.24540700        2       0.00000000      -0.00961375       0.00014449       0.00916987
Pt       9.01944851       8.08694875       4.32776182        2       0.00000000      -0.04501754       0.01076005       0.08708596
Pt      11.61363185       8.13000507       4.34348594        2       0.00000000      -0.00438525      -0.01893203      -0.01356760
Pt      -0.02616088       0.03619936       6.59520389        1       0.00000000      -0.02741133       0.02154765       0.19082978
Pt       2.59474845       0.04913300       6.61774821        1       0.00000000       0.00993594       0.07361600       0.23622223
Pt       5.18716933      -0.08154608       6.59748828        1       0.00000000       0.04636115      -0.25403606       0.14141560
Ni       7.72657780      -0.01595199       6.54083730        1       1.00000000       0.07229393       0.03977083      -0.11268825
Ni       1.29764066       2.27647207       6.54454360        1       1.00000000       0.05722262       0.10547036      -0.08402266
Ni       3.82979875       2.24099650       6.46387954        1       1.00000000      -0.02121912      -0.00451096      -0.26175743
Pt       6.45423302       2.17455314       6.45649494        1       0.00000000       0.00481177      -0.02974468      -0.29208014
Pt       9.06507644       2.29870380       6.50938636        1       0.00000000       0.18089663       0.14982397       0.03893744
Ni       2.51400908       4.42338435       6.53741143        1       1.00000000      -0.13731356      -0.01714932      -0.03911240
Pt       5.07315916       4.39161171       6.57113819        1       0.00000000      -0.13390646      -0.02448986       0.17608484
Ni       7.78368831       4.45395827       6.43143890        1       1.00000000       0.08411638       0.05871485      -0.31660010
Ni      10.31296245       4.48181819       6.51955805        1       1.00000000      -0.01232513       0.20123095      -0.07676635
Pt       3.72916840       6.65474113       6.58137848        1       0.00000000      -0.15668992       0.01320074       0.20268054
Pt       6.50573913       6.61006801       6.48191031        1       0.00000000       0.02213834      -0.04813269      -0.24895716
Ni       9.05890569       6.59075798       6.51578325        1       1.00000000       0.05494949      -0.18805095      -0.19466305
Ni      11.55724950       6.59992793       6.52253839        1       1.00000000      -0.14333346      -0.25961421      -0.20456010
