64
Lattice="10.729931173939953 -0.011434251636338167 0.015593111571185083 5.355063234579647 9.291184655449298 0.015328112839629999 0.0 0.0 21.950772366617894" Properties=species:S:1:pos:R:3:tags:I:1:initial_magmoms:R:1:forces:R:3 unique_id=8d8e727b3c624878b02482911538eebe energy=-402.4662801917351 stress="0.003099181749944271 1.4873242822136833e-05 5.4525489197896944e-05 1.4873242822136833e-05 0.0032930847465719552 -1.8192892007342347e-05 5.4525489197896944e-05 -1.8192892007342347e-05 -0.001579726822065683" pbc="T T T"
Pt      -0.01205165       0.03032726       0.05969657        1       0.00000000       0.04604800       0.00638299      -0.38480307
Pt       2.67908717      -0.00490603       0.06560713        1       0.00000000      -0.06555108      -0.04735410      -0.31361632
Pt       5.36874315      -0.00257755       0.06889237        1       0.00000000       0.05403281       0.04266746      -0.35922897
Pt       8.06337654       0.02880043       0.06632801        1       0.00000000      -0.02176605       0.07962938      -0.35103203
Pt       1.31206508       2.33416022       0.08385856        1       0.00000000       0.04339440       0.11895534      -0.20489488
Pt       4.01870904       2.32993114       0.07842609        1       0.00000000      -0.04014509       0.09032746      -0.26029285
Pt       6.76141471       2.35818095       0.07015008        1       0.00000000       0.13870479       0.07487129      -0.08423270
Ni       9.38127926       2.32737149       0.07176990        1       1.00000000      -0.03377283       0.02577136       0.37663759
Pt       2.67495454       4.63606427       0.08135932        1       0.00000000      -0.10780739      -0.15746079      -0.22430242
Pt       5.39954903       4.63949663       0.00000000        0       0.00000000       0.11646547      -0.04645575       0.05628603
Ni       8.04967344       4.63195002       0.07155270        1       1.00000000       0.05062557      -0.00500894       0.37240416
Pt      10.65298889       4.60892467       0.10376609        1       0.00000000      -0.29811910      -0.00855911      -0.20205183
Pt       4.02035133       6.96299812       0.06515680        1       0.00000000       0.03095823       0.03868885      -0.36198295
Pt       6.71645685       6.93458927       0.07069667        1       0.00000000      -0.00857516       0.02562678      -0.43140493
Pt       9.36488245       6.91276009       0.10024690        1       0.00000000      -0.02259343      -0.25363975      -0.33441593
Pt      12.05950937       6.95202307       0.08348890        1       0.00000000      -0.02302649      -0.04524543      -0.37350026
Pt       1.36829859       0.81898736       2.36327340        3       0.00000000       0.05431354       0.12888446       0.57443856
Pt       4.00139330       0.81113219       2.36892707        3       0.00000000       0.00458275       0.13444512       0.56400695
Pt       6.71567585       0.78510971       2.36435982        3       0.00000000      -0.01677219       0.08517242       0.54618961
Pt       9.38412478       0.79927389       2.34663258        2       0.00000000      -0.00163690       0.20710406       0.44721118
Ni       2.67881708       3.09443452       2.32886372        2       1.00000000      -0.01830899       0.01990942       0.51484392
Pt       5.35279524       3.11160374       2.36381604        3       0.00000000       0.06025513       0.12030045       0.44610408
Pt       8.06894989       3.12542181       2.32585052        2       0.00000000       0.13003678       0.10898357       0.19842793
Pt      10.72670746       3.11304267       2.33349441        2       0.00000000      -0.07167649       0.02700370       0.37409783
Pt       4.00241735       5.38967011       2.37046029        3       0.00000000       0.01882081      -0.07419090       0.53560837
Pt       6.74239123       5.38824977       2.33976880        2       0.00000000       0.05193380      -0.12441711       0.34663305
Ni       9.38037397       5.40561793       2.31691442        2       1.00000000      -0.04379698      -0.07472607       0.41094500
Pt      12.06139950       5.38222868       2.37101663        3       0.00000000       0.01081717      -0.07804872       0.47054740
Pt       5.36550484       7.74213556       2.34592902        2       0.00000000       0.05712646      -0.03409872       0.53192870
Pt       8.05598324       7.71398158       2.35002814        3       0.00000000      -0.01051173      -0.00050589       0.45862545
Pt      10.70865228       7.70825480       2.35434247        3       0.00000000      -0.01610960      -0.03691848       0.44986651
Pt      13.40478732       7.71719197       2.37745474        3       0.00000000      -0.00887088      -0.09183364       0.50793783
Pt      -0.00620602       1.56443228       4.60831949        4       0.00000000      -0.15600689       0.09655559      -0.38990944
Ni       2.68973277       1.56217728       4.62823242        4       1.00000000       0.02233857       0.09149740      -0.52741098
Pt       5.39705038       1.58694419       4.62042310        4       0.00000000       0.16503782       0.10380335      -0.41231980
Ni       8.04881465       1.55827515       4.64220841        4       1.00000000       0.01187416       0.06270374      -0.47458681
Pt       1.38748707       3.86522357       4.59195603        4       0.00000000       0.07826887      -0.10699919      -0.54029904
Pt       4.03279086       3.86685036       4.62028259        4       0.00000000       0.11911981      -0.05817110      -0.33223382
Ni       6.71041621       3.86399894       4.64894789        4       1.00000000      -0.04163241      -0.00321187      -0.36427426
Pt       9.33538789       3.83870990       4.60105120        4       0.00000000      -0.16609496      -0.14066935      -0.39932671
Ni       2.68519808       6.19495849       4.63809910        4       1.00000000       0.00421725      -0.02756511      -0.48524673
Pt       5.35059535       6.14538531       4.64815585        4       0.00000000       0.03842201      -0.22206971      -0.36022319
Pt       8.03859071       6.14917483       4.60495594        4       0.00000000       0.00096728      -0.14696680      -0.46101997
Pt      10.75066408       6.17361198       4.60964741        4       0.00000000      -0.01995667      -0.15560523      -0.49524447
Pt       3.99942476       8.51667875       4.62239807        4       0.00000000       0.04142567      -0.02388795      -0.48605145
Pt       6.70954489       8.53810079       4.62509932        4       0.00000000      -0.05022989      -0.04726836      -0.50187773
Pt       9.37947632       8.54663734       4.62802452        4       0.00000000       0.03295136       0.05696934      -0.46215842
Pt      12.09143208       8.51917857       4.63088736        4       0.00000000      -0.02161438       0.05013312      -0.44009764
Pt       0.00497237       0.00337093       6.87691032        6       0.00000000       0.00281735      -0.10320546       0.43893324
Pt       2.69100727       0.01309303       6.86645354        6       0.00000000      -0.01718941       0.13314268       0.43199853
Pt       5.37655035       0.00814099       6.87778833        6       0.00000000       0.02387978       0.07880561       0.39435602
Pt       8.05589243       0.01370564       6.86903379        6       0.00000000      -0.01726619       0.16914745       0.31893283
Pt       1.35783830       2.32803116       6.86243624        6       0.00000000       0.18667324      -0.01068650       0.20780221
Pt       4.04058374       2.35203490       6.85927187        6       0.00000000      -0.10270918      -0.04054084       0.14070712
Pt       6.70817256       2.36173442       6.84857514        5       0.00000000       0.05860827       0.10270828       0.06438581
Pt       9.38103617       2.32111697       6.95077237        7       0.00000000      -0.11755141      -0.02726832      -0.03908020
Pt       2.72015539       4.65739980       6.86040809        6       0.00000000       0.02422554       0.15891409       0.14750497
Ni       5.37284525       4.64712077       6.88733719        6       1.00000000       0.03307733      -0.03305643      -0.37369006
Pt       8.01030101       4.63571403       6.94737738        6       0.00000000      -0.12698870       0.02233994      -0.17972902
Pt      10.72274964       4.63493118       6.89975122        6       0.00000000      -0.02556918      -0.01647354       0.15401589
Pt       4.03133705       6.94099810       6.86311181        6       0.00000000      -0.12337362      -0.08090671       0.27957949
Pt       6.69093000       6.93716450       6.89009596        6       0.00000000      -0.02839380       0.00975606       0.29933612
Pt       9.38249755       6.95975280       6.89730383        6       0.00000000      -0.05894107      -0.03500771       0.23605842
Pt      12.08914983       6.95809071       6.88020358        6       0.00000000       0.17053812      -0.11317719       0.31418808
