64
Lattice="9.80435464875795 -3.54219368327388e-15 -5.5898002918089545e-15 4.902177324378978 8.491435616822084 0.0013768110502777303 0.0 0.0 21.15665904668765" Properties=species:S:1:pos:R:3:tags:I:1:initial_magmoms:R:1:forces:R:3 unique_id=62da418ba5734ccf8e69de016a7cf8f8 energy=-354.55059204313415 stress="0.0026682373270543406 -1.2981532752615432e-17 -7.137231532805026e-17 -1.2981532752615432e-17 0.0026935071834650447 1.4473820886206864e-05 -7.137231532805026e-17 1.4473820886206864e-05 -0.0018753865026064865" pbc="T T T"
Ni       0.02461969      -0.01360359       0.00000000        0       1.00000000       0.02496429      -0.02265558      -0.13164695
Ni       2.45647958      -0.00092910       0.03863620        0       1.00000000      -0.00694528       0.00699872      -0.13692863
Ni       4.89678641      -0.00092910       0.03863620        0       1.00000000       0.00694528       0.00699872      -0.13692863
Ni       7.32864630      -0.01360359       0.00000000        0       1.00000000      -0.02496429      -0.02265558      -0.13164695
Ni       1.23078513       2.12608221       0.03421289        0       1.00000000      -0.00217604       0.01411010       0.00516266
Ni       3.67663299       2.12505755       0.03244115        0       1.00000000      -0.00000000       0.02866585      -0.00594004
Ni       6.12248085       2.12608221       0.03421289        0       1.00000000       0.00217604       0.01411010       0.00516266
Ni       8.57881032       2.15108428       0.00080858        0       1.00000000       0.00000000       0.04666487      -0.13203715
Ni       2.45168820       4.24599047       0.03666823        0       1.00000000       0.00272543      -0.00155287       0.02367570
Ni       4.90157779       4.24599047       0.03666823        0       1.00000000      -0.00272543      -0.00155287       0.02367570
Ni       7.35176371       4.25185845       0.03355622        0       1.00000000      -0.00911668       0.01261487      -0.00040806
Ni       9.80585692       4.25185845       0.03355622        0       1.00000000       0.00911668       0.01261487      -0.00040806
Ni       3.67663299       6.36176118       0.03496510        0       1.00000000      -0.00000000      -0.00417801      -0.00708334
Ni       6.13064537       6.36338685       0.03041912        0       1.00000000      -0.00131048      -0.02510952      -0.03945229
Ni       8.57881032       6.36766482       0.04078291        0       1.00000000      -0.00000000      -0.03490514      -0.12202700
Ni      11.02697527       6.36338685       0.03041912        0       1.00000000       0.00131048      -0.02510952      -0.03945229
Ni       1.26964475       0.71096245       2.05058694        2       1.00000000       0.01174398       0.01274514       0.08759119
Ni       3.67663299       0.73058580       2.02091649        1       1.00000000      -0.00000000       0.06543891       0.02461431
Ni       6.08362124       0.71096245       2.05058694        2       1.00000000      -0.01174398       0.01274514       0.08759119
Pt       8.57881032       0.70799706       2.06268948        2       0.00000000       0.00000000       0.00261933      -0.11027332
Ni       2.45617665       2.83891410       2.05260433        2       1.00000000       0.01586860       0.04407182       0.06215344
Ni       4.89708934       2.83891410       2.05260433        2       1.00000000      -0.01586860       0.04407182       0.06215344
Ni       7.32921000       2.87223742       2.05412515        2       1.00000000      -0.01148722       0.02397563       0.08321274
Ni       9.82841063       2.87223742       2.05412515        2       1.00000000       0.01148722       0.02397563       0.08321274
Ni       3.67663299       4.94641734       2.05486332        2       1.00000000      -0.00000000      -0.02978970       0.06749875
Ni       6.12406888       4.95032101       2.05256035        2       1.00000000      -0.02378857      -0.02481389       0.06873171
Ni       8.57881032       4.95463818       2.05159091        2       1.00000000       0.00000000      -0.00098932       0.07649663
Ni      11.03355176       4.95032101       2.05256035        2       1.00000000       0.02378857      -0.02481389       0.06873171
Ni       4.92146449       7.03337295       2.05174754        2       1.00000000      -0.01820107      -0.03174257       0.06503829
Ni       7.34012832       7.06172999       2.02084192        1       1.00000000      -0.02804137      -0.04391554       0.00682749
Ni       9.81749231       7.06172999       2.02084192        1       1.00000000       0.02804137      -0.04391554       0.00682749
Ni      12.23615614       7.03337295       2.05174754        2       1.00000000       0.01820107      -0.03174257       0.06503829
Ni       0.01313766       1.43067918       4.13662571        3       1.00000000       0.02804137       0.04391554      -0.00682749
Ni       2.43180149       1.45903622       4.10572009        3       1.00000000       0.01820107       0.03174257      -0.06503829
Ni       4.92146449       1.45903622       4.10572009        3       1.00000000      -0.01820107       0.03174257      -0.06503829
Ni       7.34012832       1.43067918       4.13662571        3       1.00000000      -0.02804137       0.04391554      -0.00682749
Ni       1.22919711       3.54208816       4.10490727        3       1.00000000       0.02378857       0.02481389      -0.06873171
Ni       3.67663299       3.54599183       4.10260430        3       1.00000000      -0.00000000       0.02978970      -0.06749875
Ni       6.12406888       3.54208816       4.10490727        3       1.00000000      -0.02378857       0.02481389      -0.06873171
Ni       8.57881032       3.53777099       4.10587672        3       1.00000000       0.00000000       0.00098932      -0.07649663
Ni       2.45617665       5.65349507       4.10486329        3       1.00000000       0.01586860      -0.04407182      -0.06215344
Ni       4.89708934       5.65349507       4.10486329        3       1.00000000      -0.01586860      -0.04407182      -0.06215344
Ni       7.32921000       5.62017175       4.10334247        3       1.00000000      -0.01148722      -0.02397563      -0.08321274
Ni       9.82841063       5.62017175       4.10334247        3       1.00000000       0.01148722      -0.02397563      -0.08321274
Ni       3.67663299       7.76182337       4.13655114        3       1.00000000      -0.00000000      -0.06543891      -0.02461431
Ni       6.08362124       7.78144672       4.10688069        3       1.00000000      -0.01174398      -0.01274514      -0.08759119
Pt       8.57881032       7.78441211       4.09477814        3       0.00000000       0.00000000      -0.00261933       0.11027332
Ni      11.07399940       7.78144672       4.10688069        3       1.00000000       0.01174398      -0.01274514      -0.08759119
Ni      -0.00539091       0.00190265       6.11745461        4       1.00000000       0.00694528      -0.00699872       0.13692863
Ni       2.42646898       0.01457714       6.15609081        5       1.00000000      -0.02496429       0.02265558       0.13164695
Ni       4.92679701       0.01457714       6.15609081        5       1.00000000       0.02496429       0.02265558       0.13164695
Ni       7.35865690       0.00190265       6.11745461        4       1.00000000      -0.00694528      -0.00699872       0.13692863
Ni       1.22262062       2.12902232       6.12704851        4       1.00000000       0.00131048       0.02510952       0.03945229
Ni       3.67663299       2.13064799       6.12250252        4       1.00000000       0.00000000       0.00417801       0.00708334
Ni       6.13064537       2.12902232       6.12704851        4       1.00000000      -0.00131048       0.02510952       0.03945229
Ni       8.57881032       2.12474435       6.11668472        4       1.00000000       0.00000000       0.03490514       0.12202700
Ni       2.45168820       4.24641870       6.12079939        4       1.00000000       0.00272543       0.00155287      -0.02367570
Ni       4.90157779       4.24641870       6.12079939        4       1.00000000      -0.00272543       0.00155287      -0.02367570
Ni       7.35176371       4.24055072       6.12391141        4       1.00000000      -0.00911668      -0.01261487       0.00040806
Ni       9.80585692       4.24055072       6.12391141        4       1.00000000       0.00911668      -0.01261487       0.00040806
Ni       3.67663299       6.36735162       6.12502647        4       1.00000000       0.00000000      -0.02866585       0.00594004
Ni       6.12248085       6.36632696       6.12325474        4       1.00000000       0.00217604      -0.01411010      -0.00516266
Ni       8.57881032       6.34132489       6.15665905        5       1.00000000       0.00000000      -0.04666487       0.13203715
Ni      11.03513978       6.36632696       6.12325474        4       1.00000000      -0.00217604      -0.01411010      -0.00516266
