64
Lattice="10.590345149979576 -0.008351062154825313 -0.020954722629918723 5.287940343015126 9.134868218505042 -0.013095867758721836 -0.01710945938161743 -0.0024687515506201254 9.168703401443384" Properties=species:S:1:pos:R:3:tags:I:1:initial_magmoms:R:1:forces:R:3 unique_id=24d45ad3f17f44dab2da1f5e07414cef stress="-5.6664631564479206e-05 -4.2361478464429585e-06 3.2360767032121573e-06 -4.2361478464429585e-06 -5.4742270275048854e-05 1.0806125515593558e-05 3.2360767032121573e-06 1.0806125515593558e-05 -1.6598112837114265e-05" energy=-415.56974959471154 pbc="T T T"
Ni       0.00744195      -0.01429774       0.06150794        4       1.00000000       0.03480364      -0.04480411       0.21269302
Pt       2.62591299      -0.05217022       0.05803265        4       0.00000000      -0.11935278      -0.10963990      -0.06613950
Ni       5.27791450      -0.00475693       0.05509520        4       1.00000000      -0.07794779      -0.04671651       0.21431352
Pt       7.96805591      -0.00359332       0.10850533        4       0.00000000       0.07284209      -0.05258108       0.15102323
Pt       1.30186843       2.25304209       0.09450254        4       0.00000000      -0.01952076       0.00733234       0.14927685
Pt       3.99307420       2.24880266       0.11497754        4       0.00000000      -0.03757456      -0.11799127       0.22024722
Pt       6.60808877       2.33670865       0.08354789        4       0.00000000      -0.01322194       0.14414811       0.11564210
Pt       9.25951827       2.26837233       0.00589585        4       0.00000000       0.02444844      -0.00075628      -0.10347649
Pt       2.68349011       4.58625934       0.14398141        4       0.00000000       0.05626401      -0.00509544       0.17658135
Ni       5.31718439       4.58408841       0.05130764        4       1.00000000       0.09757324       0.05197013       0.18960986
Ni       7.91433455       4.58222880       0.04046326        4       1.00000000      -0.10629819       0.02893889       0.15608255
Pt      10.53896904       4.57329877       0.04259451        4       0.00000000      -0.04724520      -0.02667458       0.00631614
Pt       4.06453460       6.84155177       0.10754594        4       0.00000000       0.20843322      -0.02851299       0.06490385
Ni       6.61140802       6.83660274       0.10107716        4       1.00000000       0.00181617      -0.02377782       0.23364708
Pt       9.17800349       6.82337671       0.11867509        4       0.00000000      -0.21844242      -0.16332775       0.10365131
Pt      11.88370431       6.87033395       0.10719843        4       0.00000000      -0.07517834       0.06382204       0.17483725
Pt       1.33702547       0.70471374       2.32552380        3       0.00000000       0.09157656       0.02437598      -0.00291188
Ni       3.95717025       0.73380626       2.29305486        3       1.00000000      -0.07036187      -0.04528473       0.04283079
Pt       6.58541207       0.74229995       2.27572482        3       0.00000000      -0.09601406       0.04692676      -0.11590699
Ni       9.27499557       0.74650759       2.29203011        3       1.00000000       0.05289183       0.02326615       0.03777611
Pt       2.62579049       3.07541818       2.34955778        3       0.00000000      -0.02949770       0.04705735       0.08327156
Pt       5.26809245       3.09255547       2.29667414        3       0.00000000       0.02699191       0.18503752       0.02743677
Pt       7.97366079       3.07157316       2.28117424        3       0.00000000       0.07359839       0.04186310       0.01870478
Pt      10.58647434       3.08577180       2.34637362        3       0.00000000       0.00559269       0.08813022       0.17117167
Ni       3.96914486       5.33154177       2.29482903        3       1.00000000       0.11286170       0.07505677       0.05256965
Pt       6.66134467       5.37919494       2.23608414        3       0.00000000       0.17790729       0.11058992      -0.07017781
Ni       9.25179465       5.33791396       2.29322429        3       1.00000000      -0.01854548       0.03473375       0.11909313
Ni      11.89633516       5.31881534       2.29548950        3       1.00000000      -0.07173237       0.03706278       0.03685513
Pt       5.31345368       7.63345265       2.31238939        3       0.00000000       0.02220743       0.09091533       0.08452319
Ni       7.93403108       7.60154809       2.29697868        3       1.00000000      -0.02734722      -0.01246495       0.13828274
Pt      10.50695600       7.58688929       2.29330856        3       0.00000000      -0.11389477      -0.00907575      -0.03639999
Pt      13.26003253       7.57544115       2.31550255        3       0.00000000       0.06086462       0.05466121      -0.04056764
Pt      -0.01890625       1.44774138       4.56701839        2       0.00000000       0.00207643      -0.20878561      -0.09087190
Pt       2.60079685       1.49007115       4.55771264        2       0.00000000      -0.01341486       0.02710144       0.04815465
Pt       5.27295602       1.48889553       4.53542988        2       0.00000000      -0.04962733      -0.01068878      -0.07456046
Pt       7.98386296       1.50867771       4.52922594        2       0.00000000      -0.10380918      -0.05587799      -0.15867814
Ni       1.29999163       3.80639894       4.56701429        2       1.00000000      -0.01788238      -0.05471708       0.00730098
Pt       3.95554565       3.82870759       4.54710470        2       0.00000000       0.10892287       0.03456442       0.13717594
Pt       6.63605958       3.87019347       4.59072525        2       0.00000000       0.05502743       0.13695723       0.03146488
Pt       9.27095973       3.82675820       4.61400808        2       0.00000000       0.00586623      -0.03696157       0.15311960
Pt       2.63362780       6.07516331       4.48666676        2       0.00000000       0.01507560      -0.10163883      -0.04390272
Pt       5.32922271       6.15476407       4.53109905        2       0.00000000       0.04737995       0.11384654      -0.09750352
Ni       7.92582408       6.09811318       4.54205075        2       1.00000000       0.01224886       0.04533797      -0.15093352
Pt      10.55677487       6.03277120       4.49518755        2       0.00000000      -0.01281355      -0.05023423      -0.13929974
Ni       3.98813604       8.37888184       4.55356134        2       1.00000000       0.05999902      -0.05240883      -0.07948449
Ni       6.59660500       8.35834668       4.56857351        2       1.00000000      -0.03128696      -0.06046510       0.03878868
Pt       9.16151677       8.33193688       4.52529363        2       0.00000000      -0.18716841      -0.13589061      -0.06240541
Pt      11.90050592       8.35857464       4.53759966        2       0.00000000      -0.05276291      -0.04938700       0.07111858
Ni      -0.00209489       0.00248624       6.80719883        1       1.00000000       0.06834581      -0.03201800      -0.21130623
Ni       2.62797063      -0.01487696       6.75452882        1       1.00000000      -0.04746413      -0.04504792      -0.28244264
Ni       5.27187804      -0.00746025       6.81368965        1       1.00000000      -0.00523898      -0.02857169      -0.19386797
Pt       7.98600905       0.02403411       6.75118141        1       0.00000000       0.15323477       0.10989602      -0.11013715
Pt       1.24130083       2.25235178       6.75465650        1       0.00000000      -0.13354378      -0.04399312      -0.08836818
Pt       3.96913765       2.22874245       6.77632344        1       0.00000000       0.00307571      -0.14665731      -0.07153631
Pt       6.63707899       2.32501156       6.76658075        1       0.00000000       0.10488123       0.09883370      -0.15762770
Ni       9.26220500       2.28860395       6.73916974        1       1.00000000       0.00876896       0.05972156      -0.29433535
Pt       2.61617888       4.55204459       6.75679549        1       0.00000000      -0.04752275      -0.04199064      -0.03577477
Ni       5.30173730       4.57313972       6.81434947        1       1.00000000       0.04934626       0.07698858      -0.15455945
Ni       7.93340004       4.56312024       6.80755334        1       1.00000000       0.04131148       0.06044078      -0.10778268
Ni      10.54807477       4.54361150       6.73555490        1       1.00000000      -0.04201767      -0.02539081      -0.20684795
Pt       3.99615392       6.85970906       6.74870449        1       0.00000000       0.01303777      -0.04494831      -0.14518283
Pt       6.62255130       6.85851144       6.80783733        1       0.00000000       0.01292740       0.05612404       0.08224067
Pt       9.22149946       6.82274579       6.74624423        1       0.00000000       0.03677768      -0.08604423      -0.07689607
Pt      11.85820830       6.84157223       6.75781627        1       0.00000000      -0.03224836       0.02272016      -0.08081937
