64
Lattice="9.879889829497364 0.0070324987545125756 0.004896595594994885 4.946035237322173 8.568570639710508 0.0227711108289621 0.003998053561499072 0.0191605318764467 8.45184297004465" Properties=species:S:1:pos:R:3:tags:I:1:initial_magmoms:R:1:forces:R:3 unique_id=215981f1a6ab487ba46bb90656263dcc stress="-0.0038310899254960368 -4.2639928596030246e-06 6.7344193428597125e-06 -4.2639928596030246e-06 -0.0038521325041285595 -4.994096949698632e-06 6.7344193428597125e-06 -4.994096949698632e-06 -0.0033663283589951826" energy=-380.1650651171646 pbc="T T T"
Ni      -0.06491436      -0.00751377       0.10870710        4       1.00000000      -0.04297257      -0.00121279       0.04667873
Pt       2.43775265      -0.05793350       0.06510199        4       0.00000000      -0.00577443       0.00371302      -0.19166533
Ni       5.00516823      -0.02752819       0.11723285        4       1.00000000       0.00361248       0.00977374       0.01812526
Ni       7.40850037      -0.00177602       0.10840666        4       1.00000000      -0.01839875      -0.00740078       0.00631425
Ni       1.20166375       2.16807417       0.07638520        4       1.00000000       0.02065887       0.01738004      -0.01837818
Pt       3.75519453       2.20351900       0.05933569        4       0.00000000       0.02271237       0.03478883      -0.26180951
Ni       6.23816625       2.14581356       0.12183938        4       1.00000000       0.03292347       0.00910101       0.02513811
Ni       8.61466505       2.13597254       0.06338092        4       1.00000000      -0.02336856      -0.00465486      -0.08681544
Ni       2.44836292       4.34879893       0.14083525        4       1.00000000       0.00026851       0.06612373       0.11047535
Ni       4.97494734       4.33902713       0.23857880        4       1.00000000       0.01823279       0.03895785       0.19247046
Ni       7.41957779       4.28903165       0.13668546        4       1.00000000       0.02531793       0.02066544       0.07802476
Ni       9.88035437       4.32641030       0.09834155        4       1.00000000      -0.00045537       0.06837478       0.01915411
Ni       3.70006585       6.43565458       0.13061127        4       1.00000000      -0.01837102       0.01152594       0.01619320
Ni       6.15084465       6.38006953       0.14024940        4       1.00000000      -0.00881056      -0.02579842       0.04447384
Ni       8.67840761       6.38558975       0.24278080        4       1.00000000       0.01508132       0.00212416       0.19667628
Ni      11.13148572       6.44436973       0.12734673        4       1.00000000       0.00160432       0.04917963      -0.01113890
Ni       1.23090994       0.67963150       2.17614094        3       1.00000000      -0.00525277      -0.03148692      -0.06515139
Ni       3.73353224       0.70730537       2.18185416        3       1.00000000       0.00156749       0.00376066      -0.12603461
Ni       6.18190895       0.71667524       2.14992694        3       1.00000000       0.00015410      -0.00320268       0.01140420
Ni       8.60962879       0.67744916       2.14944075        3       1.00000000      -0.03080635      -0.01357444       0.02342638
Ni       2.51170741       2.87027043       2.14847014        3       1.00000000       0.02045355      -0.00605091      -0.06376706
Ni       4.97220678       2.87040085       2.19202631        3       1.00000000      -0.01389142      -0.03613839       0.00039325
Ni       7.36043518       2.86191389       2.15379070        3       1.00000000      -0.02834798      -0.00924066       0.05540025
Pt       9.83943294       2.85115308       2.11503442        3       0.00000000       0.00811633      -0.01693165       0.01473839
Ni       3.71059795       5.02358143       2.16608612        3       1.00000000      -0.02272224       0.03494739       0.09379340
Ni       6.18538969       5.01200167       2.17858613        3       1.00000000       0.02842478       0.01471110       0.14679690
Ni       8.62273193       5.03364722       2.18089889        3       1.00000000      -0.01236497      -0.02610912       0.16585578
Ni      11.13217171       5.06849750       2.13457625        3       1.00000000      -0.04027757       0.02431373       0.06070443
Ni       4.93823605       7.13727708       2.15840766        3       1.00000000      -0.01558674      -0.01616290       0.01752918
Ni       7.40807716       7.12199729       2.21145179        3       1.00000000      -0.00872123       0.02942321       0.03953329
Ni       9.90138647       7.16072401       2.17443818        3       1.00000000       0.02667225       0.04023103       0.07188604
Ni      12.35639656       7.15676023       2.16365673        3       1.00000000      -0.00643487       0.00718284       0.02896336
Ni      -0.01975990       1.38221657       4.22756343        2       1.00000000       0.01315633      -0.01386479      -0.06344531
Ni       2.48738232       1.40153741       4.16555141        2       1.00000000      -0.01427992       0.00230447      -0.22076582
Ni       4.96300530       1.43077779       4.18754024        2       1.00000000       0.03239084      -0.02318932      -0.10651609
Ni       7.40864044       1.43026045       4.20100951        2       1.00000000       0.00910947      -0.00614730      -0.06494330
Pt       1.26530314       3.59485705       4.24455121        2       0.00000000       0.02711984       0.00715442      -0.03988178
Ni       3.75267481       3.58133115       4.16466315        2       1.00000000       0.05520897       0.05182957      -0.03129865
Ni       6.19414733       3.56736148       4.18376537        2       1.00000000      -0.01808136       0.00237921       0.05651592
Ni       8.59668251       3.58673890       4.23725584        2       1.00000000       0.00801780      -0.00305662      -0.02132115
Ni       2.50580770       5.77257853       4.20945158        2       1.00000000       0.01650170       0.01779760      -0.01812653
Ni       4.94512153       5.74961523       4.18010453        2       1.00000000      -0.00058493      -0.02195817       0.04936953
Ni       7.39042999       5.71852949       4.19623133        2       1.00000000       0.00409174       0.01505576       0.10957530
Ni       9.88476441       5.76510401       4.18108006        2       1.00000000      -0.01841485       0.02870138       0.04760249
Ni       3.70821981       7.86615897       4.21419389        2       1.00000000       0.00080470      -0.00209138      -0.04406248
Ni       6.16734646       7.85523000       4.20671261        2       1.00000000      -0.04253895      -0.03004530      -0.07928193
Ni       8.66242321       7.88271266       4.18512248        2       1.00000000       0.02288696      -0.02242147      -0.02070130
Ni      11.13197441       7.87931724       4.21846522        2       1.00000000       0.02352056       0.01064009      -0.02997533
Ni      -0.01234491       0.01465058       6.23079388        1       1.00000000      -0.01963090      -0.01530964       0.00264290
Ni       2.44558039       0.04746007       6.11656592        1       1.00000000      -0.01337508      -0.00564484      -0.17542561
Ni       4.97373891       0.05033343       6.21955500        1       1.00000000       0.01684299       0.00380860      -0.04256967
Ni       7.41925211       0.02116684       6.23444314        1       1.00000000       0.01475111      -0.00588543      -0.02848620
Ni       1.22655903       2.11593941       6.25547391        1       1.00000000      -0.00674451      -0.08123760      -0.02362294
Ni       3.68494535       2.11732076       6.11355238        1       1.00000000      -0.03500273      -0.02285361      -0.22259105
Ni       6.20762595       2.11310452       6.23073182        1       1.00000000       0.00967382      -0.04209643      -0.03905708
Ni       8.64904219       2.13890858       6.22776817        1       1.00000000       0.00817014      -0.06269932      -0.09479133
Ni       2.45498817       4.31411132       6.29304532        1       1.00000000       0.00095042       0.00847049       0.09173407
Pt       4.94618497       4.29812203       6.29118652        1       0.00000000      -0.00295605      -0.02731911       0.20782246
Ni       7.43789484       4.24874509       6.25110465        1       1.00000000       0.01374265      -0.05779579       0.02056290
Ni       9.88188568       4.26577115       6.28354358        1       1.00000000      -0.02511440      -0.05013592       0.01504995
Ni       3.69420771       6.48863917       6.24927439        1       1.00000000       0.00938571       0.01675222      -0.02587332
Ni       6.14860927       6.48971607       6.24006111        1       1.00000000      -0.02951295       0.03240204      -0.02512517
Pt       8.65657625       6.44772018       6.29877968        1       0.00000000       0.00219347      -0.00067585       0.21726907
Ni      11.16839399       6.45570916       6.24959419        1       1.00000000       0.01447430       0.00881846      -0.05967134
