64
Lattice="10.367639284414011 -0.017333177981969466 0.03293660024633373 5.168808669746301 8.932554267270215 0.006460090100630413 0.02689262148851496 -0.009435830899299488 8.83888050232255" Properties=species:S:1:pos:R:3:tags:I:1:initial_magmoms:R:1:forces:R:3 unique_id=0d17418139d441cfb80a403bf874caa8 stress="0.0002888461611441906 4.134039649379054e-06 -1.7960701743262848e-05 4.134039649379054e-06 0.00029272097383292034 5.340539896822846e-06 -1.7960701743262848e-05 5.340539896822846e-06 0.00027850211162764454" energy=-399.9202676809497 pbc="T T T"
Ni       0.00769234       0.02187449       0.17714825        4       1.00000000       0.07244859       0.07620363       0.21209883
Ni       2.59193534       0.00173250       0.21358069        4       1.00000000       0.03068843       0.02743844       0.40667651
Ni       5.18338408      -0.01983820       0.18005259        4       1.00000000      -0.02222901       0.14127269       0.26079954
Ni       7.78168118      -0.05068958       0.20793957        4       1.00000000      -0.03411330      -0.13931146       0.33636674
Ni       1.26494945       2.23941912       0.10669795        4       1.00000000      -0.12327441       0.02127554       0.21328480
Pt       3.82436434       2.23247520       0.20455002        4       0.00000000      -0.04676162       0.04147965       0.14573846
Pt       6.50434916       2.17670880       0.21660756        4       0.00000000       0.08704685      -0.05826133       0.19257589
Ni       9.11092316       2.22268351       0.17146364        4       1.00000000       0.13948052       0.06391033       0.10624080
Ni       2.56343847       4.47782018       0.06755288        4       1.00000000      -0.05392120       0.00326307      -0.04621513
Ni       5.17312687       4.46494562       0.17243791        4       1.00000000       0.17231222      -0.08809246       0.22275012
Pt       7.84898984       4.46924529       0.13193909        4       0.00000000       0.16728638       0.00450345      -0.12085065
Ni      10.38922498       4.44628005       0.09858766        4       1.00000000       0.10131698      -0.07016855       0.07675327
Ni       3.84858522       6.71924318       0.17890196        4       1.00000000      -0.04356179       0.13600674       0.23294714
Pt       6.45800324       6.74413556       0.21264758        4       0.00000000      -0.01150762       0.02073256       0.10604555
Ni       9.08589204       6.70370938       0.10054140        4       1.00000000       0.01339957       0.02809237       0.04082747
Ni      11.66604688       6.68602121       0.09684585        4       1.00000000       0.11005438      -0.02154503       0.01459441
Ni       1.31050626       0.76490230       2.17550831        3       1.00000000      -0.02923177       0.15091993      -0.16055968
Ni       3.88394474       0.74666588       2.23310359        3       1.00000000       0.02868145       0.03669660       0.05033345
Ni       6.47838832       0.74633212       2.26944922        3       1.00000000      -0.02091108       0.09625399       0.16213309
Pt       9.08401783       0.77656307       2.21045740        3       0.00000000      -0.01254266       0.11489583       0.10780390
Ni       2.56198443       2.95909290       2.23339128        3       1.00000000      -0.15535740       0.05936648      -0.08733112
Ni       5.18492643       2.94790513       2.27185762        3       1.00000000      -0.08673240      -0.13826045       0.06122362
Ni       7.80870976       2.97845439       2.26818592        3       1.00000000       0.21904917       0.04070978      -0.07205543
Ni      10.36772349       2.95216399       2.24815269        3       1.00000000       0.01430823       0.01355284       0.04625190
Pt       3.89518176       5.17932097       2.18080398        3       0.00000000      -0.07317657      -0.10503789      -0.01479694
Ni       6.51589546       5.19257135       2.23909344        3       1.00000000       0.14484697       0.01727564      -0.09046064
Ni       9.04586840       5.17729879       2.26748898        3       1.00000000      -0.03106355      -0.07535259       0.14911216
Pt      11.63861453       5.13061390       2.21284968        3       0.00000000      -0.07773669      -0.07306561       0.00314066
Ni       5.17205501       7.46148166       2.20553842        3       1.00000000      -0.11008795       0.04851266      -0.09065754
Ni       7.77161807       7.43619790       2.22846279        3       1.00000000       0.04687104      -0.07610149      -0.02831561
Pt      10.33855238       7.44383066       2.14581249        3       0.00000000       0.00666696      -0.14762323      -0.04498440
Ni      12.95796331       7.42790616       2.21114009        3       1.00000000      -0.03753057      -0.06976178      -0.01527531
Ni       0.00290874       1.56178601       4.36393915        2       1.00000000      -0.02789171       0.19426540      -0.17019120
Pt       2.56056479       1.58122010       4.28624030        2       0.00000000       0.02338284       0.04098866      -0.01554468
Ni       5.19682878       1.49895633       4.35541081        2       1.00000000      -0.05464391       0.05215335      -0.15714346
Ni       7.81237019       1.49984144       4.37221007        2       1.00000000       0.08636664       0.02515569      -0.12446749
Ni       1.29387254       3.71264579       4.41610106        2       1.00000000      -0.06730201      -0.01058968      -0.08172675
Ni       3.86686450       3.72906584       4.37144019        2       1.00000000      -0.04139117       0.01929561      -0.14550078
Pt       6.54635556       3.68124182       4.29061023        2       0.00000000       0.00592358      -0.10348217       0.03673603
Ni       9.09446036       3.68522710       4.38467406        2       1.00000000       0.07740264      -0.11832208      -0.32654823
Ni       2.56875240       5.89498603       4.40703380        2       1.00000000      -0.06848495      -0.12745474      -0.11100516
Pt       5.17840209       5.90524146       4.32328500        2       0.00000000       0.05866052       0.00422832       0.02855541
Ni       7.81164108       5.89780702       4.37743543        2       1.00000000       0.04259462      -0.07085012      -0.25254728
Pt      10.36031949       5.83497935       4.48197664        2       0.00000000      -0.03673378      -0.01035401      -0.09536244
Pt       3.87712917       8.20878453       4.32426939        2       0.00000000      -0.07470233      -0.03026543       0.08419089
Pt       6.47615744       8.20421044       4.27384326        2       0.00000000      -0.04300481       0.06298516      -0.05729868
Pt       9.05651118       8.16685008       4.35976070        2       0.00000000      -0.05839023       0.05401397       0.04731694
Pt      11.67620175       8.18651764       4.35243901        2       0.00000000       0.03139043       0.00555272       0.02512816
Pt       0.03565838       0.03791599       6.60959363        1       0.00000000      -0.01044700       0.02724621       0.09175200
Pt       2.60932890      -0.00417071       6.64553908        1       0.00000000      -0.05030212       0.02935368       0.20771903
Pt       5.19086667      -0.10249129       6.63328251        1       0.00000000      -0.00057213      -0.17680240       0.07939429
Pt       7.78378307      -0.03352549       6.65304017        1       0.00000000      -0.00466027       0.00633986       0.15299067
Ni       1.30024714       2.29518747       6.54873022        1       1.00000000      -0.02175383       0.17583913      -0.18041818
Pt       3.83133074       2.27420676       6.50608816        1       0.00000000      -0.11546568       0.02577057      -0.22616969
Pt       6.52020826       2.22904785       6.51129762        1       0.00000000      -0.01242715       0.03952341      -0.21861543
Pt       9.15636614       2.32843653       6.56128989        1       0.00000000       0.05990074       0.12235683       0.00770028
Ni       2.52153352       4.45611488       6.53963407        1       1.00000000      -0.26023349      -0.02184906      -0.27381181
Pt       5.17967635       4.44848065       6.60484942        1       0.00000000       0.01073675       0.00735221       0.02882392
Ni       7.84320478       4.47407962       6.49630900        1       1.00000000       0.15075088       0.05929400      -0.32233373
Ni      10.41043311       4.46379645       6.59059020        1       1.00000000       0.12936084       0.06154546      -0.04879073
Pt       3.79980656       6.63284998       6.60934314        1       0.00000000      -0.12394948      -0.07467642       0.12929286
Pt       6.56526674       6.63755696       6.52954009        1       0.00000000       0.05207366       0.01410067      -0.22856453
Ni       9.10860045       6.61396887       6.58900445        1       1.00000000       0.04384223      -0.20933571      -0.12295805
Ni      11.64122083       6.61118028       6.59690174        1       1.00000000      -0.08474849      -0.15315945      -0.13679803
