64
Lattice="10.174951934950201 0.019517983716404518 0.03045498738941127 5.104379037204157 8.780848103232914 -0.008508387197595968 0.0 0.0 21.45478414000387" Properties=species:S:1:pos:R:3:tags:I:1:initial_magmoms:R:1:forces:R:3 unique_id=463e289390ca4fa29e359ca017ea1a3a energy=-369.9486738184289 stress="0.00185172415953932 -2.6715734075499267e-05 0.0004442592485915714 -2.6715734075499267e-05 0.0014184184618839506 6.659772467838371e-05 0.0004442592485915714 6.659772467838371e-05 -0.00530215189707244" pbc="T T T"
Ni       0.04177428      -0.04447126       0.12323421        1       1.00000000       0.08180445      -0.02360432      -0.45714679
Ni       2.50583136       0.01707863       0.09675639        1       1.00000000       0.08313619       0.15718523      -0.47070607
Pt       5.12476206      -0.04484575       0.15069520        2       0.00000000      -0.06617281       0.05119386      -0.71346226
Ni       7.64637341      -0.03555115       0.13006466        1       1.00000000      -0.05406528      -0.06628046      -0.43582347
Ni       1.27634821       2.21866835       0.04501124        0       1.00000000      -0.02019496       0.06196424       0.23003163
Pt       3.79575051       2.27081014       0.11129699        1       0.00000000       0.02819953      -0.04809661      -0.55044543
Ni       6.37077554       2.24972310       0.06527586        1       1.00000000      -0.01641785      -0.00295870       0.22173297
Pt       8.91432918       2.27987918       0.08394125        1       0.00000000       0.03958228       0.18038255      -0.97342365
Ni       2.53293067       4.43642613       0.03194653        0       1.00000000       0.06189324      -0.02238029       0.33087243
Ni       5.11938803       4.44158961       0.03799292        0       1.00000000      -0.08796127       0.00363183       0.27705570
Ni       7.61136010       4.44060367       0.05116027        1       1.00000000       0.06529617       0.03499634       0.25749428
Ni      10.22416109       4.44383136       0.05715023        1       1.00000000      -0.00972608      -0.03021559       0.33255366
Ni       3.83143451       6.56072684       0.03040882        0       1.00000000       0.01101623       0.00613054       0.27285068
Ni       6.33768250       6.56009692       0.00000000        0       1.00000000      -0.04507215       0.00053593       0.14711010
Ni       8.94000243       6.52619493       0.11959858        1       1.00000000       0.15641302      -0.06043606      -0.50593487
Ni      11.49472179       6.54851791       0.06220315        1       1.00000000      -0.01366199       0.07357510       0.26337724
Ni       1.31288815       0.77574891       2.08746788        4       1.00000000       0.04709795       0.14926985       0.10077836
Ni       3.81816283       0.79461260       2.15128155        5       1.00000000      -0.05154885       0.10787627       0.23382140
Ni       6.34679453       0.76262462       2.18443274        5       1.00000000      -0.04786782       0.10111201       0.17655708
Pt       8.88180721       0.72907836       2.12239235        4       0.00000000      -0.00045105      -0.09532569       0.16617537
Ni       2.52591689       2.96174337       2.16492462        5       1.00000000      -0.03929109       0.08656805       0.07260482
Ni       5.10170447       2.94606261       2.13063404        4       1.00000000       0.00841241       0.00379813       0.05177889
Ni       7.61236548       2.97397306       2.13956280        4       1.00000000      -0.04853988       0.02311562       0.09382510
Ni      10.23188084       3.00869046       2.13559420        4       1.00000000       0.07094120       0.05518004       0.10339320
Ni       3.83440210       5.09934173       2.07123768        4       1.00000000      -0.03172216      -0.09609461      -0.01783418
Ni       6.33552701       5.09183649       2.06528775        4       1.00000000      -0.05828900      -0.06342863       0.03552520
Ni       8.95514160       5.08274188       2.10226302        4       1.00000000       0.00006059      -0.08144768       0.04898922
Ni      11.45507335       5.11822707       2.10187667        4       1.00000000       0.00864315      -0.05211176       0.04125077
Ni       5.08859760       7.24282943       2.06819726        4       1.00000000      -0.12638349      -0.10430823       0.06553504
Pt       7.60562992       7.30566113       2.03661084        3       0.00000000      -0.02206585      -0.00654831      -0.02051215
Ni      10.25674137       7.25260793       2.14018815        4       1.00000000       0.08071876      -0.16039812       0.14186980
Ni      12.70670501       7.26880037       2.08387818        4       1.00000000       0.01251555      -0.06615879       0.04663321
Pt       0.10030203       1.51100471       4.18704767        6       0.00000000       0.11848205      -0.11174113      -0.03160270
Ni       2.58685251       1.51454772       4.18137738        6       1.00000000       0.07165368       0.01411739      -0.25058510
Ni       5.10968680       1.47040768       4.18066665        6       1.00000000       0.01353467      -0.02121461      -0.24502219
Ni       7.60136760       1.45515932       4.24077583        6       1.00000000      -0.07711976      -0.10406300      -0.16753762
Ni       1.29648533       3.65435417       4.23317703        6       1.00000000       0.02004882      -0.01106710      -0.12289873
Ni       3.81326987       3.65098235       4.16631344        6       1.00000000      -0.03508814       0.01294799      -0.26540942
Pt       6.33147256       3.60332235       4.24152323        6       0.00000000      -0.00610712      -0.07949235       0.00643195
Ni       8.96002860       3.69929999       4.19573156        6       1.00000000       0.07047758       0.01392725      -0.25087775
Pt       2.53012754       5.76899265       4.21182608        6       0.00000000      -0.03894950      -0.02600837      -0.03837416
Ni       5.09753106       5.81187802       4.23889196        6       1.00000000      -0.02492329      -0.09478636      -0.16129890
Pt       7.63686712       5.81636274       4.22829261        6       0.00000000      -0.02767395       0.03062310      -0.02079691
Ni      10.21395486       5.81057677       4.22278177        6       1.00000000      -0.02338325      -0.02009894      -0.18340520
Pt       3.85744116       7.97677545       4.19121032        6       0.00000000       0.06479332       0.05018323      -0.03226441
Ni       6.38749610       8.02999140       4.20769306        6       1.00000000       0.05913431      -0.00416655      -0.15444086
Pt       8.96971317       8.08235500       4.15052613        6       0.00000000      -0.05998957      -0.01760001      -0.18111985
Ni      11.48141205       8.04476190       4.17796083        6       1.00000000       0.04355212      -0.06852486      -0.24523910
Pt       0.02441449      -0.07541554       6.45331526        9       0.00000000      -0.16351444       0.09570154       0.41488056
Pt       2.53697845      -0.00152892       6.40155086        8       0.00000000       0.16894697       0.09610839       0.33488188
Pt       5.13492400       0.01319559       6.32287030        7       0.00000000      -0.10768786       0.05396791       0.87700072
Pt       7.63914065      -0.04633679       6.43902847        8       0.00000000       0.11114133       0.14593701       0.38996985
Ni       1.29742390       2.25266309       6.36197160        8       1.00000000       0.01402583       0.03009440      -0.05110408
Pt       3.83055520       2.31966729       6.26789480        7       0.00000000      -0.01859423      -0.11955432       0.56304027
Ni       6.37181226       2.24256556       6.38266908        8       1.00000000       0.00173916      -0.02362650       0.05503185
Pt       8.90063434       2.31099425       6.29602228        7       0.00000000      -0.14123073      -0.12353141       0.96792681
Ni       2.53847508       4.41300951       6.37098179        8       1.00000000       0.02886076      -0.03055887      -0.20287937
Ni       5.11640881       4.43914478       6.37839949        8       1.00000000      -0.09325348       0.01429228      -0.21661811
Ni       7.58433137       4.38962629       6.40006875        8       1.00000000      -0.02047356      -0.01380620      -0.05496078
Ni      10.27618990       4.38533881       6.36485151        8       1.00000000       0.02845660       0.00982879      -0.23258555
Ni       3.84682211       6.47902344       6.38300080        8       1.00000000       0.00030430      -0.01161119      -0.15200703
Ni       6.34849869       6.50959190       6.37201306        8       1.00000000      -0.03483714       0.07149006      -0.07237037
Pt       8.95956174       6.45829652       6.45478414        9       0.00000000       0.09353199       0.06606594       0.28561619
Ni      11.50110954       6.52063020       6.39306683        8       1.00000000      -0.05215662       0.05944478      -0.12790918
