64
Lattice="10.181927111235415 -0.025477455609717568 0.013428221762878726 5.068899431835907 8.776895053808788 0.021966417715549368 0.01096409715732976 0.014380012788182834 8.721219098884509" Properties=species:S:1:pos:R:3:tags:I:1:initial_magmoms:R:1:forces:R:3 unique_id=bac0ee3f5b6d43cba12a297e1f5fc103 stress="6.578162951655087e-05 3.783942221609536e-06 -8.600172981151674e-06 3.783942221609536e-06 6.524063715480227e-05 -7.252979630989547e-06 -8.600172981151674e-06 -7.252979630989547e-06 7.782628710995693e-05" energy=-391.81859657315965 pbc="T T T"
Ni       0.03593963       0.00681130       0.15093020        4       1.00000000       0.13965169       0.15880157       0.19132777
Ni       2.53607104      -0.03030037       0.20823231        4       1.00000000       0.01493839      -0.02853421       0.29538245
Ni       5.10380724      -0.02179675       0.09360258        4       1.00000000      -0.01326178      -0.00357912       0.05694299
Ni       7.60134636      -0.02488277       0.18184077        4       1.00000000      -0.03468469       0.09362789       0.30696418
Ni       1.27114239       2.21250404       0.11921561        4       1.00000000       0.01866361       0.10980315       0.18533012
Pt       3.80599051       2.19838406       0.19619030        4       0.00000000      -0.01853489       0.00177207       0.27740078
Ni       6.35308566       2.19226319       0.11782904        4       1.00000000      -0.00659602       0.09226405       0.20166822
Pt       8.90890947       2.25007426       0.02848581        4       0.00000000       0.04647326       0.05751620      -0.16485001
Ni       2.50983495       4.41629758       0.11215728        4       1.00000000      -0.04917826       0.03901632       0.14131907
Ni       5.08004916       4.40284212       0.08436810        4       1.00000000      -0.02936654       0.02346520       0.06717521
Ni       7.62642976       4.40113333       0.08254178        4       1.00000000       0.06420421       0.09402887      -0.00080372
Ni      10.19999028       4.40821997       0.12251466        4       1.00000000       0.07026153       0.15195163       0.11844766
Ni       3.79961954       6.54679029       0.06209433        4       1.00000000      -0.00512546      -0.10028866      -0.04348684
Ni       6.37042727       6.57344384       0.06327765        4       1.00000000       0.09471916       0.01841746      -0.11524066
Ni       8.87129906       6.55377984       0.17372956        4       1.00000000      -0.08111091      -0.04811118       0.17038374
Ni      11.42607125       6.53824952       0.07447424        4       1.00000000      -0.07434530      -0.02889773      -0.07235771
Ni       1.33591279       0.79206028       2.17910748        3       1.00000000       0.04751210       0.15027153       0.07205832
Ni       3.77979305       0.72114114       2.21361750        3       1.00000000      -0.11672845      -0.00708720       0.02529492
Ni       6.32690777       0.75653278       2.15701883        3       1.00000000      -0.03555202       0.01330746      -0.05187769
Pt       8.94351117       0.78189979       2.19700656        3       0.00000000       0.09948413       0.14197998      -0.13848620
Ni       2.51999443       2.94259523       2.22751646        3       1.00000000       0.04164672       0.02341711       0.02379206
Ni       5.08030102       2.91927864       2.21731287        3       1.00000000      -0.06717169       0.01197963      -0.00067709
Ni       7.63432069       2.93182475       2.19656062        3       1.00000000       0.09485839      -0.03539524      -0.01134099
Ni      10.21114428       2.95812063       2.21045249        3       1.00000000      -0.01276716       0.02497159      -0.03276790
Ni       3.78141814       5.04778671       2.19961449        3       1.00000000      -0.01127003      -0.14979813       0.00088932
Pt       6.39907575       5.07258246       2.15568132        3       0.00000000       0.06053659       0.00649806      -0.02922809
Ni       8.92658923       5.06731124       2.21270196        3       1.00000000       0.07868411      -0.12727048       0.04511850
Ni      11.42979808       5.04706322       2.18856471        3       1.00000000      -0.04456627      -0.04193782      -0.04947210
Pt       5.11797188       7.28554580       2.13865459        3       0.00000000      -0.01334016      -0.09011021      -0.07794229
Ni       7.64073407       7.31933283       2.19021931        3       1.00000000      -0.02161084      -0.08502420       0.01943642
Pt      10.09873058       7.29212170       2.22600816        3       0.00000000      -0.00958310      -0.04381660      -0.02470497
Pt      12.66731333       7.21375441       2.18384776        3       0.00000000      -0.02017696      -0.13860335       0.00367199
Ni       0.03755257       1.50427613       4.34352562        2       1.00000000       0.07701161      -0.03573815      -0.06531466
Ni       2.52467562       1.48900532       4.29281772        2       1.00000000       0.02227593       0.05042367      -0.04035549
Pt       5.04181602       1.40601535       4.26900735        2       0.00000000      -0.14856720       0.00520302       0.07765537
Pt       7.66132301       1.49883506       4.35542876        2       0.00000000      -0.00894866      -0.07335810       0.05684589
Pt       1.26655640       3.68299764       4.33614179        2       0.00000000      -0.01300359      -0.02170944      -0.00395972
Ni       3.79273384       3.71887075       4.30832369        2       1.00000000      -0.02558824       0.04650137      -0.14571656
Pt       6.34662737       3.72604777       4.40871465        2       0.00000000      -0.03674308       0.03134460       0.04537146
Ni       8.93196938       3.70469077       4.35461179        2       1.00000000      -0.00348025       0.12899995      -0.15530471
Ni       2.52165405       5.82184299       4.38281139        2       1.00000000      -0.03868536      -0.05520936      -0.07011781
Ni       5.05062918       5.82502283       4.39537166        2       1.00000000      -0.04893595      -0.00845605      -0.08784855
Ni       7.67731778       5.84015675       4.34917516        2       1.00000000       0.15248379      -0.01481933      -0.14071437
Ni      10.17594367       5.83472805       4.35343542        2       1.00000000       0.02172359      -0.05980569      -0.08881084
Pt       3.77670338       7.96922187       4.37665894        2       0.00000000      -0.06169882       0.03341313       0.17526171
Pt       6.42735917       8.02887243       4.30981914        2       0.00000000       0.07913382       0.03709130       0.12736877
Ni       8.92104642       8.00150208       4.34975698        2       1.00000000       0.00261535      -0.12357926       0.05414056
Ni      11.39363833       7.97210195       4.38395123        2       1.00000000      -0.02566492      -0.10420777       0.00531564
Pt      -0.00530719       0.02760205       6.52708935        1       0.00000000      -0.03253756      -0.02610640       0.03566034
Pt       2.59632084       0.00838630       6.52195128        1       0.00000000      -0.02409692       0.00366899       0.17251813
Ni       5.10385517      -0.01778164       6.46572058        1       1.00000000      -0.07753158      -0.02142893      -0.16474429
Pt       7.55105744      -0.03883634       6.55905793        1       0.00000000      -0.11225928      -0.07915944       0.17719839
Ni       1.24826758       2.25377970       6.46898364        1       1.00000000      -0.00961755       0.03167076      -0.04847556
Pt       3.82608943       2.30585570       6.42443502        1       0.00000000       0.00234618       0.18858922      -0.28977170
Ni       6.37748404       2.22732043       6.50674565        1       1.00000000      -0.01319006       0.05587932       0.03573757
Ni       8.92797072       2.25674082       6.38059114        1       1.00000000       0.06763932       0.12068215      -0.40656223
Ni       2.52844100       4.45316365       6.47512547        1       1.00000000      -0.05906344       0.10046556      -0.04140347
Ni       5.09064451       4.45255414       6.48857465        1       1.00000000      -0.03176521       0.16741031      -0.01891782
Ni       7.63234125       4.36678227       6.49185440        1       1.00000000       0.02979519      -0.06922406      -0.07051282
Ni      10.19640263       4.35198189       6.48448558        1       1.00000000       0.05180056      -0.09336605      -0.02995241
Ni       3.80645816       6.51152239       6.48420483        1       1.00000000      -0.02509652      -0.10595459      -0.11433752
Ni       6.33357130       6.51766103       6.47738686        1       1.00000000       0.02930591      -0.06700010      -0.24316515
Pt       8.94159396       6.49621751       6.48663594        1       0.00000000       0.03377861      -0.13540629       0.10052902
Ni      11.46230625       6.51682017       6.46883247        1       1.00000000       0.01990094      -0.19144991      -0.22698463
