64
Lattice="10.144383444790568 0.014035247498941458 -0.01101919606210927 5.084346603277825 8.74468964358723 -0.029645611090329156 -0.008997135909284543 -0.022755651340026908 8.658688192702657" Properties=species:S:1:pos:R:3:tags:I:1:initial_magmoms:R:1:forces:R:3 unique_id=2ff141af8bb44500a0d99fa0d3e36b7f stress="-0.006856654356204389 1.324131835201288e-05 1.6649691695230853e-05 1.324131835201288e-05 -0.006827608614946079 -3.3174271190573844e-06 1.6649691695230853e-05 -3.3174271190573844e-06 -0.00586195825499633" energy=-389.4709234671438 pbc="T T T"
Ni       0.04242352      -0.05157213       0.20613595        4       1.00000000       0.06866538      -0.05140109       0.12803458
Ni       2.49212372      -0.03093463       0.19713027        4       1.00000000      -0.01319637      -0.02808205       0.00483368
Pt       5.08844055      -0.06395941       0.20716249        4       0.00000000      -0.03578918      -0.05534707      -0.10703942
Ni       7.61573587      -0.04244839       0.17553418        4       1.00000000      -0.00741524      -0.09883375       0.05926089
Ni       1.26571226       2.20353356       0.12803668        4       1.00000000      -0.02408373       0.05493834       0.12339338
Pt       3.76993548       2.24747138       0.19558757        4       0.00000000      -0.04004651      -0.00304815      -0.09096284
Ni       6.34452554       2.23677377       0.11828281        4       1.00000000      -0.03039939       0.05475369       0.11348261
Pt       8.88048763       2.26485972       0.13070732        4       0.00000000      -0.01285364       0.09858350      -0.21843840
Ni       2.51641588       4.41764956       0.10071037        4       1.00000000      -0.00441856       0.03420205       0.06893364
Ni       5.09896341       4.42625473       0.09903077        4       1.00000000      -0.03214621       0.06943641       0.03254501
Ni       7.58127244       4.42761382       0.10508770        4       1.00000000      -0.03155077       0.06906131       0.06785470
Ni      10.18136654       4.42868559       0.09897631        4       1.00000000       0.03015546       0.07695595       0.02853674
Ni       3.81813910       6.53537405       0.09778446        4       1.00000000       0.02145511      -0.01840486       0.05652587
Ni       6.34195307       6.55013608       0.09844414        4       1.00000000      -0.00218049       0.01218715      -0.01991947
Ni       8.86169759       6.51602631       0.20464705        4       1.00000000      -0.02884738      -0.02907595       0.18493096
Ni      11.44577457       6.51368700       0.09285586        4       1.00000000      -0.00262458      -0.04561730       0.02457143
Ni       1.31657211       0.72163359       2.15875741        3       1.00000000      -0.00779460       0.04688033       0.05228526
Ni       3.74042518       0.69293509       2.19526425        3       1.00000000      -0.07017357      -0.05583514       0.00114113
Ni       6.34847848       0.73079210       2.18030859        3       1.00000000       0.02093926      -0.00918316       0.02167606
Pt       8.85989631       0.70570258       2.15985970        3       0.00000000       0.04038049      -0.03123630       0.14199306
Ni       2.50283863       2.95157757       2.23275618        3       1.00000000      -0.01588905       0.07056272       0.05763979
Ni       5.08213755       2.97264065       2.15406770        3       1.00000000      -0.01287321       0.11923689       0.00739982
Ni       7.58578775       2.96880515       2.17854338        3       1.00000000       0.01542099       0.05196160       0.04817916
Ni      10.19550392       2.99787563       2.16725151        3       1.00000000       0.05170078       0.07144934       0.01673914
Ni       3.79770890       5.09473932       2.15543536        3       1.00000000      -0.02673443       0.00523302      -0.00451717
Ni       6.33038631       5.11726040       2.10150815        3       1.00000000       0.00217459       0.02643996       0.01384204
Ni       8.90717467       5.09165108       2.13146033        3       1.00000000       0.03655676      -0.06828325       0.03975933
Ni      11.42064407       5.10835572       2.16079128        3       1.00000000       0.00959921      -0.01375802       0.05020411
Ni       5.11697442       7.21526559       2.12517243        3       1.00000000      -0.00846633      -0.08493002       0.06669096
Ni       7.60891092       7.29245742       2.12396640        3       1.00000000      -0.04268914      -0.01297414       0.00905391
Ni      10.15353372       7.22753054       2.21120091        3       1.00000000      -0.01737265      -0.10235814       0.07201091
Ni      12.64651162       7.21204548       2.11334133        3       1.00000000      -0.00828029      -0.09962345       0.02195025
Pt       0.08744273       1.50493513       4.24665044        2       0.00000000       0.05152544      -0.03500840      -0.00592944
Ni       2.54420095       1.46968629       4.22613373        2       1.00000000       0.03791515       0.02980406      -0.08400972
Pt       5.04980121       1.42192300       4.16584603        2       0.00000000       0.02265784       0.01594246      -0.12876663
Ni       7.59408435       1.44624523       4.26381781        2       1.00000000      -0.00798136      -0.07863434      -0.06488872
Ni       1.30087697       3.69172904       4.28076648        2       1.00000000       0.02870258       0.01199908      -0.07214768
Ni       3.74746453       3.70979278       4.22343705        2       1.00000000       0.00595137       0.04775862      -0.14721277
Pt       6.33044465       3.65086012       4.27425204        2       0.00000000       0.03276976      -0.01431944      -0.03354286
Ni       8.92745630       3.70644711       4.21414448        2       1.00000000       0.07889327       0.07514943      -0.17080374
Ni       2.50738652       5.76159141       4.26730833        2       1.00000000      -0.02126935      -0.01780354      -0.15462144
Ni       5.04633891       5.78875208       4.26901101        2       1.00000000       0.01776990      -0.05812754      -0.13867561
Pt       7.62846826       5.86762126       4.19482463        2       0.00000000       0.03473459       0.01514054       0.02544407
Ni      10.20608397       5.80837404       4.23726983        2       1.00000000      -0.00323059      -0.01959508      -0.03583430
Pt       3.79255984       7.88326286       4.22934858        2       0.00000000       0.01740814      -0.01054739       0.02196194
Ni       6.36631925       8.00304531       4.19684610        2       1.00000000       0.00051695       0.03944200      -0.12798755
Ni       8.88171987       7.99522206       4.18816038        2       1.00000000      -0.00524523      -0.01644648      -0.07276660
Ni      11.40020026       7.92862399       4.18971329        2       1.00000000       0.00817080      -0.07320096      -0.10316509
Pt       0.00259410      -0.08179940       6.49124729        1       0.00000000      -0.07103814      -0.02146374       0.16389392
Pt       2.51268025      -0.01536554       6.40047279        1       0.00000000       0.07668187       0.00012292      -0.01216084
Pt       5.08222051      -0.03074529       6.33492695        1       0.00000000      -0.08642751      -0.05983555       0.03722689
Pt       7.58919457      -0.05558300       6.44575991        1       0.00000000       0.04252302      -0.00737918       0.10408695
Ni       1.26818044       2.24586908       6.40350676        1       1.00000000       0.03266884       0.04657967       0.01833073
Pt       3.77915244       2.32184255       6.32780552        1       0.00000000      -0.02233968       0.05757949       0.03659630
Ni       6.32567352       2.22869835       6.40794603        1       1.00000000      -0.04040392       0.00341008       0.01816618
Pt       8.85443788       2.30234219       6.30241976        1       0.00000000      -0.06064085       0.07597204       0.03708195
Ni       2.50737625       4.42038482       6.36508492        1       1.00000000       0.01083860       0.04885288      -0.06970788
Ni       5.07357393       4.42657890       6.39976395        1       1.00000000      -0.03287015       0.06688941      -0.01561347
Ni       7.54177980       4.37680590       6.41346900        1       1.00000000      -0.14200802       0.00777002       0.02256648
Ni      10.22970172       4.36614698       6.36121036        1       1.00000000       0.14413464      -0.01859632      -0.10505748
Ni       3.79914888       6.44044319       6.39290695        1       1.00000000      -0.01803002      -0.07807004      -0.01912611
Ni       6.30894199       6.47909127       6.38804130        1       1.00000000      -0.00758972      -0.00476130      -0.10690374
Pt       8.90784610       6.42200242       6.45413952        1       0.00000000       0.03888268      -0.08114342       0.22510570
Ni      11.45917360       6.47677728       6.35194883        1       1.00000000       0.01510638      -0.00137043      -0.11413052
