64
Lattice="10.729931173939953 -0.011434251636338167 0.015593111571185083 5.355063234579647 9.291184655449298 0.015328112839629999 0.012731722283897129 0.007100820087737647 9.349799692047588" Properties=species:S:1:pos:R:3:tags:I:1:initial_magmoms:R:1:forces:R:3 unique_id=8d8e727b3c624878b02482911538eebe stress="-5.2971652380634504e-05 1.620323369701643e-06 -6.8870213271775545e-06 1.620323369701643e-06 -5.265187219229833e-05 2.0614025253840236e-06 -6.8870213271775545e-06 2.0614025253840236e-06 -1.2338810978347603e-05" energy=-428.1664863397006 pbc="T T T"
Pt      -0.01205165       0.03032726       0.09611792        4       0.00000000       0.00759651       0.06709485       0.13294982
Pt       2.67908717      -0.00490603       0.10202849        4       0.00000000       0.00160219      -0.01484280       0.12692308
Pt       5.36874315      -0.00257755       0.10531373        4       0.00000000       0.01823694       0.04525220       0.14085225
Pt       8.06337654       0.02880043       0.10274937        4       0.00000000       0.01976402       0.09681628       0.08908881
Pt       1.31206508       2.33416022       0.12027992        4       0.00000000      -0.04694040       0.04988079       0.08807503
Pt       4.01870904       2.32993114       0.11484745        4       0.00000000       0.04373257       0.02471027       0.09359826
Pt       6.76141471       2.35818095       0.10657144        4       0.00000000       0.17438524       0.12779268       0.01345425
Ni       9.38127926       2.32737149       0.10819125        4       1.00000000      -0.01799988       0.05437395       0.33418289
Pt       2.67495454       4.63606427       0.11778068        4       0.00000000      -0.03234708      -0.02101850       0.09565499
Pt       5.39954903       4.63949663       0.03642136        4       0.00000000       0.09829504      -0.02359929      -0.04731821
Ni       8.04967344       4.63195002       0.10797406        4       1.00000000       0.02570070      -0.04152933       0.32321402
Pt      10.65298889       4.60892467       0.14018745        4       0.00000000      -0.25264060      -0.11549458       0.09664257
Pt       4.02035133       6.96299812       0.10157816        4       0.00000000       0.01705674      -0.02900784       0.08470894
Pt       6.71645685       6.93458927       0.10711803        4       0.00000000       0.00951306      -0.03634785       0.06939845
Pt       9.36488245       6.91276009       0.13666826        4       0.00000000      -0.03966865      -0.12356119       0.10637749
Pt      12.05950937       6.95202307       0.11991026        4       0.00000000      -0.01323045      -0.04920734       0.07458623
Pt       1.36829859       0.81898736       2.39969476        3       0.00000000       0.05789177       0.14164833       0.23637341
Pt       4.00139330       0.81113219       2.40534843        3       0.00000000      -0.02956013       0.14632464       0.22865928
Pt       6.71567585       0.78510971       2.40078118        3       0.00000000       0.03094547       0.07347337       0.14585684
Pt       9.38412478       0.79927389       2.38305393        3       0.00000000      -0.03608856       0.08012475       0.16031271
Ni       2.67881708       3.09443452       2.36528508        3       1.00000000      -0.01850139      -0.00110840       0.12414119
Pt       5.35279524       3.11160374       2.40023740        3       0.00000000       0.07491902       0.09621773       0.09746227
Pt       8.06894989       3.12542181       2.36227188        3       0.00000000       0.01450485       0.04240730       0.04585593
Pt      10.72670746       3.11304267       2.36991577        3       0.00000000      -0.01757760       0.05684397       0.12652620
Pt       4.00241735       5.38967011       2.40688165        3       0.00000000      -0.04199798      -0.03199603       0.17537991
Pt       6.74239123       5.38824977       2.37619016        3       0.00000000       0.01393065      -0.07810916       0.08886244
Ni       9.38037397       5.40561793       2.35333578        3       1.00000000      -0.01922170      -0.04956435       0.05450235
Pt      12.06139950       5.38222868       2.40743799        3       0.00000000       0.04171840      -0.04989542       0.10965991
Pt       5.36550484       7.74213556       2.38235038        3       0.00000000       0.03347329      -0.01583312       0.12232506
Pt       8.05598324       7.71398158       2.38644950        3       0.00000000      -0.00587231      -0.02109136       0.12310932
Pt      10.70865228       7.70825480       2.39076383        3       0.00000000      -0.01924302      -0.02782165       0.08744215
Pt      13.40478732       7.71719197       2.41387610        3       0.00000000       0.00674459      -0.09694030       0.12393543
Pt      -0.00620602       1.56443228       4.64474085        2       0.00000000      -0.11392432       0.06118125      -0.04770645
Ni       2.68973277       1.56217728       4.66465378        2       1.00000000       0.02311338       0.09391996      -0.07974571
Pt       5.39705038       1.58694419       4.65684445        2       0.00000000       0.14994836       0.08634154      -0.09213848
Ni       8.04881465       1.55827515       4.67862977        2       1.00000000       0.00790613       0.07661310      -0.08170249
Pt       1.38748707       3.86522357       4.62837739        2       0.00000000       0.10779003      -0.10492673      -0.18259304
Pt       4.03279086       3.86685036       4.65670395        2       0.00000000       0.00210973      -0.09508777      -0.11396221
Ni       6.71041621       3.86399894       4.68536925        2       1.00000000       0.01110397      -0.01500588      -0.05822731
Pt       9.33538789       3.83870990       4.63747256        2       0.00000000      -0.14388471      -0.08174431      -0.12074408
Ni       2.68519808       6.19495849       4.67452046        2       1.00000000       0.01365897      -0.03585224      -0.08284102
Pt       5.35059535       6.14538531       4.68457721        2       0.00000000       0.03005361      -0.13275213      -0.10765319
Pt       8.03859071       6.14917483       4.64137730        2       0.00000000       0.03419165      -0.13163661      -0.15825812
Pt      10.75066408       6.17361198       4.64606877        2       0.00000000      -0.03633555      -0.13697089      -0.14763580
Pt       3.99942476       8.51667875       4.65881942        2       0.00000000       0.03017263      -0.03782991      -0.14126667
Pt       6.70954489       8.53810079       4.66152068        2       0.00000000      -0.01581024      -0.02514572      -0.10666804
Pt       9.37947632       8.54663734       4.66444587        2       0.00000000       0.00764196       0.05215482      -0.09125437
Pt      12.09143208       8.51917857       4.66730872        2       0.00000000      -0.01213303       0.02250951      -0.11650963
Pt       0.00497237       0.00337093       6.91333168        1       0.00000000      -0.02560249      -0.03081441      -0.10479476
Pt       2.69100727       0.01309303       6.90287490        1       0.00000000      -0.00334177       0.02210678      -0.11803228
Pt       5.37655035       0.00814099       6.91420969        1       0.00000000       0.01436489       0.03328362      -0.10438094
Pt       8.05589243       0.01370564       6.90545514        1       0.00000000      -0.02022661       0.08007822      -0.15034818
Pt       1.35783830       2.32803116       6.89885760        1       0.00000000       0.01883334       0.04125550      -0.13130575
Pt       4.04058374       2.35203490       6.89569323        1       0.00000000       0.02081995       0.05784716      -0.11868759
Pt       6.70817256       2.36173442       6.88499650        1       0.00000000      -0.02683398       0.10965826      -0.17467981
Pt       9.38103617       2.32111697       6.98719373        1       0.00000000      -0.02308562       0.03367224       0.00873948
Pt       2.72015539       4.65739980       6.89682945        1       0.00000000       0.03442869       0.00106483      -0.12369469
Ni       5.37284525       4.64712077       6.92375855        1       1.00000000       0.01739545      -0.03280761      -0.39763939
Pt       8.01030101       4.63571403       6.98379873        1       0.00000000      -0.08637723       0.01830906      -0.02242813
Pt      10.72274964       4.63493118       6.93617258        1       0.00000000      -0.05900310      -0.04743879      -0.12494646
Pt       4.03133705       6.94099810       6.89953317        1       0.00000000      -0.00128139      -0.03647755      -0.14213739
Pt       6.69093000       6.93716450       6.92651732        1       0.00000000      -0.03942945      -0.05397962      -0.14138108
Pt       9.38249755       6.95975280       6.93372519        1       0.00000000      -0.03155092      -0.03775880      -0.12932677
Pt      12.08914983       6.95809071       6.91662494        1       0.00000000       0.01616637      -0.02975947      -0.16884288
