64
Lattice="10.267067032816838 -0.013719302686535659 0.0419450600753843 5.12165225175967 8.821236496520765 -0.01833756090583186 0.0 0.0 21.52821260282522" Properties=species:S:1:pos:R:3:tags:I:1:initial_magmoms:R:1:forces:R:3 unique_id=fa5055d1d7a34134a9ec22a6076dcd66 stress="0.005671752935209573 0.00016592229989042926 0.0003004712247999135 0.00016592229989042926 0.005324966679027711 -0.0001043516033831757 0.0003004712247999135 -0.0001043516033831757 -0.0013902080222689545" energy=-373.17955604941585 pbc="T T T"
Ni       0.03937178      -0.04771607       0.12476441        1       1.00000000       0.08446438      -0.06779564      -0.08465770
Ni       2.51667909      -0.03105283       0.16330974        2       1.00000000      -0.03714899      -0.03894445      -0.11684452
Pt       5.12665228      -0.05132548       0.10386893        1       0.00000000      -0.08240240       0.19589782      -1.02930376
Ni       7.72978391      -0.07384512       0.15880645        2       1.00000000      -0.01931620      -0.10027702      -0.26570878
Ni       1.28922917       2.20597922       0.04646577        0       1.00000000      -0.00088887       0.02189820       0.34656152
Pt       3.77034653       2.25627179       0.13455454        1       0.00000000       0.05501536      -0.02987876      -0.51713630
Pt       6.41983952       2.21602667       0.06822933        1       0.00000000       0.04690541       0.03551734      -0.11917329
Pt       9.07209172       2.19793540       0.09031082        1       0.00000000       0.00167931       0.10420582      -0.52955383
Ni       2.55870516       4.44489771       0.00000000        0       1.00000000       0.09820898       0.04389037       0.30571825
Ni       5.10000396       4.46999634       0.05037550        1       1.00000000      -0.07133901       0.14226533       0.37570959
Pt       7.69693326       4.50389539       0.05861548        1       0.00000000       0.01059511       0.08389369       0.02219687
Ni      10.31052197       4.42313136       0.04151625        0       1.00000000       0.04047417       0.03855517       0.27893315
Ni       3.84813493       6.60109912       0.03765772        0       1.00000000       0.07358388      -0.01103818       0.45777571
Ni       6.37935720       6.64265605       0.12690348        1       1.00000000      -0.05651553       0.04852353       0.06321789
Ni       8.96767690       6.60228962       0.11053160        1       1.00000000      -0.14170120       0.02665657      -0.25810105
Ni      11.58710538       6.56504661       0.03264996        0       1.00000000       0.08961247       0.04499542       0.21305453
Ni       1.30163787       0.71590584       2.12879394        3       1.00000000      -0.01697120       0.00674758       0.12040071
Ni       3.83157288       0.74110615       2.17461730        4       1.00000000       0.03922317      -0.03096922       0.20206580
Ni       6.42554720       0.75787897       2.20814998        4       1.00000000      -0.04677078       0.18122769       0.25723166
Pt       9.01049912       0.70278328       2.21689762        4       0.00000000       0.01762306       0.06598529      -0.01718281
Ni       2.55804609       2.93790625       2.17549132        4       1.00000000       0.03825108       0.03112451       0.05702917
Ni       5.12503470       2.95698736       2.19836236        4       1.00000000      -0.04821614       0.05713352       0.12138052
Ni       7.70767691       2.95229327       2.21183342        4       1.00000000       0.06285905       0.01644300       0.17643467
Ni      10.29308769       2.92313642       2.22349893        4       1.00000000       0.01407075      -0.05782816       0.21711101
Ni       3.89074191       5.13330633       2.14021672        3       1.00000000       0.12073343      -0.04254085       0.09832004
Ni       6.39409428       5.15851018       2.16537043        4       1.00000000      -0.05546228       0.01537086       0.11809195
Ni       8.95659924       5.09746206       2.20252227        4       1.00000000      -0.10332183      -0.23390155       0.28528088
Pt      11.59858299       5.05985817       2.18094181        4       0.00000000       0.14283398      -0.11878914       0.06720898
Ni       5.16382400       7.29449543       2.11071469        3       1.00000000       0.00548421      -0.11897980       0.12058566
Ni       7.63269535       7.31914448       2.12169322        3       1.00000000      -0.12095259      -0.09187429       0.15885515
Pt      10.24239359       7.26393274       2.14913013        3       0.00000000      -0.02645760      -0.15410248      -0.14574354
Ni      12.87154252       7.29012518       2.11623342        3       1.00000000       0.13916715      -0.16020497       0.00393691
Ni       0.02101272       1.49851061       4.25644776        6       1.00000000      -0.04231072       0.04848937      -0.17897252
Pt       2.51829887       1.52408070       4.20106949        5       0.00000000      -0.05865980       0.00460788       0.08031360
Ni       5.16066096       1.47965563       4.25768254        6       1.00000000      -0.06120183      -0.02363060      -0.39580963
Ni       7.71140457       1.47394269       4.29398382        6       1.00000000      -0.03524066      -0.00929354      -0.28631199
Ni       1.27276987       3.69052397       4.31266466        6       1.00000000      -0.04718482       0.02824035      -0.01303403
Ni       3.85113419       3.72584707       4.25431468        6       1.00000000      -0.05815540       0.11370397      -0.28349364
Pt       6.42224052       3.66897021       4.27177132        6       0.00000000      -0.04253027       0.01811371      -0.05203047
Ni       9.02394815       3.68657970       4.26232600        6       1.00000000       0.03578703       0.07919395      -0.32851265
Ni       2.59041186       5.79607745       4.30989111        6       1.00000000       0.03277204      -0.12799023      -0.06760094
Ni       5.12902886       5.82576876       4.25759153        6       1.00000000       0.06326222      -0.13012815      -0.29073351
Ni       7.70067295       5.82345711       4.25517336        6       1.00000000      -0.04667894      -0.01630892      -0.34546516
Ni      10.28884280       5.77420733       4.31972468        6       1.00000000      -0.01018685      -0.05782969      -0.10232818
Pt       3.92447038       7.99125574       4.23544205        5       0.00000000       0.12686070      -0.13922182       0.09638287
Ni       6.41371014       8.03101634       4.22677314        5       1.00000000      -0.04991607      -0.10638126      -0.30540358
Pt       8.91033281       8.02593850       4.23015434        5       0.00000000      -0.13811617       0.02485216      -0.03654974
Pt      11.59341176       8.02290364       4.23661338        5       0.00000000      -0.01160768      -0.10595134       0.00701323
Pt       0.02341312      -0.00642100       6.47630039        9       0.00000000       0.02409015       0.13473392       0.26369662
Pt       2.57055149       0.00012723       6.51148515        9       0.00000000       0.02205102      -0.05160174       0.37410946
Pt       5.16590511      -0.00368984       6.40233882        8       0.00000000      -0.01016034       0.20521693       1.03659059
Pt       7.72413145      -0.07187029       6.52821260        9       0.00000000      -0.00560509       0.20227542       0.34209168
Ni       1.29674282       2.25834738       6.42194182        8       1.00000000       0.00957439       0.16189276      -0.20644219
Pt       3.87002067       2.31469471       6.37370551        8       0.00000000       0.01847219       0.03516320       0.46696162
Ni       6.44396163       2.22142910       6.36774407        8       1.00000000      -0.01427605      -0.01533948       0.14139403
Pt       9.01272483       2.27762727       6.34237532        7       0.00000000      -0.01005716      -0.06145662       0.52663697
Ni       2.55404625       4.43669774       6.40117955        8       1.00000000      -0.01280983      -0.01875588      -0.39464805
Ni       5.12710328       4.39305889       6.42852865        8       1.00000000      -0.07779367       0.04100755      -0.27299156
Ni       7.69756151       4.35464984       6.36568056        8       1.00000000      -0.04220409       0.00979704       0.04950472
Ni      10.35345008       4.37118481       6.42738316        8       1.00000000       0.12803353      -0.00813638      -0.30312284
Ni       3.82509381       6.51090691       6.42292864        8       1.00000000      -0.03768945      -0.12819672      -0.29714246
Pt       6.37680155       6.48976508       6.42796641        8       0.00000000       0.12608308       0.08423982      -0.09010382
Pt       9.04898975       6.45426304       6.46125246        9       0.00000000      -0.03109050      -0.09575158       0.12409089
Ni      11.59896588       6.50624858       6.45018791        9       1.00000000       0.00316871       0.00123871      -0.24178437
