64
Lattice="10.296618209039648 -0.023974786942236846 0.07272246336457411 5.127546329977524 8.903287757064215 0.052264044651141275 0.0 0.0 21.568519296454586" Properties=species:S:1:pos:R:3:tags:I:1:initial_magmoms:R:1:forces:R:3 unique_id=e09e45c9740d419ab6dff2a20af17aef stress="0.005938511299532966 -9.871402926005438e-05 0.00048330052863843694 -9.871402926005438e-05 0.00604123160153961 0.00022189109835099333 0.00048330052863843694 0.00022189109835099333 -0.0013196995857216176" energy=-376.2076250448737 pbc="T T T"
Ni       0.01764408      -0.00258348       0.07953217        1       1.00000000       0.11119187       0.01062289      -0.03535061
Ni       2.57820125       0.00455361       0.12331130        1       1.00000000      -0.03251535       0.05401831       0.07664088
Ni       5.14911994      -0.02191678       0.09364861        1       1.00000000      -0.07286287       0.15559968      -0.36105750
Ni       7.72493499      -0.07440699       0.14534261        1       1.00000000      -0.05955551      -0.11028090      -0.11763723
Ni       1.29788384       2.23497765       0.02458548        0       1.00000000       0.04476828       0.00130853       0.45113715
Pt       3.79119977       2.23465072       0.11987008        1       0.00000000      -0.00885199       0.00257515      -0.23970141
Pt       6.41467998       2.16177592       0.07152645        1       0.00000000       0.02915359      -0.03980912      -0.09539925
Pt       9.09790821       2.21379575       0.09482653        1       0.00000000      -0.01277080       0.11234976      -0.54614880
Ni       2.57058761       4.48177081       0.00000000        0       1.00000000       0.11546097       0.00437007       0.29145273
Ni       5.09975830       4.47270961       0.14436652        1       1.00000000      -0.09991451       0.03714809      -0.02658425
Pt       7.71458247       4.47413102       0.09562139        1       0.00000000      -0.07734284      -0.00141635      -0.73066039
Ni      10.35246450       4.46216076       0.05601746        1       1.00000000       0.07496778       0.00186575       0.20753563
Ni       3.81264700       6.67604513       0.05492812        1       1.00000000      -0.04617224      -0.00999987       0.45604379
Pt       6.39202470       6.73717197       0.15508369        2       0.00000000      -0.00430999       0.05892660      -0.45462480
Ni       9.02989925       6.69737247       0.05542274        1       1.00000000      -0.09316184       0.03088877       0.11994023
Ni      11.59891920       6.66066842       0.06218573        1       1.00000000       0.14539568       0.03541830       0.25903213
Ni       1.33463445       0.75604570       2.14518975        3       1.00000000       0.09295984       0.09387732       0.17868543
Ni       3.84346511       0.77048530       2.16992320        4       1.00000000      -0.06967411       0.14859596       0.23238904
Ni       6.43820319       0.76603174       2.18751583        4       1.00000000      -0.05892710       0.18848675       0.23676201
Pt       9.03918697       0.72048080       2.21202510        4       0.00000000       0.06657620       0.13199506      -0.00404132
Ni       2.57818616       2.94253838       2.20788480        4       1.00000000       0.00080668      -0.12231915       0.29266970
Ni       5.12868290       2.96813160       2.19737994        4       1.00000000      -0.13603549      -0.02736464       0.21105112
Ni       7.71219375       2.92868123       2.21665925        4       1.00000000       0.04691602      -0.08033938       0.15857140
Ni      10.35403559       2.92833457       2.24156898        4       1.00000000       0.18811222      -0.10206418       0.21888967
Ni       3.88571859       5.18334034       2.13759820        3       1.00000000       0.02828570      -0.09898039      -0.03785258
Ni       6.39460533       5.18428725       2.18247242        4       1.00000000       0.01755417      -0.08266315       0.01881751
Pt       8.98770934       5.15947295       2.25588915        5       0.00000000      -0.04292800      -0.13457643      -0.08917335
Pt      11.67685796       5.12611186       2.18558501        4       0.00000000       0.11863614      -0.06663536       0.07228645
Ni       5.14195245       7.42174485       2.17806203        4       1.00000000       0.00278149       0.04113093       0.11200071
Ni       7.68305893       7.45511572       2.20775507        4       1.00000000      -0.13235701       0.09359425       0.21569070
Pt      10.29932127       7.45751730       2.12040336        3       0.00000000       0.06080466      -0.03549031      -0.08884490
Ni      12.90420682       7.37843412       2.18749492        4       1.00000000       0.15052089      -0.09273857       0.03446529
Ni       0.09054420       1.53584403       4.24744857        6       1.00000000       0.22867299       0.02156072      -0.25636475
Ni       2.55715254       1.53247091       4.25117002        7       1.00000000      -0.09222479       0.04106603      -0.29521151
Ni       5.15467074       1.50140600       4.27832757        7       1.00000000      -0.16087549      -0.02771198      -0.35022128
Ni       7.75382998       1.49676704       4.32286775        7       1.00000000       0.01693579      -0.04519093      -0.23192957
Ni       1.33443426       3.67036961       4.32131185        7       1.00000000       0.08553865      -0.12949927      -0.11166698
Ni       3.82163371       3.70274049       4.25829230        7       1.00000000      -0.14362419      -0.06739224      -0.34321823
Pt       6.45797348       3.63798528       4.24432271        6       0.00000000      -0.07160313      -0.06592090      -0.07554443
Ni       9.06622134       3.65603241       4.30011519        7       1.00000000       0.10589318      -0.24886085      -0.34666927
Ni       2.59264885       5.89068626       4.34434143        7       1.00000000       0.02930931      -0.14469026      -0.04612854
Pt       5.13829775       5.90741246       4.22511574        6       0.00000000      -0.03979479      -0.16071482      -0.04686394
Ni       7.73086498       5.94275973       4.31488346        7       1.00000000      -0.15645200       0.04942469      -0.25298978
Pt      10.33130513       5.84291217       4.46183651        8       0.00000000       0.02160852      -0.05897209       0.11888769
Pt       3.90952349       8.17270649       4.29871574        7       0.00000000       0.01518763       0.02742858       0.08048187
Ni       6.44814425       8.20791218       4.28101137        7       1.00000000      -0.06384984       0.13131654      -0.36537200
Pt       8.94170080       8.19497244       4.29800398        7       0.00000000      -0.10477769       0.10783357       0.00061807
Pt      11.60674090       8.17627251       4.31601307        7       0.00000000       0.02056583       0.04749527      -0.07505344
Pt       0.04400035       0.02579183       6.47165489       10       0.00000000       0.03642096       0.09848013       0.26910546
Pt       2.59878145       0.02659312       6.50437084       10       0.00000000      -0.01932066       0.08650517       0.18623103
Pt       5.18649861      -0.04302036       6.53132998       10       0.00000000      -0.02282812       0.17978254       0.29977772
Pt       7.74682523      -0.05303227       6.56851930       11       0.00000000      -0.04309376       0.10952055       0.32831932
Ni       1.31832656       2.30049294       6.42366631        9       1.00000000      -0.00144791       0.13194232      -0.36113429
Pt       3.83914012       2.26950434       6.36532779        9       0.00000000       0.01109318       0.03718102       0.26060952
Ni       6.46851786       2.21668013       6.41581538        9       1.00000000      -0.01933863      -0.06730766       0.05692489
Pt       9.09286325       2.25470075       6.38771112        9       0.00000000       0.00487204      -0.03183019       0.49444111
Ni       2.54126060       4.48634808       6.44572845        9       1.00000000      -0.03059391       0.00550565      -0.41278274
Pt       5.10460406       4.46704054       6.53031619       10       0.00000000      -0.02251891      -0.06463699       0.07421503
Pt       7.81877521       4.46942076       6.40988924        9       0.00000000       0.00478325       0.01348647       0.53631563
Ni      10.38976902       4.44499531       6.53299982       10       1.00000000       0.06480333      -0.12267375      -0.14029164
Ni       3.82436350       6.65210308       6.49265575       10       1.00000000      -0.15031703      -0.07599183      -0.24003321
Pt       6.46727461       6.67873046       6.43262518        9       0.00000000       0.05310303       0.02471381       0.42640300
Ni       9.07636597       6.65157111       6.53319906       10       1.00000000       0.00806359      -0.00209241      -0.02891643
Ni      11.61767098       6.59970173       6.55408070       11       1.00000000       0.08829705       0.00214872      -0.16892348
