64
Lattice="10.560470487896046 0.011761756656656184 0.008216802920999917 5.290421224005813 9.157923827526496 -0.014462496398847047 0.0 0.0 21.82011635500951" Properties=species:S:1:pos:R:3:tags:I:1:initial_magmoms:R:1:forces:R:3 unique_id=dfd694049de74063a15637ff3fddb4f9 energy=-389.5836461037232 stress="0.006788036345483743 -0.00014316394164265396 -0.00016007832163337065 -0.00014316394164265396 0.007252007970855803 -0.0001077932224870959 -0.00016007832163337065 -0.0001077932224870959 -0.0008309211729517641" pbc="T T T"
Pt       0.01096969       0.03441444       0.00000000        0       0.00000000      -0.07015038      -0.13454636      -0.12586404
Ni       2.64505434       0.00897457       0.14285813        1       1.00000000      -0.04873269      -0.06676456      -0.00457615
Pt       5.25595843       0.04648175       0.01511640        0       0.00000000       0.09494617       0.01059481      -0.00303787
Pt       7.90148921       0.07885965       0.10414477        1       0.00000000      -0.02221780       0.06638823      -0.54510478
Pt       1.32683894       2.27568973       0.01061020        0       0.00000000      -0.04119658       0.12909583       0.08739941
Ni       3.96556448       2.28549071       0.15014480        2       1.00000000      -0.01777588       0.06810174       0.08963378
Ni       6.62648930       2.30690754       0.14251855        1       1.00000000       0.07808666      -0.02974526       0.17534272
Ni       9.22513526       2.32946322       0.07703834        1       1.00000000      -0.06681257      -0.01433848       0.41828643
Pt       2.62265404       4.58364970       0.11892832        1       0.00000000      -0.09236715       0.02013772      -0.54181830
Pt       5.35015770       4.50321678       0.11698360        1       0.00000000       0.08417451       0.11136108      -0.44491694
Ni       7.93759875       4.55333180       0.13760171        1       1.00000000      -0.03197974       0.04122415       0.24198587
Pt      10.50601748       4.55629887       0.10621526        1       0.00000000       0.00689878      -0.00949093       0.27694129
Pt       3.94395024       6.86817130       0.08757793        1       0.00000000       0.10905253      -0.00584948      -0.94930035
Pt       6.65164922       6.83924866       0.11813227        1       0.00000000      -0.08657471      -0.18544446      -0.65832038
Pt       9.27124679       6.85557850       0.02336802        0       0.00000000       0.03859753      -0.08117494       0.10277468
Ni      11.86879985       6.87418455       0.12585714        1       1.00000000      -0.03671564       0.03071131       0.07328948
Pt       1.30361791       0.79337993       2.32078319        3       0.00000000       0.07862770      -0.01761809       0.18673908
Pt       3.95391138       0.75215260       2.27394748        3       0.00000000      -0.00721438      -0.12309540       0.24624666
Pt       6.61983668       0.78322515       2.35864834        4       0.00000000      -0.02994329       0.09912653       0.35541268
Pt       9.26279776       0.87548404       2.35159065        4       0.00000000       0.07062507       0.20913650       0.21685836
Pt       2.59075756       3.08926672       2.33055281        3       0.00000000      -0.07930767      -0.03131725       0.20657561
Pt       5.32922840       3.07988356       2.34736203        3       0.00000000       0.05709744      -0.09610279       0.35280912
Pt       7.98797713       3.16668752       2.32686173        3       0.00000000       0.04031506       0.06968543       0.08644667
Ni      10.54902555       3.11190335       2.31893767        3       1.00000000       0.00131886       0.15853961       0.17563984
Pt       3.96545626       5.31258045       2.34509405        3       0.00000000      -0.00127533       0.03489732       0.32559474
Ni       6.66158264       5.31998722       2.31296082        3       1.00000000       0.12020464      -0.02987501       0.32906625
Ni       9.26086984       5.31489386       2.33943855        3       1.00000000       0.09527023      -0.01868945       0.32386914
Ni      11.82651094       5.31891470       2.30289027        3       1.00000000      -0.12465319      -0.11481876       0.25927425
Pt       5.29450437       7.61597276       2.31159296        3       0.00000000      -0.05362402       0.10128977       0.27028677
Pt       7.95875595       7.52770377       2.34696020        3       0.00000000       0.12392774      -0.05182582       0.29835628
Pt      10.57785826       7.52582024       2.34754038        3       0.00000000      -0.04580725      -0.10700790       0.19756399
Pt      13.16426134       7.61289951       2.30501526        3       0.00000000      -0.01477722      -0.06229947       0.22765036
Ni      -0.04821375       1.56400699       4.58487047        6       1.00000000      -0.19867802       0.10616620      -0.08929857
Pt       2.62248096       1.56824231       4.56608147        6       0.00000000       0.00525766       0.11962749      -0.17123063
Pt       5.35156549       1.53913408       4.57044842        6       0.00000000       0.07698688       0.02773839      -0.09675839
Ni       7.96319591       1.58821344       4.55226056        6       1.00000000       0.10317683       0.24714499      -0.14092152
Pt       1.16486534       3.80947063       4.52290800        5       0.00000000      -0.28713520      -0.02284975      -0.19966052
Ni       3.97149946       3.79713626       4.54152261        5       1.00000000      -0.01356973       0.00560364      -0.29049860
Ni       6.67293178       3.81113005       4.52056253        5       1.00000000       0.21785770      -0.04024537      -0.23523352
Ni       9.22629505       3.81787960       4.52795106        5       1.00000000      -0.13197603      -0.01792911      -0.17770159
Pt       2.55974677       6.09145789       4.49638670        5       0.00000000      -0.16181356       0.01905130      -0.33077571
Pt       5.36835331       6.01417597       4.47859742        5       0.00000000       0.09553196      -0.08205783      -0.32110523
Ni       7.97978806       6.03370052       4.51489184        5       1.00000000       0.14379697      -0.20699562      -0.34577764
Ni      10.52114080       6.06608518       4.53319519        5       1.00000000      -0.18399600      -0.12542893      -0.18643217
Pt       3.95210444       8.46923000       4.51981934        5       0.00000000       0.02084585       0.02489823      -0.30029021
Pt       6.61384663       8.40906753       4.54330589        5       0.00000000      -0.01603187       0.05336471      -0.24358620
Pt       9.31212037       8.30253771       4.59968132        6       0.00000000       0.00049640      -0.05108392      -0.15355286
Ni      11.88565648       8.39392346       4.55287192        6       1.00000000       0.01712298      -0.01154856      -0.29578253
Ni       0.00833525       0.04419235       6.67409702        7       1.00000000       0.02424339       0.11275948      -0.04239775
Pt       2.64275475      -0.00127948       6.82011636        8       0.00000000      -0.06015343      -0.00676798       0.16749429
Ni       5.28641045      -0.01416741       6.69146652        7       1.00000000       0.06382263       0.05898714       0.12034591
Pt       7.92570002       0.04602703       6.68301803        7       0.00000000      -0.10413574       0.03926643       0.48008546
Ni       1.25710184       2.26713963       6.67616685        7       1.00000000      -0.12322385      -0.02835486      -0.12029772
Pt       3.95859856       2.25122333       6.80787689        8       0.00000000      -0.03413733       0.11970919       0.17427420
Pt       6.67173050       2.28453073       6.78168826        8       0.00000000       0.18536350       0.07361740      -0.04071988
Ni       9.29239533       2.28380837       6.73321255        7       1.00000000       0.09225155      -0.01364284      -0.63877629
Pt       2.57558667       4.52759948       6.68564552        7       0.00000000       0.01325228      -0.07923389       0.44138804
Pt       5.30864984       4.54159114       6.67359925        7       0.00000000       0.00357978      -0.13781673       0.52145187
Pt       8.05138139       4.55873089       6.71139214        7       0.00000000       0.09578746       0.03503640      -0.38125770
Ni      10.55121030       4.55533655       6.69541935        7       1.00000000      -0.01584032       0.01990871      -0.29004856
Pt       3.97401265       6.88941824       6.68166773        7       0.00000000      -0.03777587      -0.02190978       0.61358296
Pt       6.66982616       6.85809494       6.69206107        7       0.00000000       0.22163775      -0.05677621       0.53600595
Ni       9.26403171       6.84047094       6.67836886        7       1.00000000      -0.07640715      -0.12687027       0.01367308
Pt      11.77247359       6.87511240       6.74527064        7       0.00000000      -0.06415491      -0.00365369      -0.22730260
