64
Lattice="10.216997503220508 0.047619867220131396 -0.032447823086505186 5.1497387663477285 8.84550143974093 -0.05004028996247994 0.0 0.0 21.541883813504107" Properties=species:S:1:pos:R:3:tags:I:1:initial_magmoms:R:1:forces:R:3 unique_id=4b630986e5084a37b5c7626fb77c39d5 stress="0.0029965400865775375 9.792911173364499e-06 -9.620484445528835e-05 9.792911173364499e-06 0.0026334238174732915 3.1301740398198394e-06 -9.620484445528835e-05 3.1301740398198394e-06 -0.0038278630899536426" energy=-371.3618608710065 pbc="T T T"
Ni       0.03075682      -0.04438261       0.16789269        2       1.00000000       0.09745110      -0.03883930      -0.30192407
Ni       2.50892032       0.02031443       0.13695642        1       1.00000000       0.03366374       0.18874775      -0.37068175
Pt       5.13881356       0.00634178       0.13135400        1       0.00000000      -0.08423503       0.19808805      -1.08176354
Ni       7.67431473      -0.00954512       0.12578687        1       1.00000000      -0.04344546      -0.09033339      -0.33081809
Ni       1.28000704       2.22928792       0.08299794        1       1.00000000      -0.05063623       0.08038006       0.33168505
Pt       3.80234809       2.30110809       0.14940903        1       0.00000000       0.00860091      -0.00058176      -0.59353450
Ni       6.40010009       2.28182997       0.06466012        1       1.00000000      -0.03335076       0.04179932       0.23589094
Pt       8.94953732       2.31067921       0.08276835        1       0.00000000       0.04425298       0.18736216      -0.80981493
Ni       2.55073682       4.46405791       0.05701563        1       1.00000000       0.03616924       0.01919810       0.39411306
Ni       5.14405058       4.47420425       0.05210549        1       1.00000000      -0.09106020       0.03390049       0.36439768
Ni       7.64939404       4.47903865       0.04587461        0       1.00000000       0.02436697       0.06006629       0.33805662
Ni      10.26646347       4.48425841       0.03723130        0       1.00000000       0.00227730       0.01113099       0.41477809
Ni       3.86244162       6.60698581       0.04792687        0       1.00000000       0.01810703      -0.02756247       0.33919312
Ni       6.37125530       6.61234431       0.00177269        0       1.00000000      -0.10562755      -0.04016947       0.19388760
Ni       8.96238743       6.59192145       0.09392531        1       1.00000000       0.04900275      -0.12345516      -0.49595586
Ni      11.56569093       6.61414902       0.00000000        0       1.00000000       0.04171265       0.02070393       0.23855149
Ni       1.29715126       0.78370020       2.14810677        4       1.00000000       0.00657378       0.18760267       0.09071999
Ni       3.78669515       0.78549958       2.16465046        5       1.00000000      -0.14880534       0.01579378       0.20428521
Ni       6.40092707       0.79596584       2.16008751        5       1.00000000       0.02377377       0.09618477       0.10895843
Pt       8.92190684       0.75368656       2.13043085        4       0.00000000       0.03992576      -0.05776310       0.12022838
Ni       2.53064648       2.97522321       2.21096071        5       1.00000000      -0.01591387       0.05188961       0.15177260
Ni       5.12614873       3.00627128       2.13647853        4       1.00000000       0.02525702       0.09239515       0.02229648
Ni       7.64623101       3.01040223       2.15356240        5       1.00000000      -0.03786387       0.05228357       0.10661830
Ni      10.26671934       3.03891762       2.14025189        4       1.00000000       0.08137473       0.06636949       0.10401230
Ni       3.85493596       5.13943107       2.11533399        4       1.00000000      -0.02079247      -0.11604358      -0.01987927
Ni       6.36269953       5.13857322       2.08559052        4       1.00000000      -0.07969057      -0.05479169      -0.01496594
Ni       8.96657446       5.10857711       2.10804417        4       1.00000000      -0.01770784      -0.16840881       0.04084539
Ni      11.53627916       5.12561758       2.09274461        4       1.00000000       0.07504231      -0.15956701       0.01849869
Ni       5.11006982       7.30274266       2.09880914        4       1.00000000      -0.14197596      -0.15497959       0.04228283
Pt       7.60064841       7.36490374       2.04735888        3       0.00000000      -0.05786792      -0.04467080      -0.01793511
Pt      10.32736472       7.29647072       2.14429554        4       0.00000000       0.05425593      -0.24474034       0.15434849
Ni      12.82474726       7.34364726       2.06169449        4       1.00000000       0.10114888      -0.16225939       0.00532577
Pt       0.07308045       1.51834468       4.27149235        7       0.00000000       0.10055919      -0.07729879      -0.03450607
Ni       2.54432618       1.52443729       4.25815579        7       1.00000000       0.05775956       0.07740356      -0.27646904
Pt       5.11368298       1.49768863       4.19221704        6       0.00000000       0.07874221      -0.02469543      -0.18480992
Ni       7.65543465       1.49522666       4.27329585        7       1.00000000       0.02005569      -0.05683256      -0.24424234
Ni       1.28692121       3.67292206       4.30764581        7       1.00000000       0.05513795      -0.01353775      -0.13522829
Ni       3.80863090       3.70063134       4.24645692        6       1.00000000      -0.00784443       0.02032279      -0.28728584
Pt       6.38124986       3.69373129       4.28475215        7       0.00000000       0.00670095      -0.06564597      -0.03093590
Ni       8.98629098       3.73892846       4.23145541        6       1.00000000       0.08985584       0.04143045      -0.28063659
Pt       2.53951802       5.80533127       4.28416605        7       0.00000000      -0.03388038      -0.02998649      -0.09602625
Ni       5.10872970       5.86771195       4.28969817        7       1.00000000      -0.02489583      -0.08532690      -0.16154897
Pt       7.65863166       5.87488884       4.25633573        7       0.00000000      -0.02444342       0.02426520      -0.06587607
Ni      10.24900929       5.84692786       4.27638935        7       1.00000000      -0.01989625      -0.06623765      -0.10155602
Pt       3.87068052       8.03215271       4.23748367        6       0.00000000       0.07799467       0.03374161      -0.05090045
Ni       6.39290650       8.08833326       4.24922331        6       1.00000000      -0.01014747      -0.01659158      -0.18059918
Pt       8.93978524       8.11774325       4.21496206        6       0.00000000      -0.08045110      -0.00073974      -0.17836628
Ni      11.54017058       8.09965517       4.23194661        6       1.00000000       0.03126421      -0.06330910      -0.18680672
Pt      -0.00898651      -0.07892324       6.54188381       10       0.00000000      -0.13051100       0.08463476       0.32384386
Pt       2.51115889       0.00517436       6.49493254       10       0.00000000       0.14875449       0.11321262       0.35371623
Pt       5.12099243       0.00231414       6.40306879        9       0.00000000      -0.07109521      -0.04329313       1.19073686
Pt       7.64268179      -0.02640340       6.48039464       10       0.00000000       0.07217070       0.14691833       0.31341288
Ni       1.26853731       2.26103192       6.45133974       10       1.00000000       0.04406481       0.06976461      -0.08710684
Pt       3.80249470       2.34115115       6.37823066        9       0.00000000      -0.11716135      -0.00750748       0.57859071
Ni       6.37394858       2.26965213       6.44733612        9       1.00000000       0.01737356       0.01838452      -0.01871742
Pt       8.91627535       2.34105361       6.34481683        8       0.00000000      -0.14101363      -0.09299044       0.82325098
Ni       2.52563330       4.44471916       6.44794274        9       1.00000000       0.02581647      -0.03686825      -0.23135842
Ni       5.11909473       4.47065765       6.44104410        9       1.00000000      -0.09217933       0.05358106      -0.25766108
Ni       7.60652269       4.43322441       6.45022923       10       1.00000000      -0.04273822      -0.01626707      -0.07769936
Ni      10.28997520       4.43206556       6.39843776        9       1.00000000       0.07494498      -0.01058329      -0.27438388
Ni       3.85111062       6.53195140       6.45109541       10       1.00000000       0.01704096      -0.05499026      -0.20565139
Ni       6.36414879       6.56241633       6.42505948        9       1.00000000      -0.03650777       0.03953026      -0.13742573
Pt       8.97837176       6.50991203       6.49181376       10       0.00000000       0.11796814       0.05554067       0.33756652
Ni      11.53680892       6.58486456       6.40863905        9       1.00000000      -0.03742280       0.06424111      -0.11879347
