64
Lattice="10.570190320893415 0.007222969629288959 0.01822417452202282 5.29135043563644 9.167866717456546 0.02982564678937604 0.014879976187461872 0.01952893120669049 9.132033867686435" Properties=species:S:1:pos:R:3:tags:I:1:initial_magmoms:R:1:forces:R:3 unique_id=55f0da5790294175b2d11ffa7f9f6eea stress="-4.6327191512270105e-05 -2.9462261392202276e-06 2.2775881559097425e-06 -2.9462261392202276e-06 -4.728082129578509e-05 -4.865701290770784e-06 2.2775881559097425e-06 -4.865701290770784e-06 -1.298148190908427e-05" energy=-416.1602209778557 pbc="T T T"
Pt       0.00702956       0.03025484       0.01536533        4       0.00000000      -0.02495599       0.01266925      -0.14020133
Ni       2.64900917       0.00776582       0.12210322        4       1.00000000       0.02428470       0.01395874       0.36116606
Pt       5.28217388       0.00639836       0.04867844        4       0.00000000       0.02216528      -0.05567579      -0.07918680
Pt       7.90797846       0.05818706       0.11221051        4       0.00000000      -0.00525517       0.16621859       0.16047697
Pt       1.29212650       2.28038950       0.03934681        4       0.00000000      -0.01409111       0.01538733      -0.12506285
Pt       3.98286117       2.24866691       0.14177175        4       0.00000000       0.00946423      -0.02352279       0.20184948
Ni       6.62442853       2.29904337       0.13420645        4       1.00000000       0.02697094      -0.02741744       0.28527702
Ni       9.24246284       2.30929136       0.14003076        4       1.00000000      -0.01600343       0.04249425       0.28068398
Pt       2.63303942       4.60522413       0.10152640        4       0.00000000      -0.02009160       0.02765823       0.09669533
Pt       5.31863406       4.55650772       0.05067494        4       0.00000000      -0.01831745      -0.04999629      -0.09813570
Pt       7.92886821       4.50241341       0.08495540        4       0.00000000      -0.01073148      -0.16217922      -0.06883409
Pt      10.55732405       4.57414067       0.05692011        4       0.00000000      -0.01267560      -0.01340524      -0.11897555
Pt       3.93686307       6.88829520       0.02555676        4       0.00000000      -0.06733487       0.07219558      -0.13033054
Pt       6.63345024       6.88428007       0.13684760        4       0.00000000       0.05149650      -0.04638898       0.22969019
Pt       9.28345010       6.89171467       0.04038436        4       0.00000000       0.05223160      -0.06499985      -0.15023138
Ni      11.88990673       6.88510070       0.12715819        4       1.00000000      -0.01108138       0.02266103       0.16467858
Pt       1.33445334       0.79417561       2.31835442        3       0.00000000      -0.03504472       0.06164719       0.03114829
Ni       3.97410283       0.76868603       2.31239699        3       1.00000000       0.04597556       0.02373549       0.15245832
Pt       6.57827591       0.80981393       2.35907440        3       0.00000000      -0.08717067      -0.08350450       0.10262403
Pt       9.26442355       0.88434774       2.32905862        3       0.00000000       0.01214113       0.15880116       0.10030510
Pt       2.63455260       3.04172082       2.33190861        3       0.00000000       0.02323853       0.05010839       0.01152035
Pt       5.37142764       3.07195102       2.36562303        3       0.00000000       0.13896989       0.10392731       0.13118398
Ni       7.93122937       3.07659326       2.31192556        3       1.00000000      -0.01367974       0.04384400       0.07562926
Ni      10.55668579       3.06607529       2.32356354        3       1.00000000      -0.00468491       0.07228565       0.07333687
Pt       3.99904802       5.34429291       2.36605743        3       0.00000000      -0.02535983       0.05749759       0.01212678
Ni       6.62949612       5.32278754       2.33705294        3       1.00000000       0.07214171      -0.05267763       0.14962928
Pt       9.21382348       5.28780093       2.36599591        3       0.00000000      -0.06253099      -0.03900135       0.00737060
Pt      11.86239923       5.35029384       2.37966036        3       0.00000000      -0.06872411      -0.01794068       0.14017809
Pt       5.29742078       7.63968563       2.35119781        3       0.00000000      -0.01503191       0.05689736       0.01664790
Pt       7.96102007       7.66586293       2.33076563        3       0.00000000       0.03926522      -0.00483933       0.10664177
Pt      10.57529182       7.66287541       2.38222548        3       0.00000000      -0.00145171      -0.05920230       0.11722621
Pt      13.20139971       7.65359840       2.38851917        3       0.00000000       0.00149200       0.04799186       0.10965990
Ni       0.00223334       1.54969919       4.57227130        2       1.00000000      -0.06020095       0.03299236      -0.01873744
Pt       2.65620923       1.53986931       4.55365444        2       0.00000000       0.09696552      -0.06085691       0.02867162
Ni       5.30799111       1.53102198       4.56668667        2       1.00000000       0.03515974      -0.04325599      -0.00130677
Pt       7.88647338       1.57245673       4.53140325        2       0.00000000      -0.09884446       0.04368232       0.04333674
Pt       1.28622021       3.84409049       4.59404596        2       0.00000000      -0.00173767      -0.03780581       0.03323745
Pt       4.02819903       3.81807042       4.57456119        2       0.00000000       0.01534231      -0.12774739       0.08412787
Ni       6.61857541       3.82996958       4.56991628        2       1.00000000       0.07190546       0.03699677      -0.06833559
Pt       9.25605027       3.81969242       4.58258399        2       0.00000000      -0.04668298      -0.11105982      -0.02287025
Ni       2.62300778       6.14175539       4.58283337        2       1.00000000      -0.13283779       0.03369960      -0.04222596
Pt       5.28744804       6.08004842       4.60376956        2       0.00000000       0.06910419      -0.03173101      -0.01169358
Pt       7.96532512       6.08486392       4.60772057        2       0.00000000       0.01999091       0.03746691       0.00759494
Ni      10.60422653       6.13718506       4.60819419        2       1.00000000       0.04439183      -0.01220562      -0.03306518
Pt       3.94581171       8.39897583       4.61397564        2       0.00000000      -0.08344024       0.06148504       0.01293282
Pt       6.60203381       8.44623923       4.60486189        2       0.00000000       0.04563157      -0.02153124       0.08663825
Pt       9.35828079       8.42193758       4.62988146        2       0.00000000       0.06490770       0.04114027       0.10599776
Ni      11.89548464       8.39995339       4.60871067        2       1.00000000       0.04999772      -0.04136605       0.00448614
Ni       0.01418053       0.01927491       6.72447858        1       1.00000000      -0.01062952       0.01340628      -0.33854840
Pt       2.65361822       0.00150095       6.82385266        1       0.00000000      -0.00956609      -0.10310404       0.18077317
Ni       5.29747965       0.00648612       6.72964011        1       1.00000000       0.06943761       0.02976101      -0.28705635
Pt       7.92588828      -0.00509046       6.74296977        1       0.00000000      -0.10195477       0.02344640      -0.06226030
Ni       1.31631846       2.29863779       6.72990719        1       1.00000000       0.01492098      -0.04411263      -0.35019131
Pt       3.98849453       2.29197467       6.74612109        1       0.00000000       0.00790417      -0.05943956       0.01485941
Pt       6.61400409       2.36176796       6.79182514        1       0.00000000       0.10774701       0.18375278       0.06357501
Pt       9.33099173       2.33340569       6.81331122        1       0.00000000       0.13599836      -0.03560706       0.10809388
Pt       2.65591832       4.62933097       6.72455067        1       0.00000000       0.05193179       0.07737122      -0.12587737
Ni       5.30634301       4.60516217       6.74644937        1       1.00000000       0.01061306      -0.01855477      -0.28045676
Ni       7.94706890       4.60228465       6.75508464        1       1.00000000       0.04135370      -0.02750608      -0.23762932
Ni      10.57016323       4.61433992       6.74910845        1       1.00000000      -0.07958759       0.08382895      -0.32051003
Ni       3.97518412       6.88433341       6.73832097        1       1.00000000      -0.08860262      -0.02476330      -0.35685821
Pt       6.60327722       6.84980399       6.77798719        1       0.00000000      -0.03800179      -0.10915941      -0.00978738
Ni       9.27873923       6.87542697       6.74924487        1       1.00000000      -0.00455176      -0.13809075      -0.33599825
Pt      11.84360316       6.88961000       6.76227186        1       0.00000000      -0.20228601      -0.00036010      -0.07816275
