64
Lattice="10.36250659543329 -0.04273789494453545 0.10016678516131176 5.144241194990405 8.86776616418043 0.06525168498260757 0.0 0.0 21.594711090089547" Properties=species:S:1:pos:R:3:tags:I:1:initial_magmoms:R:1:forces:R:3 unique_id=fb2b3d28a7a54c6681fd24cf4ae6c8d5 energy=-377.4672507741007 stress="0.006284923965223487 -0.00022983043678296818 0.0005825458393248292 -0.00022983043678296818 0.005626618228280272 0.00030318273859160426 0.0005825458393248292 0.00030318273859160426 -0.0016164369626637982" pbc="T T T"
Ni      -0.00531173      -0.01332681       0.08083401        1       1.00000000       0.01561867       0.04204742      -0.07316706
Ni       2.61992580      -0.01628228       0.12891498        1       1.00000000       0.07347206       0.03497816       0.08874129
Ni       5.18897211      -0.04735351       0.11070436        1       1.00000000      -0.00606994       0.05384930      -0.35848553
Ni       7.77345056      -0.09145572       0.16885878        2       1.00000000      -0.08400140      -0.11318594      -0.11611939
Pt       1.30170329       2.23100285       0.03497532        0       0.00000000      -0.02595988      -0.07598784       0.13255600
Pt       3.86581864       2.16300370       0.13346938        1       0.00000000       0.04024971      -0.01834937      -0.31600139
Pt       6.47314143       2.11489785       0.08475528        1       0.00000000       0.07716905      -0.02490152      -0.12357301
Pt       9.09017902       2.18288913       0.12231361        1       0.00000000       0.04189147       0.05181489      -0.57754962
Ni       2.55345892       4.48700753       0.00000000        0       1.00000000       0.00108172       0.05090490       0.19760263
Pt       5.12217028       4.46748090       0.00890120        0       0.00000000       0.20282963       0.01536213      -0.31624156
Pt       7.79948929       4.46495361       0.12329114        1       0.00000000      -0.13412045       0.07712948      -0.68919683
Ni      10.39093860       4.45607854       0.08309661        1       1.00000000       0.03441583       0.06321317       0.23368765
Ni       3.81606797       6.69358074       0.04469764        0       1.00000000      -0.03211727       0.11463682       0.32451111
Pt       6.46061438       6.74819159       0.18043497        2       0.00000000       0.02049598      -0.01095027      -0.46275909
Ni       9.08783895       6.67053557       0.08433948        1       1.00000000      -0.02421963       0.05768137       0.19067304
Ni      11.65487629       6.62671047       0.09634584        1       1.00000000       0.11426756       0.06835098       0.31635841
Ni       1.34599123       0.73372188       2.18287131        3       1.00000000       0.10191475       0.03448328       0.31760548
Ni       3.87483115       0.74680967       2.20483872        3       1.00000000      -0.10242969       0.14292155       0.27875779
Ni       6.48740195       0.74263130       2.22267403        3       1.00000000      -0.03417690       0.16478266       0.29252224
Pt       9.09442674       0.70383974       2.25251771        4       0.00000000       0.06873178       0.18634712      -0.02682544
Ni       2.58973160       2.91389880       2.23432562        3       1.00000000      -0.02891840      -0.14319140       0.40373621
Ni       5.18910639       2.91006963       2.23568603        3       1.00000000      -0.07182166      -0.09572273       0.22887001
Ni       7.76026696       2.90828654       2.25514747        4       1.00000000       0.03704667      -0.08358984       0.14640137
Ni      10.39016692       2.90576101       2.30003539        4       1.00000000       0.05136062      -0.08348585       0.35471622
Pt       3.88307945       5.17464435       2.20601026        3       0.00000000      -0.00177945      -0.09986635      -0.14154806
Ni       6.47419152       5.16594484       2.22908215        3       1.00000000       0.00687890      -0.02338248       0.13112272
Pt       9.04108839       5.13478236       2.32615726        4       0.00000000      -0.08125097      -0.09788948      -0.01420565
Pt      11.66407016       5.09645422       2.26531878        4       0.00000000      -0.03344210      -0.12518407       0.09910898
Ni       5.19124661       7.41793145       2.20975874        3       1.00000000       0.06545404       0.05983912       0.20434614
Ni       7.73462186       7.41848607       2.24797329        3       1.00000000      -0.08301135       0.08274957       0.28062093
Pt      10.35214418       7.41625975       2.16972552        3       0.00000000       0.02755195       0.00022906      -0.04065316
Ni      12.95509906       7.35833631       2.23407024        3       1.00000000       0.03571971      -0.04172021       0.04366674
Ni       0.09686586       1.53358650       4.26162898        5       1.00000000       0.21773163       0.03945642      -0.28467118
Ni       2.58891306       1.51876508       4.27964253        5       1.00000000      -0.07693342       0.03665812      -0.28374398
Ni       5.20098217       1.47711526       4.30573084        5       1.00000000      -0.13469982      -0.12909397      -0.35138182
Ni       7.80543780       1.47679550       4.35768324        6       1.00000000      -0.01369983      -0.05631155      -0.22220946
Ni       1.32236067       3.69396309       4.33999000        5       1.00000000       0.01843117      -0.04309893      -0.08878538
Ni       3.85549226       3.68461253       4.30975967        5       1.00000000      -0.21186497      -0.11716818      -0.28795578
Pt       6.49987593       3.61528365       4.29517156        5       0.00000000      -0.03352775      -0.07923128      -0.12932102
Ni       9.14773946       3.67247153       4.35081696        6       1.00000000       0.19042944      -0.15948440      -0.21690836
Ni       2.57143277       5.86869064       4.38418185        6       1.00000000      -0.12757834      -0.17900791       0.05201392
Pt       5.19068273       5.88346306       4.33394378        5       0.00000000       0.07844110      -0.07599654       0.06096633
Ni       7.80425078       5.90294981       4.35450635        6       1.00000000      -0.11298339       0.02932277      -0.12936850
Ni      10.38284736       5.83737048       4.46820890        7       1.00000000      -0.01797564      -0.08468452       0.11440596
Pt       3.92280433       8.13779954       4.32345088        5       0.00000000      -0.01801022       0.02427324       0.03710086
Ni       6.49122132       8.16899099       4.31191834        5       1.00000000      -0.04434007       0.14328546      -0.33928092
Pt       9.00898751       8.11783533       4.34656556        5       0.00000000      -0.04620948       0.07253048       0.03588775
Pt      11.66552206       8.08270900       4.37134868        6       0.00000000      -0.06305485      -0.07240193      -0.02827935
Pt       0.05989264       0.01419465       6.47561891        9       0.00000000       0.08324110       0.05262103       0.29949681
Pt       2.63597378       0.02204887       6.50664616        9       0.00000000      -0.05464617       0.18477653       0.19054729
Pt       5.23129697      -0.05192689       6.55203790       10       0.00000000      -0.01959903       0.19964197       0.27215756
Pt       7.80713214      -0.07711418       6.59471109       10       0.00000000      -0.07459110       0.07919258       0.30708544
Ni       1.34515821       2.28709537       6.36983999        8       1.00000000       0.06349658       0.20375311      -0.17735699
Pt       3.91816393       2.30880251       6.38958546        8       0.00000000      -0.05616076       0.00829090       0.23398587
Ni       6.51178167       2.20727957       6.44591298        8       1.00000000       0.00368817      -0.07588882       0.05830977
Pt       9.15883393       2.23337153       6.41767013        8       0.00000000       0.02760100       0.00721204       0.48035592
Ni       2.59323058       4.47157887       6.45509533        9       1.00000000      -0.06527486      -0.04105607      -0.46908351
Ni       5.18409587       4.42704250       6.43042930        8       1.00000000      -0.02619815       0.02536019       0.15158341
Pt       7.84639064       4.43104282       6.44425673        8       0.00000000       0.12445782      -0.00453477       0.50504351
Ni      10.45517735       4.44062272       6.52753657        9       1.00000000       0.09210771      -0.03454487      -0.42757943
Ni       3.86416333       6.59123411       6.51016726        9       1.00000000      -0.12202099      -0.15985727      -0.24819006
Pt       6.49188986       6.61302154       6.47801872        9       0.00000000       0.08024928       0.04429510       0.53254765
Ni       9.14078305       6.59477329       6.54548823        9       1.00000000       0.06293848      -0.05895173      -0.26768267
Ni      11.68159386       6.54372103       6.57699807       10       1.00000000       0.00372431      -0.04327081      -0.38896879
