64
Lattice="10.355120673050981 -0.000959137465913781 0.031548697479977184 5.176729699114288 8.909212358428046 0.001877013567341165 0.02575940362512455 -0.01310253325466848 8.832249648946876" Properties=species:S:1:pos:R:3:tags:I:1:initial_magmoms:R:1:forces:R:3 unique_id=c20e9b3cccef4e8996662b061d998e00 stress="0.0002533167899379865 3.6733188745728205e-06 -1.4416834719248336e-05 3.6733188745728205e-06 0.0002592659929328625 8.010823070224758e-06 -1.4416834719248336e-05 8.010823070224758e-06 0.000246736456908786" energy=-398.8812557046227 pbc="T T T"
Ni       0.00495220       0.02240053       0.17747077        4       1.00000000       0.04991103       0.08195093       0.22644267
Ni       2.58966033       0.00614375       0.21612998        4       1.00000000       0.03200207       0.02361062       0.39711531
Ni       5.17784675      -0.01139933       0.18050427        4       1.00000000      -0.01851860       0.14035587       0.26719273
Ni       7.77555685      -0.04197805       0.20775742        4       1.00000000      -0.02193133      -0.12233459       0.36545044
Ni       1.26670551       2.23311541       0.10601224        4       1.00000000      -0.11741103       0.01901369       0.20081083
Pt       3.82400700       2.23275557       0.20204810        4       0.00000000      -0.04598833       0.04971660       0.16142890
Pt       6.50158061       2.17949024       0.21395696        4       0.00000000       0.09165944      -0.05592393       0.21309478
Ni       9.10589785       2.22880335       0.17039670        4       1.00000000       0.14048950       0.04881753       0.12041002
Ni       2.56931741       4.47137975       0.05942611        4       1.00000000      -0.05416523       0.01023971      -0.06764586
Ni       5.17398482       4.46018296       0.17049833        4       1.00000000       0.19445296      -0.09126538       0.24106277
Pt       7.84912057       4.46543944       0.12638735        4       0.00000000       0.16540151       0.00589667      -0.12297316
Ni      10.38517325       4.44625338       0.09523745        4       1.00000000       0.10327501      -0.06951497       0.07323888
Ni       3.85037664       6.69724654       0.08920217        4       1.00000000      -0.07181331       0.08763131       0.09605957
Pt       6.45428266       6.73135480       0.20644964        4       0.00000000      -0.03580466       0.01830032       0.12041752
Ni       9.08626584       6.69535760       0.09586223        4       1.00000000       0.00891027       0.02925895       0.03072641
Ni      11.66854969       6.68091361       0.08621554        4       1.00000000       0.10747687      -0.01887738      -0.00528316
Ni       1.30948160       0.76380180       2.17258049        3       1.00000000      -0.03423560       0.14010563      -0.14824307
Ni       3.87962055       0.75076358       2.23106183        3       1.00000000       0.02961517       0.04671028       0.04994340
Ni       6.47153016       0.75352528       2.26885368        3       1.00000000      -0.01466796       0.10015522       0.15934911
Pt       9.07384292       0.78393550       2.21244830        3       0.00000000      -0.01945591       0.11620562       0.11422235
Ni       2.56262965       2.95109089       2.23138772        3       1.00000000      -0.13655650       0.06533953      -0.08661748
Ni       5.18363137       2.94446773       2.27082900        3       1.00000000      -0.08562281      -0.12135337       0.05901218
Ni       7.80268700       2.98094178       2.26677320        3       1.00000000       0.19801508       0.05073054      -0.05542455
Ni      10.36003303       2.95613711       2.24453943        3       1.00000000       0.01416268       0.01011925       0.05485107
Pt       3.89959673       5.17590476       2.17333923        3       0.00000000      -0.08233906      -0.05123238      -0.07002113
Ni       6.51484443       5.18526580       2.23597048        3       1.00000000       0.12909215       0.03091253      -0.07614030
Ni       9.04209913       5.17238509       2.26347601        3       1.00000000      -0.03297034      -0.07068752       0.15246273
Pt      11.63317627       5.12885961       2.20526899        3       0.00000000      -0.06078469      -0.06574741       0.01420125
Ni       5.17330007       7.43957509       2.20496775        3       1.00000000      -0.13506606       0.02512426      -0.10729368
Ni       7.77355777       7.42004556       2.22100317        3       1.00000000       0.04520645      -0.08107900      -0.02927543
Pt      10.33841345       7.43292428       2.13948571        3       0.00000000       0.01080543      -0.14032555      -0.04929513
Ni      12.95875557       7.42054794       2.20148465        3       1.00000000      -0.00651537      -0.08735015      -0.05972908
Ni       0.00241888       1.55034074       4.36172353        2       1.00000000      -0.02768628       0.17433052      -0.14651763
Pt       2.55912637       1.57894608       4.28314696        2       0.00000000       0.01756073       0.03356390       0.00760416
Ni       5.19220857       1.50152335       4.35027219        2       1.00000000      -0.05649289       0.05908267      -0.13255574
Ni       7.80683080       1.50158588       4.37001987        2       1.00000000       0.06973156       0.01929909      -0.08407075
Ni       1.29906689       3.70140012       4.41284432        2       1.00000000      -0.05070741       0.00074253      -0.05829000
Ni       3.86578066       3.72164677       4.36588229        2       1.00000000      -0.05943672       0.00956571      -0.15765595
Pt       6.53912499       3.68168754       4.29047781        2       0.00000000      -0.00870720      -0.10644760       0.08278357
Ni       9.08850452       3.68402433       4.37789481        2       1.00000000       0.06574542      -0.11867155      -0.29686530
Ni       2.58394710       5.88306627       4.43090062        2       1.00000000      -0.05759653      -0.10243418      -0.05598152
Pt       5.16112125       5.89575448       4.33677249        2       0.00000000       0.08306678      -0.01353426       0.01369964
Ni       7.80664633       5.88844294       4.37420429        2       1.00000000       0.03469468      -0.05782036      -0.23606927
Pt      10.36017781       5.82830516       4.47736197        2       0.00000000      -0.03022165      -0.00536704      -0.07288428
Pt       3.88194608       8.17029995       4.33762372        2       0.00000000      -0.08601412       0.00974599       0.07988701
Pt       6.47942074       8.18228796       4.26548904        2       0.00000000      -0.05570164       0.04406299      -0.03892689
Pt       9.05907907       8.15114210       4.35328633        2       0.00000000      -0.06114052       0.05084000       0.06433507
Pt      11.67456167       8.17157598       4.34481770        2       0.00000000       0.02662962       0.00642007       0.03520600
Pt       0.02281418       0.00576088       6.60908507        1       0.00000000      -0.00483646       0.01790730       0.10108424
Pt       2.59877665      -0.00552493       6.64296690        1       0.00000000      -0.01075029       0.05521101       0.21344285
Pt       5.18919077      -0.09928065       6.63083973        1       0.00000000      -0.00268543      -0.19471634       0.08224725
Pt       7.78721197      -0.08947413       6.65637936        1       0.00000000      -0.01021143      -0.12007386       0.18698480
Ni       1.29969075       2.28681602       6.54331716        1       1.00000000      -0.00874986       0.19894814      -0.17128399
Pt       3.82996777       2.27517582       6.50097803        1       0.00000000      -0.12920790       0.02632792      -0.23624137
Pt       6.51494902       2.22830032       6.50619237        1       0.00000000      -0.00898836       0.03414287      -0.21660991
Pt       9.14588144       2.32149636       6.55520628        1       0.00000000       0.02981323       0.08184264       0.01282260
Ni       2.54065309       4.48139473       6.53196516        1       1.00000000      -0.19745739       0.06973580      -0.25764325
Pt       5.12723973       4.47971603       6.60477801        1       0.00000000      -0.10851720       0.08957336       0.06683074
Ni       7.83303100       4.47016707       6.48720162        1       1.00000000       0.10791304       0.03777701      -0.31592880
Ni      10.40519502       4.46070689       6.58413384        1       1.00000000       0.13581968       0.04678652      -0.03565059
Ni       3.84923596       6.63590184       6.56050463        1       1.00000000      -0.12121330      -0.07521491      -0.17219841
Pt       6.54298699       6.62426505       6.52238257        1       0.00000000       0.08026489      -0.02194433      -0.24811909
Ni       9.10489515       6.60038372       6.58059348        1       1.00000000       0.06293167      -0.20379896      -0.11725629
Ni      11.67739451       6.59499985       6.58744966        1       1.00000000       0.03552241      -0.17038602      -0.13572977
