64
Lattice="9.804076522923097 0.00044826069079804563 -0.0013987590060271838 4.902426466607298 8.489820430818916 -0.0020441253502135625 0.0 0.0 21.161006465846228" Properties=species:S:1:pos:R:3:tags:I:1:initial_magmoms:R:1:forces:R:3 unique_id=96b6cab802834539b8f0009513d091cd energy=-354.81781074560547 stress="0.0030040132977210577 1.5268460934219128e-05 -1.2471145100319592e-05 1.5268460934219128e-05 0.002987271756699217 -8.961559739994053e-06 -1.2471145100319592e-05 -8.961559739994053e-06 -0.0017495429443747275" pbc="T T T"
Ni      -0.00665887      -0.00419889       0.04724445        0       1.00000000      -0.02552700      -0.00724417       0.02295543
Ni       2.42573995      -0.04593932       0.04945495        0       1.00000000       0.02138879       0.05511572       0.00076479
Ni       4.92705634      -0.04613215       0.04823282        0       1.00000000      -0.02554308       0.06552778       0.00003071
Ni       7.35985093      -0.00139342       0.04165516        0       1.00000000       0.03019769       0.00339743      -0.01684716
Ni       1.17340358       2.12326444       0.04881884        0       1.00000000       0.05713646      -0.01722540       0.00103580
Pt       3.67658559       2.12227939       0.00000000        0       0.00000000       0.00623709      -0.00542024      -0.29753625
Ni       6.18016917       2.12412211       0.04792897        0       1.00000000      -0.06108557      -0.00736556      -0.01226152
Ni       8.57804414       2.12329874       0.04581089        0       1.00000000       0.00070008       0.00093410       0.03312069
Ni       2.42379865       4.28860854       0.05357547        1       1.00000000       0.04042597      -0.08494860      -0.13901584
Ni       4.93129494       4.28873204       0.04315311        0       1.00000000      -0.02472242      -0.06177105      -0.03970691
Ni       7.36002721       4.24839602       0.04666819        0       1.00000000       0.03693476       0.02124448       0.03647391
Ni       9.79527303       4.24786839       0.04187699        0       1.00000000      -0.05608018       0.01128554       0.01234223
Ni       3.67777505       6.37554632       0.05151202        1       1.00000000       0.02942789       0.05266667      -0.11226728
Ni       6.12823685       6.36744616       0.04550706        0       1.00000000       0.01325736      -0.00135239       0.04709342
Ni       8.57871331       6.35964729       0.04614959        0       1.00000000      -0.01234630      -0.04361407       0.05013127
Ni      11.02838283       6.36781215       0.05068263        1       1.00000000      -0.03041761       0.01395292      -0.08976230
Ni       1.22001538       0.70409188       2.06681508        3       1.00000000       0.00236175      -0.00203084       0.00830653
Ni       3.67633102       0.68046353       2.10065069        3       1.00000000      -0.00208066       0.04745558      -0.02181104
Ni       6.13137546       0.70959076       2.06289072        3       1.00000000      -0.01121410       0.02773343      -0.00873209
Ni       8.57951305       0.71278857       2.06188872        3       1.00000000       0.00931311       0.02490459       0.02158260
Ni       2.42655623       2.83706604       2.09871135        3       1.00000000       0.03642789      -0.04670569      -0.01525741
Ni       4.92972540       2.83968701       2.09689418        3       1.00000000      -0.01650045      -0.04518556      -0.04203365
Ni       7.35972001       2.83202256       2.06837601        3       1.00000000       0.00624523      -0.00451115       0.04554686
Ni       9.79347812       2.82860252       2.06595520        3       1.00000000      -0.02258011      -0.02513858       0.04293734
Ni       3.69746394       4.94606739       2.03058291        2       1.00000000       0.04884738      -0.03045426      -0.04004418
Ni       6.13762230       4.95541037       2.06600319        3       1.00000000       0.02520114       0.00104721       0.04179289
Ni       8.57335361       4.95084092       2.06277689        3       1.00000000      -0.02942142      -0.00513951       0.04786274
Ni      11.00314000       4.94542093       2.03381643        2       1.00000000      -0.05567582      -0.02102360       0.00475099
Ni       4.90748864       7.07756282       2.06209510        3       1.00000000       0.01850196       0.01195607       0.04566272
Ni       7.35164805       7.06780290       2.06872595        3       1.00000000      -0.00658667       0.00041680       0.05789425
Ni       9.80022551       7.07092705       2.06582959        3       1.00000000      -0.01404358       0.00818816       0.06609734
Ni      12.25496285       7.09834455       2.02895320        2       1.00000000       0.00029905       0.05274045      -0.01534071
Ni      -0.00250870       1.41408043       4.10553207        4       1.00000000      -0.01879664      -0.00469132      -0.05148844
Ni       2.44051720       1.40137917       4.09638770        4       1.00000000      -0.01805034      -0.02341074      -0.06163772
Ni       4.91161107       1.40947955       4.09477418        4       1.00000000       0.01792719       0.00245147      -0.07654118
Ni       7.35432252       1.42210477       4.10411514        4       1.00000000       0.01673731       0.01385766      -0.04541365
Ni       1.19888538       3.49589097       4.11044362        4       1.00000000      -0.00915919      -0.01200503      -0.04692035
Ni       3.70125418       3.50616063       4.09465345        4       1.00000000       0.01737264      -0.00271515      -0.08250934
Ni       6.13608380       3.53443018       4.10800514        4       1.00000000       0.02276664      -0.00726730      -0.04392946
Ni       8.57148794       3.53380892       4.10472835        4       1.00000000      -0.01616837      -0.00488609      -0.02091226
Pt       2.44991453       5.66146806       4.09753005        4       0.00000000       0.00090241       0.01915704       0.16211973
Ni       4.95075518       5.66086009       4.10526455        4       1.00000000       0.01724971       0.01789823      -0.05176769
Ni       7.35323537       5.65888481       4.10496563        4       1.00000000       0.00355152      -0.00521566      -0.02763072
Ni       9.75471242       5.65915708       4.10583041        4       1.00000000      -0.02097485      -0.00157311      -0.02948164
Ni       3.70075435       7.82388359       4.10476708        4       1.00000000       0.01114197       0.01598754      -0.05415420
Ni       6.13266080       7.78411893       4.10462123        4       1.00000000      -0.00029933      -0.00235105      -0.03681389
Ni       8.57180700       7.78312671       4.10834352        4       1.00000000      -0.01411140       0.00558991      -0.03533772
Ni      11.00598534       7.82314689       4.10411422        4       1.00000000       0.00212779       0.00788315      -0.05135967
Ni       0.00383160       0.00400340       6.12852827        6       1.00000000       0.00919639       0.00669829      -0.01123497
Ni       2.44799335      -0.00268962       6.12184375        6       1.00000000       0.00907556       0.02514312      -0.00419112
Ni       4.89850739       0.00249217       6.12309689        6       1.00000000      -0.02465116       0.03612653       0.00893016
Ni       7.35263025       0.00600098       6.12584763        6       1.00000000       0.00646992      -0.00164256      -0.01557101
Ni       1.22004075       2.11395026       6.12320756        6       1.00000000       0.02565077      -0.02302309       0.00819698
Ni       3.67750385       2.11394318       6.02459039        5       1.00000000      -0.00310453      -0.01864085       0.57201944
Ni       6.12996652       2.12108714       6.11907463        6       1.00000000      -0.02348158      -0.00257992      -0.02649449
Ni       8.57757308       2.12187928       6.12377633        6       1.00000000      -0.00235641       0.00190154      -0.04501623
Ni       2.44982849       4.21716805       6.15709369        7       1.00000000       0.01895263      -0.05973623       0.13064322
Ni       4.90785183       4.24378402       6.12045560        6       1.00000000      -0.01442007      -0.02340951       0.00262258
Ni       7.35250747       4.24409275       6.12399766        6       1.00000000       0.00815423       0.00135850      -0.03035808
Ni       9.79791836       4.24107916       6.12538463        6       1.00000000      -0.01097369       0.00383887      -0.00047628
Ni       3.70148452       6.38149121       6.16100647        7       1.00000000       0.03069231       0.02396753       0.11814941
Ni       6.13370169       6.36867693       6.12679170        6       1.00000000       0.01528191       0.00634823      -0.01174518
Ni       8.57130286       6.36867716       6.12672488        6       1.00000000      -0.01527930      -0.00125517       0.00334531
Ni      11.00393495       6.38163775       6.16020158        7       1.00000000      -0.03050268       0.01675889       0.11919226
