64
Lattice="10.680413855395152 -0.00933749304815152 0.006907214848980959 5.332120421510279 9.254953357700888 -0.002129781222763067 0.005639717307926165 -0.005264069299297299 9.30516903430206" Properties=species:S:1:pos:R:3:tags:I:1:initial_magmoms:R:1:forces:R:3 unique_id=7088e6078ad84e279fb76be0471737b8 stress="0.0008979785543019245 3.355262191635442e-06 -1.1218816580303943e-05 3.355262191635442e-06 0.000898879226728079 -1.7453004545664192e-06 -1.1218816580303943e-05 -1.7453004545664192e-06 0.0006813947178709659" energy=-424.109416209205 pbc="T T T"
Pt       0.00643600      -0.00249875       0.11794782        4       0.00000000       0.06737285      -0.00173731      -0.01692881
Pt       2.72365609       0.02066175       0.10721542        4       0.00000000       0.16849178       0.07691522      -0.07304966
Ni       5.33485402      -0.00234552       0.08765394        4       1.00000000      -0.02929231      -0.02491346       0.41709004
Pt       7.97292754      -0.00925352       0.10667029        4       0.00000000      -0.08040046       0.00827123      -0.05897426
Pt       1.34141037       2.34205347       0.11531387        4       0.00000000      -0.02250243       0.01292789       0.06288624
Ni       4.00660147       2.30527598       0.08644395        4       1.00000000      -0.01465525      -0.02570517       0.47142439
Pt       6.62604239       2.27873158       0.10925186        4       0.00000000      -0.09770844      -0.08668989       0.06011023
Pt       9.36795671       2.34192250       0.12915105        4       0.00000000       0.09142992       0.10621893       0.03552777
Pt       2.64316791       4.60844961       0.02769852        4       0.00000000      -0.09765918       0.05693624      -0.00439413
Pt       5.31850266       4.59429809       0.10024892        4       0.00000000      -0.02502206      -0.08398781       0.00424827
Pt       8.05286417       4.62975251       0.12263661        4       0.00000000       0.17148436       0.07112025       0.04716986
Ni      10.67692009       4.62577742       0.09336873        4       1.00000000      -0.00072472       0.02405544       0.38721013
Pt       3.99308161       6.93969142       0.10827173        4       0.00000000      -0.03978652      -0.01202524       0.02927954
Pt       6.67586781       6.94682165       0.12024827        4       0.00000000       0.09112105       0.06223409       0.01587778
Pt       9.38040910       6.93448754       0.06338267        4       0.00000000       0.07253250       0.02113101       0.12146578
Pt      11.96810306       6.93048155       0.04924022        4       0.00000000      -0.04038302      -0.03687563       0.04761604
Pt       1.31549294       0.75192867       2.37031115        3       0.00000000       0.08795701      -0.20549364       0.28862203
Pt       4.02654739       0.73852008       2.29849443        3       0.00000000       0.05077443      -0.07442273       0.03319233
Pt       6.65261320       0.72705318       2.32783465        3       0.00000000      -0.00081039      -0.11938128       0.20941445
Pt       9.37034048       0.76654824       2.35706026        3       0.00000000      -0.06018576       0.01369214       0.13656988
Pt       2.63749711       3.08569966       2.33173890        3       0.00000000      -0.12750748       0.09893397       0.24634186
Pt       5.33324641       3.07203620       2.32663629        3       0.00000000      -0.00416799       0.00811394       0.26289784
Pt       8.08362617       3.12209439       2.37625001        3       0.00000000       0.32272155       0.18898156       0.39343131
Ni      10.67021839       3.09997197       2.33953727        3       1.00000000      -0.02327570       0.18222183       0.11713844
Pt       4.00098825       5.42437116       2.35390969        3       0.00000000      -0.18606658       0.02878708       0.30157115
Pt       6.69915131       5.41987201       2.35324914        3       0.00000000       0.09039809       0.00057122       0.18911969
Ni       9.36371122       5.38955734       2.34554842        3       1.00000000       0.13162618       0.03052584       0.16476769
Pt      11.90691172       5.38983856       2.34738379        3       0.00000000      -0.46370172       0.06018386       0.09524428
Ni       5.34230396       7.71384499       2.34102455        3       1.00000000       0.07434814       0.02183939       0.15101523
Pt       8.03277391       7.68141570       2.37435032        3       0.00000000       0.19237125      -0.05576841       0.25749541
Ni      10.66684818       7.69011430       2.33538172        3       1.00000000      -0.08327693      -0.16148296       0.08690100
Pt      13.33113557       7.69413168       2.35574622        3       0.00000000      -0.17626192      -0.15679407       0.23503891
Pt       0.00382887       1.56171207       4.60472524        2       0.00000000      -0.00023512       0.21322934      -0.28204246
Pt       2.65165727       1.50758836       4.62640566        2       0.00000000       0.01191907      -0.09585542      -0.25332664
Pt       5.33469919       1.52122719       4.63414519        2       0.00000000      -0.08725418      -0.11006983      -0.12721365
Pt       8.03263574       1.55497707       4.62925436        2       0.00000000      -0.02615609      -0.05347062      -0.23208418
Pt       1.26480537       3.89478864       4.62822002        2       0.00000000      -0.36179633       0.10852750      -0.29079606
Pt       3.98073166       3.86279659       4.65288516        2       0.00000000      -0.16945883       0.01171089      -0.12899076
Pt       6.71445798       3.86529842       4.63233903        2       0.00000000       0.04938893       0.08260312      -0.19786807
Ni       9.35977716       3.86728901       4.62845974        2       1.00000000       0.15063357       0.16626550      -0.23740311
Pt       2.61120809       6.15868250       4.67845037        2       0.00000000      -0.24722509      -0.10494135      -0.00551670
Pt       5.36331053       6.20545675       4.60672855        2       0.00000000       0.15468908       0.13582866      -0.32321922
Pt       8.08136903       6.15633713       4.62703561        2       0.00000000       0.41461799      -0.22885921      -0.23273404
Ni      10.66692145       6.15298415       4.65137000        2       1.00000000      -0.11247633      -0.06746049      -0.09124724
Pt       4.03550364       8.47684776       4.59836064        2       0.00000000       0.05891570      -0.03416594      -0.36175164
Ni       6.66994661       8.47483839       4.63196436        2       1.00000000       0.04732559      -0.04297094      -0.21698844
Pt       9.33999806       8.41927582       4.63422563        2       0.00000000       0.10924794      -0.13571441      -0.19525832
Pt      11.98039820       8.42043351       4.63595742        2       0.00000000      -0.11384167      -0.16179313      -0.21003368
Pt       0.01282671      -0.01491012       6.86020461        1       0.00000000       0.02058253      -0.04108088      -0.07170804
Pt       2.69094804      -0.03074549       6.87149982        1       0.00000000       0.02642886      -0.03914669      -0.02944797
Pt       5.33974756      -0.07395786       6.95682007        1       0.00000000      -0.04100103      -0.29431554       0.06790375
Pt       7.99417804      -0.04267477       6.88352638        1       0.00000000      -0.04194825      -0.11065184      -0.09173418
Pt       1.35196119       2.35243098       6.87872739        1       0.00000000       0.01044908       0.23413178       0.01648749
Pt       3.99310641       2.32449007       6.96105478        1       0.00000000      -0.02253972      -0.04941090       0.06288322
Pt       6.66949520       2.30112367       6.89038559        1       0.00000000      -0.04799694      -0.04671321       0.00337002
Pt       9.35680700       2.32387645       6.87101195        1       0.00000000       0.10246118       0.17158197      -0.00058716
Ni       2.66014406       4.63329430       6.89611052        1       1.00000000      -0.10260074       0.05637993      -0.41276408
Pt       5.31095911       4.62631341       6.88091915        1       0.00000000      -0.01758144       0.08419301      -0.05397309
Pt       8.04643485       4.64905446       6.86695373        1       0.00000000       0.17801185       0.09441102       0.04546802
Pt      10.71007846       4.69416111       6.91560412        1       0.00000000       0.12938898       0.44244993      -0.07419615
Pt       3.95091180       6.90560275       6.87125308        1       0.00000000      -0.17558628      -0.11279664       0.00808026
Pt       6.70090475       6.94153311       6.85621262        1       0.00000000       0.03179536      -0.00349468      -0.07074745
Ni       9.36084314       6.92892825       6.89246723        1       1.00000000       0.13542766      -0.02951674      -0.36006841
Ni      12.00185517       6.91789741       6.89771739        1       1.00000000      -0.10282556      -0.06726771      -0.36781275
