64
Lattice="10.324588342178142 -0.021061181299097134 0.011204631016001863 5.144054653050342 8.909814722974257 0.003424035362908666 0.009148542915122276 -0.002053702215891573 8.850684286106045" Properties=species:S:1:pos:R:3:tags:I:1:initial_magmoms:R:1:forces:R:3 unique_id=7442232c48a34591a33a1feee6ae4c6f stress="0.0026963655382850407 -4.2003831648983225e-07 -1.2163938773023973e-05 -4.2003831648983225e-07 0.002697618619681985 -2.073550941449798e-05 -1.2163938773023973e-05 -2.073550941449798e-05 0.0022998745374807963" energy=-398.98086739027127 pbc="T T T"
Ni       0.04643321       0.00632358       0.18927024        4       1.00000000       0.06020643       0.04451382       0.12930600
Ni       2.53307371       0.01360982       0.23210132        4       1.00000000      -0.04798887       0.07569367       0.23782583
Pt       5.08588424      -0.03593599       0.15407245        4       0.00000000      -0.04612867       0.09583873      -0.17546847
Pt       7.77360101      -0.13374208       0.20191109        4       0.00000000      -0.02915583      -0.03833229       0.00898657
Ni       1.29507168       2.24038621       0.12054756        4       1.00000000       0.00392448       0.06498476       0.15479116
Pt       3.76899702       2.29473778       0.10833586        4       0.00000000       0.01309491       0.05841366      -0.14173177
Pt       6.42645982       2.26259385       0.23292128        4       0.00000000       0.00025633       0.03711941       0.05691476
Pt       9.14052105       2.24724249       0.16372927        4       0.00000000       0.02358307       0.06575630      -0.06183857
Ni       2.56962296       4.48850084       0.05972446        4       1.00000000       0.02875812       0.05373361      -0.08275100
Ni       5.10221591       4.48819426       0.12469432        4       1.00000000      -0.01989416       0.04590176       0.11121947
Pt       7.77421340       4.51299956       0.11117418        4       0.00000000       0.03592034       0.03514122      -0.14756657
Ni      10.37558370       4.46417782       0.09585035        4       1.00000000       0.05517367       0.01503934       0.07581175
Ni       3.83863736       6.61336247       0.12324336        4       1.00000000      -0.04552974      -0.09331617       0.13244723
Pt       6.38879621       6.72772160       0.18738712        4       0.00000000      -0.03323343       0.03425838      -0.13595545
Ni       9.02285547       6.65351487       0.19705007        4       1.00000000      -0.09917511       0.00098710       0.13626567
Ni      11.61327705       6.59845784       0.08936602        4       1.00000000       0.01654731      -0.03590761      -0.00506621
Ni       1.33237646       0.73982063       2.22122873        3       1.00000000       0.05621325       0.02163905       0.11124551
Ni       3.83850006       0.78032610       2.24649440        3       1.00000000       0.00422715       0.05090565       0.02983861
Ni       6.42090323       0.76259519       2.26961932        3       1.00000000      -0.05109874       0.00791978       0.06447673
Pt       9.13631091       0.71706965       2.27225011        3       0.00000000       0.04335803      -0.03023953       0.15399358
Ni       2.58089756       2.96292604       2.24459299        3       1.00000000       0.04417418      -0.01018099       0.00487387
Ni       5.09882920       2.99966938       2.27782953        3       1.00000000      -0.14301133       0.05075953       0.02504859
Ni       7.75769342       3.01838399       2.26219222        3       1.00000000       0.05900160       0.06419062       0.01004292
Ni      10.36509968       2.95785660       2.30312698        3       1.00000000       0.08523829      -0.03269607       0.11994732
Ni       3.90873751       5.18223612       2.23536205        3       1.00000000       0.07104898      -0.05742826       0.04857746
Ni       6.42003431       5.21129353       2.25209106        3       1.00000000      -0.02199470       0.02955542      -0.06153270
Ni       8.99145730       5.14411530       2.27091001        3       1.00000000      -0.01214545      -0.06687414       0.06588173
Pt      11.68066406       5.09733885       2.20359383        3       0.00000000       0.04810246      -0.02102568       0.05541442
Ni       5.16975132       7.37623232       2.25633612        3       1.00000000       0.00662339      -0.06845240       0.06062817
Ni       7.67340775       7.41554729       2.24907093        3       1.00000000      -0.07321849      -0.03777739       0.05148423
Pt      10.28330495       7.35423900       2.20524983        3       0.00000000       0.04174583      -0.10074487       0.11455588
Ni      12.94371806       7.32264310       2.24644839        3       1.00000000       0.12896841      -0.17603975       0.09147395
Ni       0.04457914       1.52847156       4.37272547        2       1.00000000       0.01982405       0.01131696      -0.01240908
Pt       2.54983812       1.57498574       4.34008944        2       0.00000000       0.00127055      -0.04941643       0.02633788
Ni       5.12404145       1.52589980       4.34279379        2       1.00000000      -0.04009281       0.06191723      -0.12237284
Pt       7.74909020       1.52902021       4.33758261        2       0.00000000      -0.02554716      -0.03715131      -0.02916219
Ni       1.30228312       3.70363667       4.42563610        2       1.00000000       0.02134122      -0.01216878      -0.03162381
Ni       3.84428354       3.75968293       4.39756685        2       1.00000000      -0.05270792       0.03448413      -0.13664844
Pt       6.39433565       3.79753807       4.31834489        2       0.00000000      -0.03274952       0.00466610      -0.07663714
Ni       9.04089889       3.70850823       4.34279131        2       1.00000000      -0.02548938      -0.01864032      -0.18171501
Ni       2.61842974       5.85574756       4.42509123        2       1.00000000       0.01201431      -0.08073533      -0.07148832
Ni       5.12334096       5.89795051       4.34263466        2       1.00000000      -0.02083383      -0.05166601      -0.16039412
Ni       7.71192900       5.91882696       4.33910104        2       1.00000000      -0.03657889       0.01311031      -0.15881874
Pt      10.33009567       5.80071076       4.42120048        2       0.00000000      -0.03275894       0.00888081      -0.00605565
Pt       3.94774330       8.05296519       4.36223854        2       0.00000000       0.02223893      -0.01412684       0.05194171
Ni       6.43461838       8.14293071       4.33506796        2       1.00000000      -0.02654454       0.00427458      -0.08415247
Pt       8.92468376       8.15195314       4.33134046        2       0.00000000      -0.02722858      -0.05284724      -0.00110933
Pt      11.62559536       8.10793893       4.33242591        2       0.00000000       0.01546724      -0.08168880      -0.12199278
Pt       0.02092522       0.01615791       6.59242472        1       0.00000000       0.00802571       0.04207337       0.11109925
Pt       2.57623178       0.07001394       6.63640337        1       0.00000000       0.02392496       0.02496709       0.21768597
Pt       5.15962387       0.00182036       6.48552856        1       0.00000000      -0.01000074       0.04637391       0.01235673
Pt       7.76082693      -0.09625447       6.54484524        1       0.00000000      -0.00779794      -0.00947146       0.16047034
Ni       1.33347892       2.31727226       6.54481054        1       1.00000000       0.06681568       0.08927202      -0.03118575
Ni       3.83056433       2.31588264       6.47258699        1       1.00000000      -0.04453344       0.11107391      -0.16214750
Pt       6.38767737       2.32274274       6.53059556        1       0.00000000      -0.07339593       0.05644193       0.12701269
Pt       9.11792852       2.33362151       6.48102495        1       0.00000000       0.05166302       0.08537651       0.01498022
Ni       2.58205979       4.45923732       6.52556263        1       1.00000000       0.00157905      -0.02959625      -0.15922961
Ni       5.06275895       4.45924564       6.54051067        1       1.00000000      -0.20339176       0.02237245      -0.08808726
Ni       7.74215137       4.44675961       6.46639974        1       1.00000000       0.00707364       0.03428369      -0.22321474
Ni      10.41858757       4.43321061       6.56958749        1       1.00000000       0.19978233      -0.01636541      -0.01203926
Ni       3.82755735       6.58230019       6.55040459        1       1.00000000      -0.05436410      -0.11956698      -0.02731964
Pt       6.38394778       6.58032661       6.45465534        1       0.00000000      -0.03893156      -0.01642579      -0.14440022
Pt       9.05982826       6.56489574       6.63542357        1       0.00000000       0.01348234      -0.04472438       0.15292756
Ni      11.65635165       6.57161742       6.57603686        1       1.00000000       0.08485227      -0.09963033      -0.07174913
