64
Lattice="10.423431404498949 0.027285244981293724 0.03405091981957415 5.235345417551753 9.051013403630623 -0.012378869808285693 0.0 0.0 21.649820424866775" Properties=species:S:1:pos:R:3:tags:I:1:initial_magmoms:R:1:forces:R:3 unique_id=ef4323f0280547669e08a61a1754f073 energy=-381.1525254427066 stress="0.005716330136212398 0.00015254587476227927 0.00040197022125945463 0.00015254587476227927 0.00565404931642333 -0.0001697983652138335 0.00040197022125945463 -0.0001697983652138335 -0.0018387598304314048" pbc="T T T"
Ni      -0.03475208      -0.00208421       0.09560214        1       1.00000000      -0.23057209      -0.08248390      -0.15519569
Ni       2.62079851      -0.00616545       0.00319012        0       1.00000000       0.07416036      -0.02969666       0.26847251
Ni       5.23202949      -0.02129761       0.09123086        1       1.00000000       0.10999149       0.07902227      -0.23447121
Ni       7.84492901      -0.02116201       0.06427439        1       1.00000000       0.02183181      -0.07219282       0.57653745
Ni       1.30566566       2.26509837       0.08042551        1       1.00000000       0.07149834       0.07071139      -0.29490937
Pt       3.86474950       2.30301861       0.08317878        1       0.00000000       0.01595754       0.13320844      -0.75976440
Pt       6.54264035       2.20366889       0.08488912        1       0.00000000      -0.04585171      -0.12786581      -0.27185346
Ni       9.14582419       2.24742493       0.09789413        1       1.00000000      -0.08101692      -0.17265717      -0.04271221
Ni       2.61341286       4.53439657       0.07423184        1       1.00000000      -0.01046949      -0.05369087      -0.31853405
Ni       5.23164656       4.53278588       0.07811942        1       1.00000000       0.18970853      -0.06678345      -0.18043192
Pt       7.90223725       4.55816890       0.01568418        0       0.00000000      -0.01389152      -0.01018468       0.17937666
Ni      10.46007376       4.55965127       0.00000000        0       1.00000000       0.04476525       0.05986309       0.26032024
Ni       3.90516725       6.81733824       0.09438477        1       1.00000000      -0.04405510       0.18442860      -0.05331586
Pt       6.52453440       6.84280407       0.12517166        1       0.00000000      -0.06133613       0.04234332      -0.39656689
Ni       9.16739366       6.81072462       0.00719909        0       1.00000000      -0.01495392      -0.01342701       0.35082731
Ni      11.76031884       6.81874713       0.00624393        0       1.00000000       0.14598235       0.06402609       0.34861561
Pt       1.28925554       0.69144452       2.07603303        2       0.00000000       0.03482061      -0.08632081       0.01626361
Pt       3.96884484       0.76184614       2.18657231        3       0.00000000       0.09062160      -0.01724890       0.09986642
Ni       6.56165289       0.74590846       2.20572450        3       1.00000000       0.14555330      -0.01915063       0.12425549
Ni       9.08327127       0.73591961       2.15289297        3       1.00000000      -0.17518291      -0.03537843      -0.06348806
Ni       2.61282315       3.02636366       2.16007346        3       1.00000000      -0.04046847       0.00551599       0.24958009
Ni       5.24365018       3.02144423       2.19471611        3       1.00000000       0.11850081      -0.01740222       0.20729855
Pt       7.79322482       3.02665716       2.29810712        4       0.00000000      -0.06272224       0.04800976       0.13507914
Pt      10.40449519       3.04810363       2.11536180        2       0.00000000      -0.09991821       0.08557780      -0.00358178
Pt       3.97980675       5.29198250       2.07805378        2       0.00000000       0.09175189       0.02321939       0.01017146
Ni       6.57221465       5.28608905       2.18787865        3       1.00000000       0.20032075      -0.04942151       0.20022523
Ni       9.11163014       5.31101652       2.21684117        3       1.00000000      -0.13147701       0.03587090       0.21208059
Pt      11.73530480       5.31123902       2.11026134        2       0.00000000       0.00787837      -0.00211953       0.01616872
Ni       5.20786239       7.54723498       2.13948038        2       1.00000000      -0.10758944       0.01964296       0.10992262
Ni       7.85405003       7.50079446       2.17475575        3       1.00000000       0.10518191      -0.14985903       0.13508226
Pt      10.44688596       7.52834310       2.09894069        2       0.00000000      -0.00727446      -0.03439111      -0.03060059
Ni      13.07327888       7.60615246       2.13548747        2       1.00000000      -0.02771045       0.12062876      -0.10370056
Pt      -0.07620136       1.53655523       4.30920460        5       0.00000000      -0.16099086       0.07834130      -0.17305698
Pt       2.62983198       1.48916014       4.33866006        5       0.00000000      -0.11680061      -0.02091710      -0.04120990
Ni       5.28151355       1.51371436       4.33999841        5       1.00000000       0.04493363       0.07216289      -0.37264618
Ni       7.80478123       1.54254079       4.35461420        6       1.00000000      -0.06846055       0.03755338      -0.23090777
Pt       1.23812037       3.80198274       4.36066042        6       0.00000000      -0.13300000       0.02629123      -0.06546111
Pt       4.00188183       3.72551748       4.28311666        5       0.00000000       0.04426250      -0.04516837      -0.17373049
Ni       6.59721996       3.76139192       4.36874150        6       1.00000000       0.07838203       0.05533315      -0.12656994
Ni       9.08868623       3.83741245       4.40465220        6       1.00000000      -0.08572089       0.09875270      -0.14138195
Pt       2.58419148       6.04240225       4.34165448        5       0.00000000      -0.00926689       0.00497615      -0.09666842
Pt       5.32878393       5.98302213       4.28401842        5       0.00000000       0.10842954      -0.08352034      -0.14610729
Ni       7.90730878       5.95718058       4.35459251        6       1.00000000       0.08579428      -0.17084678      -0.25834868
Ni      10.39313133       6.01445837       4.42585648        6       1.00000000      -0.04738856      -0.04805342      -0.05583257
Pt       3.91686890       8.31367674       4.26891990        5       0.00000000       0.01198747       0.00403321      -0.17835044
Pt       6.57306939       8.25418552       4.30263929        5       0.00000000      -0.06377087       0.02387222      -0.11283610
Pt       9.16072275       8.19757079       4.39136876        6       0.00000000      -0.05451416      -0.09578223      -0.04418281
Pt      11.75292531       8.36593196       4.35112080        6       0.00000000      -0.07310613       0.06022476      -0.06409378
Pt       0.00919960      -0.01526653       6.64195299        8       0.00000000       0.05360177       0.01830710       0.16093235
Ni       2.63639279      -0.03602338       6.59032748        8       1.00000000       0.01238205       0.00623934      -0.09144259
Pt       5.22807309      -0.10531311       6.64982042        8       0.00000000      -0.04799530       0.10456735       0.13667078
Ni       7.81707323       0.00181988       6.59463477        8       1.00000000       0.01407076       0.03401802      -0.23698153
Pt       1.30584153       2.25135992       6.63841067        8       0.00000000      -0.02531969       0.03519554       0.31947636
Pt       3.94118727       2.20788183       6.53031082        7       0.00000000       0.11156161       0.00089223       0.80580195
Pt       6.56380811       2.23161267       6.45709291        7       0.00000000      -0.09921329      -0.05267691       0.42860324
Pt       9.11813573       2.34375934       6.60911621        8       0.00000000      -0.03328932       0.13677034       0.00719629
Pt       2.55222283       4.55294460       6.63535323        8       0.00000000       0.05412137      -0.04533076       0.29033478
Pt       5.29178851       4.52395450       6.59431679        8       0.00000000       0.05175787       0.04814992       0.26709663
Ni       7.89563741       4.54446270       6.46764357        7       1.00000000       0.02295918       0.06476920      -0.05020332
Ni      10.39660765       4.59130529       6.57257173        8       1.00000000      -0.13609779       0.12663461      -0.29887628
Pt       3.87530756       6.81777615       6.62991627        8       0.00000000       0.13997147      -0.05331923       0.12465146
Pt       6.68073411       6.76643372       6.53309609        7       0.00000000       0.01944864      -0.07405574       0.37393080
Ni       9.18799215       6.73656561       6.56116270        8       1.00000000       0.08061004      -0.15805321      -0.29357916
Ni      11.71152653       6.78424285       6.59088415        8       1.00000000      -0.09337418      -0.12115480      -0.25324526
