64
Lattice="10.705287773806083 0.0013731238580336946 -0.005383289764773002 5.353833047046641 9.27942246416574 0.011987273771157644 -0.004395437687080379 0.0138394172272091 9.303334196438815" Properties=species:S:1:pos:R:3:tags:I:1:initial_magmoms:R:1:forces:R:3 unique_id=5a28abdc0f4c4469827603d9a48ec470 stress="0.002539573840368424 -5.087126107059203e-06 2.342191849709816e-06 -5.087126107059203e-06 0.002517450257997045 -2.431091638420699e-07 2.342191849709816e-06 -2.431091638420699e-07 0.0019225294962374531" energy=-425.00936750959767 pbc="T T T"
Ni       0.00385997      -0.01487119       0.11306420        4       1.00000000      -0.00718258      -0.02673162       0.22181008
Pt       2.61216925      -0.05481416       0.12034177        4       0.00000000      -0.08950089      -0.08077633      -0.02152897
Pt       5.37155723       0.03010692       0.08624264        4       0.00000000       0.00163886      -0.00238134       0.05491054
Pt       8.04803430       0.02802059      -0.00699669        4       0.00000000       0.00054064       0.00235060      -0.13997399
Pt       1.31464278       2.27871728       0.10430615        4       0.00000000      -0.03949394      -0.04700448       0.04259622
Pt       4.04820907       2.31549253       0.10263857        4       0.00000000      -0.01032507      -0.00625908       0.05968313
Ni       6.69889138       2.32025122       0.03519532        4       1.00000000       0.02300825       0.00148232       0.11678995
Pt       9.34043088       2.29476995       0.00362173        4       0.00000000      -0.03560439       0.01999908      -0.11284727
Pt       2.68529892       4.65222876       0.09453202        4       0.00000000      -0.00092235       0.06904842       0.02841156
Pt       5.38548127       4.64897518       0.10786285        4       0.00000000      -0.00944950       0.04339850       0.03839526
Pt       7.99734448       4.63083662       0.10183898        4       0.00000000      -0.00346095      -0.02552289       0.04547595
Pt      10.69794795       4.64123820       0.08866454        4       0.00000000       0.02477782       0.02739519       0.05938085
Pt       4.09450824       7.01838276       0.12934757        4       0.00000000       0.12957266       0.11877083       0.04447310
Ni       6.68349515       6.98024553       0.13960090        4       1.00000000      -0.01891715       0.06666436       0.25640436
Pt       9.31740025       6.97044802       0.12379356        4       0.00000000      -0.03295040      -0.01633365       0.04034849
Pt      12.05559707       6.97324092       0.02780470        4       0.00000000       0.04658600       0.01137763      -0.04314866
Pt       1.31495750       0.68812152       2.32438297        3       0.00000000      -0.03844922      -0.05492057       0.02570997
Pt       3.98500583       0.73862376       2.35494148        3       0.00000000      -0.03117703      -0.05185583       0.03473027
Pt       6.70593240       0.78025895       2.33834481        3       0.00000000       0.05968628      -0.01936283       0.10987411
Pt       9.39533470       0.73346779       2.31863497        3       0.00000000      -0.03721563      -0.03076300      -0.01152932
Pt       2.66060539       3.09788252       2.37729600        3       0.00000000      -0.03562624      -0.00698324       0.00681505
Pt       5.36786235       3.10396829       2.34737165        3       0.00000000       0.02248987       0.04230280       0.06701390
Pt       8.02588715       3.09214331       2.34272994        3       0.00000000       0.03484646      -0.01725474       0.09903208
Pt      10.70772797       3.09607275       2.38241012        3       0.00000000      -0.00174428      -0.03064286       0.03185200
Pt       4.02487191       5.45618261       2.37659416        3       0.00000000      -0.01935214       0.05059278       0.00952687
Pt       6.69083296       5.52657141       2.32766581        3       0.00000000       0.01033431       0.13627493       0.02722885
Pt       9.35632017       5.44891067       2.38425010        3       0.00000000       0.02128038       0.01142776       0.06655661
Pt      12.04194249       5.42821341       2.47445497        3       0.00000000       0.00223114      -0.00876180       0.28078386
Ni       5.37988484       7.74030215       2.31310917        3       1.00000000       0.02729483       0.02242270      -0.02951510
Ni       7.99951879       7.73350727       2.33209086        3       1.00000000      -0.01983388      -0.00164919       0.03128283
Pt      10.68840300       7.72235200       2.39005063        3       0.00000000       0.04936229      -0.01737014       0.05341098
Pt      13.40120226       7.72988958       2.38846965        3       0.00000000      -0.03127087      -0.01404717       0.02965036
Pt      -0.00831089       1.57364705       4.64819944        2       0.00000000      -0.01344025      -0.05176555      -0.03356837
Pt       2.65492872       1.58101416       4.62562441        2       0.00000000      -0.03132427       0.00335192      -0.03390444
Pt       5.37037065       1.54720274       4.63402322        2       0.00000000       0.01549229      -0.04763656      -0.09267141
Pt       8.02780913       1.54476923       4.73410214        2       0.00000000      -0.03274217      -0.01915853       0.06963289
Ni       1.33288662       3.91743540       4.65198492        2       1.00000000      -0.02500787       0.09129566      -0.01340227
Pt       3.94654485       3.92034160       4.62124706        2       0.00000000      -0.06461203       0.05577779      -0.06782214
Pt       6.69376280       3.86368949       4.63681211        2       0.00000000      -0.00712912       0.03019098      -0.11039295
Pt       9.42411126       3.89664429       4.64672049        2       0.00000000       0.04342468       0.03002010      -0.07331874
Ni       2.63110324       6.18158115       4.66300588        2       1.00000000      -0.09600154      -0.03644538       0.01393436
Pt       5.31966136       6.20650301       4.61482321        2       0.00000000      -0.03058824       0.02503839       0.00925647
Pt       8.05509606       6.19787029       4.61390916        2       0.00000000      -0.00892303      -0.00182976       0.04317599
Ni      10.74632017       6.17723432       4.65985649        2       1.00000000       0.09255518      -0.05679780       0.02996966
Pt       3.99653653       8.50044096       4.63910974        2       0.00000000       0.05272872       0.01243772      -0.06934771
Pt       6.67934130       8.49693861       4.57657371        2       0.00000000      -0.00682203      -0.06390513      -0.08316984
Pt       9.38175118       8.48335264       4.61685327        2       0.00000000      -0.00735252      -0.01779230      -0.01444485
Pt      12.06146389       8.41678322       4.69463042        2       0.00000000       0.02869661      -0.14358079      -0.01566114
Pt      -0.07431517       0.04002665       6.95715279        1       0.00000000      -0.11408587       0.04163975       0.08879438
Pt       2.67265160       0.00589985       6.88078480        1       0.00000000      -0.01143983      -0.01843007      -0.07846142
Pt       5.44898786       0.01283387       6.87126431        1       0.00000000       0.17274823       0.01868409      -0.01819872
Ni       8.02117911       0.02915416       6.85801411        1       1.00000000       0.02189057       0.04284307      -0.25435428
Pt       1.29811341       2.34974913       6.86214160        1       0.00000000      -0.01912774       0.03593011      -0.02855997
Pt       4.05378400       2.32700780       6.87622605        1       0.00000000       0.06438460      -0.03198980      -0.04575034
Ni       6.71446451       2.31202731       6.93180650        1       1.00000000       0.08451454      -0.05659027      -0.11352938
Ni       9.33915528       2.31628406       6.86081013        1       1.00000000      -0.04205519      -0.02174472      -0.24854633
Pt       2.64225751       4.69256919       6.82816927        1       0.00000000      -0.00206131       0.03336469      -0.04601877
Pt       5.36418657       4.62352264       6.88580464        1       0.00000000       0.00876454       0.00943199      -0.04563660
Pt       8.03630208       4.57233783       6.88243687        1       0.00000000       0.02330722      -0.13295557      -0.03668606
Pt      10.71594253       4.66660181       6.82653603        1       0.00000000       0.01411602       0.04068905      -0.02213410
Pt       3.93841594       7.00025694       6.87334268        1       0.00000000      -0.12041172       0.06515371      -0.01381226
Pt       6.67879874       6.97232068       6.95888856        1       0.00000000      -0.03797850       0.01241641       0.06465684
Pt       9.41661283       6.95983089       6.86290739        1       0.00000000       0.05439159       0.01472029      -0.04044033
Ni      12.04766979       6.97332190       6.84804794        1       1.00000000       0.00291514      -0.02725065      -0.24319208
