64
Lattice="10.262166460548412 0.0034893937237790895 -0.04012589960171677 5.1341051338828105 8.933946992733494 0.005049565571028296 -0.032762659831451074 0.023676306549483377 8.846588533180459" Properties=species:S:1:pos:R:3:tags:I:1:initial_magmoms:R:1:forces:R:3 unique_id=5dc15edf98b74d0a8d60e8107f7200ab stress="-0.0004575131187915457 -8.525998698011622e-07 -7.949104462805066e-07 -8.525998698011622e-07 -0.00046886558981130977 -2.5615767714474e-06 -7.949104462805066e-07 -2.5615767714474e-06 -0.0003791551105915489" energy=-399.7196789177044 pbc="T T T"
Ni      -0.00692563       0.01569598       0.10562300        4       1.00000000      -0.04131895       0.04983483       0.18142493
Ni       2.52754490       0.00835283       0.13560574        4       1.00000000      -0.11114168       0.01732726       0.27793485
Ni       5.15682192      -0.01679064       0.04795172        4       1.00000000       0.05637802      -0.03169860       0.10550002
Ni       7.70705770      -0.01040886       0.11084353        4       1.00000000       0.08775269      -0.00039135       0.17464634
Ni       1.26158955       2.21106223       0.10041391        4       1.00000000      -0.01484824      -0.06546242       0.19052812
Pt       3.80814664       2.18715905       0.09876978        4       0.00000000      -0.05355619      -0.06725500       0.27855021
Ni       6.42974903       2.21898096       0.13937475        4       1.00000000       0.00508281       0.02312609       0.36539937
Pt       9.02249321       2.22194330       0.01308466        4       0.00000000      -0.04992299       0.01087335      -0.26722357
Pt       2.47628830       4.50567759       0.11093780        4       0.00000000      -0.11941644       0.06476785      -0.04896333
Pt       5.15944935       4.48858767       0.03387976        4       0.00000000      -0.00510629       0.02054965      -0.12253348
Ni       7.71812849       4.46899426       0.05435147        4       1.00000000       0.03205525       0.06402579       0.10805428
Ni      10.25061383       4.46032711       0.07102848        4       1.00000000      -0.09266524      -0.05291266       0.19732416
Ni       3.83776583       6.73808513       0.17120639        4       1.00000000       0.02775972       0.04986291       0.22377981
Pt       6.38544029       6.77436656       0.04311624        4       0.00000000      -0.01275942       0.09741925      -0.19835606
Pt       9.05096669       6.68267895       0.04164159        4       0.00000000       0.01082587       0.02510090      -0.13542878
Ni      11.54534254       6.72679213       0.12830394        4       1.00000000      -0.01328736       0.07380725       0.19938713
Ni       1.20595591       0.76598572       2.19527030        3       1.00000000      -0.09777998      -0.01828769      -0.03019012
Pt       3.79782270       0.68430145       2.22214231        3       0.00000000       0.01583788      -0.07007008      -0.07124741
Pt       6.44774360       0.71807864       2.17923176        3       0.00000000       0.10790208      -0.01280345       0.12222944
Ni       9.04242449       0.75703554       2.18398057        3       1.00000000       0.11475337       0.09911711      -0.04022139
Ni       2.48688875       3.00562981       2.23568455        3       1.00000000      -0.09729354       0.01883299       0.02711182
Pt       5.08541519       3.05478044       2.26686576        3       0.00000000      -0.10838881       0.01320696      -0.05980467
Pt       7.79204546       3.03830062       2.22195831        3       0.00000000       0.19974013       0.00667240      -0.05878274
Ni      10.29908790       2.98817324       2.18559864        3       1.00000000       0.07001198      -0.03041265      -0.07534240
Ni       3.83289359       5.22553068       2.23100701        3       1.00000000      -0.03604555      -0.05929704      -0.00716954
Ni       6.41950794       5.24034408       2.22062361        3       1.00000000       0.02872255      -0.06177412      -0.11020343
Ni       9.02234159       5.21946580       2.23350564        3       1.00000000       0.13268000      -0.00168138       0.11148310
Ni      11.48099595       5.20104503       2.19174358        3       1.00000000      -0.16512932      -0.03165716       0.03054721
Ni       5.12465567       7.48189569       2.21386168        3       1.00000000       0.04032558       0.12097682      -0.06777939
Pt       7.66078299       7.38878985       2.31784557        3       0.00000000       0.00543718      -0.13642047       0.00362222
Ni      10.26544599       7.39881248       2.24452046        3       1.00000000      -0.00212120      -0.12728411       0.17921553
Pt      12.83746961       7.40160753       2.13912249        3       0.00000000      -0.05298478       0.02423651       0.05071732
Ni      -0.05363093       1.52338939       4.41044094        2       1.00000000      -0.13651834       0.09673958      -0.13695313
Pt       2.45032068       1.46395866       4.34157865        2       0.00000000      -0.07628190      -0.04150567       0.02125277
Pt       5.15458746       1.42378586       4.40791321        2       0.00000000       0.05600321      -0.00603927       0.24557391
Ni       7.73760223       1.52967346       4.37380420        2       1.00000000       0.10264338       0.06474703      -0.03227920
Pt       1.16620578       3.72965540       4.39806755        2       0.00000000      -0.03130987       0.07218217      -0.03449334
Ni       3.81926440       3.75376497       4.39070731        2       1.00000000      -0.07928136       0.02627088      -0.09216804
Pt       6.49243997       3.77528676       4.41116851        2       0.00000000       0.05814693       0.02772588       0.08079127
Ni       8.97977406       3.75920170       4.41107741        2       1.00000000       0.00847519       0.13059953       0.00098881
Pt       2.50820625       5.95511549       4.36987242        2       0.00000000      -0.06392379      -0.01611222       0.13170538
Pt       5.17724211       5.99591247       4.33679770        2       0.00000000       0.01799890       0.01308028      -0.15366676
Ni       7.75084238       5.98101421       4.41787426        2       1.00000000       0.10168353      -0.08020523       0.00008616
Ni      10.17601309       5.97704262       4.35423278        2       1.00000000      -0.05601967      -0.01666837      -0.12998364
Pt       3.88015781       8.29784923       4.35740470        2       0.00000000      -0.02315980       0.07682910       0.05127306
Ni       6.41523612       8.19125834       4.39718465        2       1.00000000       0.03499987       0.00650477      -0.01618355
Ni       8.97729741       8.13102636       4.41186489        2       1.00000000       0.04053160      -0.08536660       0.04544492
Ni      11.49532850       8.17111926       4.38236894        2       1.00000000      -0.01350352      -0.15221091      -0.00813003
Ni      -0.00214252       0.05515121       6.55757131        1       1.00000000       0.04610611       0.08624178      -0.12209824
Pt       2.51654110      -0.05704520       6.56914939        1       0.00000000       0.02313885      -0.04924235       0.12682246
Ni       5.08932868      -0.00483860       6.53935221        1       1.00000000      -0.03522601      -0.04080971      -0.08079634
Pt       7.69765782       0.04863729       6.55796202        1       0.00000000       0.03477574       0.01426781       0.01758504
Ni       1.20514519       2.25772578       6.56733080        1       1.00000000      -0.12266401      -0.02794646      -0.06269633
Pt       3.77779938       2.30949156       6.48846417        1       0.00000000      -0.08161743       0.04736029      -0.30784633
Pt       6.45297914       2.31355480       6.61547314        1       0.00000000       0.13284478       0.11457296       0.24180179
Ni       9.00949756       2.28235157       6.42427312        1       1.00000000       0.09796197       0.05648098      -0.34471217
Ni       2.51394690       4.47215309       6.49887050        1       1.00000000      -0.13289617       0.01900256      -0.17464717
Ni       5.13704884       4.50061266       6.46991799        1       1.00000000       0.08719041       0.05627760      -0.33807543
Ni       7.72775426       4.52889667       6.53272291        1       1.00000000       0.22321368       0.12402865      -0.08141857
Ni      10.19925591       4.45707547       6.52142673        1       1.00000000      -0.11829210      -0.06327517      -0.07521101
Pt       3.89501717       6.68267812       6.63798618        1       0.00000000       0.10223349      -0.05494164       0.11322933
Ni       6.43192639       6.68443409       6.46462124        1       1.00000000       0.10853928      -0.17495948      -0.30366333
Ni       8.92884460       6.67946087       6.43570394        1       1.00000000      -0.06267743      -0.13989137      -0.22050740
Pt      11.42119728       6.68181815       6.55421226        1       0.00000000      -0.10461468      -0.09606712       0.10476555
