64
Lattice="10.284613539092376 -0.020437842104723512 0.036491099197003746 5.124607079084963 8.824901936418456 -0.04409293041694244 0.02979485772864806 -0.058773282597043584 8.79147238208656" Properties=species:S:1:pos:R:3:tags:I:1:initial_magmoms:R:1:forces:R:3 unique_id=c2fbf30aeebb48559eafb2ef7e5996b2 stress="0.00022364687338202738 2.8041089691260425e-06 -1.2227513855428773e-05 2.8041089691260425e-06 0.00023128408951399865 7.763992951567425e-06 -1.2227513855428773e-05 7.763992951567425e-06 0.0002259251286832048" energy=-396.16133410392695 pbc="T T T"
Ni       0.02159937      -0.01549703       0.17245949        4       1.00000000       0.03849447      -0.00119760       0.33540908
Ni       2.53474863       0.00271295       0.21451487        4       1.00000000      -0.08753700       0.03699685       0.41407567
Pt       5.11341623      -0.07504620       0.13612082        4       0.00000000      -0.00598929      -0.11143138       0.27552209
Ni       7.74706178      -0.08278998       0.20423792        4       1.00000000       0.06652806      -0.10993469       0.38762272
Ni       1.28980419       2.20788229       0.09534529        4       1.00000000       0.01014899       0.02282055       0.24994218
Pt       3.76771932       2.25370391       0.09572957        4       0.00000000      -0.02504859       0.06013495      -0.12973242
Pt       6.41707421       2.22148434       0.05939469        4       0.00000000       0.01653374       0.03143955      -0.10868014
Pt       9.08793983       2.18114453       0.14076158        4       0.00000000       0.10322544      -0.07074281       0.15107293
Ni       2.55961788       4.44153369       0.04098982        4       1.00000000       0.05465967       0.08504805      -0.00178596
Ni       5.08866653       4.44083818       0.08820058        4       1.00000000      -0.09080309       0.10601307       0.22224653
Pt       7.74874475       4.45445748       0.10174677        4       0.00000000       0.04922526       0.03104866      -0.02629605
Ni      10.33341713       4.41524437       0.08284622        4       1.00000000       0.17253548       0.04107275       0.10143133
Ni       3.81033586       6.59905542       0.07230371        4       1.00000000      -0.06820624      -0.07357268       0.19665306
Pt       6.36621066       6.65467336       0.15602239        4       0.00000000      -0.08755111      -0.02718503       0.05016976
Ni       8.99328398       6.58257942       0.13532977        4       1.00000000      -0.04804240      -0.03557319       0.21366945
Ni      11.59930112       6.55858366       0.06716792        4       1.00000000       0.12293574      -0.08005943       0.06653368
Ni       1.31773703       0.71977007       2.20137018        3       1.00000000       0.03115027       0.00946045       0.09114264
Ni       3.81252499       0.74357717       2.22755809        3       1.00000000       0.02269924       0.03918260       0.02208678
Pt       6.43005668       0.77846392       2.29985885        3       0.00000000      -0.12586336       0.10737777      -0.04603319
Pt       9.08202500       0.69429690       2.28217201        3       0.00000000       0.01526964       0.15161170       0.00753758
Ni       2.57175537       2.92007570       2.21863575        3       1.00000000       0.05224700       0.02619708       0.02617795
Ni       5.10289596       2.97762495       2.23765067        3       1.00000000      -0.16057678       0.12100133       0.01816876
Ni       7.73689793       2.97042489       2.26774888        3       1.00000000       0.12900525       0.05348982       0.00668606
Ni      10.31340328       2.91625759       2.27640491        3       1.00000000       0.06545759      -0.05545989       0.15675920
Ni       3.88574761       5.12589712       2.19255830        3       1.00000000       0.08136179      -0.03471237       0.06799162
Ni       6.40483001       5.13022651       2.24059928        3       1.00000000      -0.04848688       0.06305777      -0.01045830
Ni       8.96986106       5.08154287       2.25334899        3       1.00000000      -0.02785518      -0.16865147       0.18277965
Pt      11.61862733       5.04134232       2.22790179        3       0.00000000       0.15379067      -0.09866816       0.07548628
Ni       5.14373454       7.30049841       2.20888169        3       1.00000000       0.05419663      -0.17456839       0.07267780
Ni       7.65755680       7.32860368       2.20432262        3       1.00000000      -0.17053622      -0.10025899       0.04141523
Pt      10.23723582       7.23201676       2.18850713        3       0.00000000       0.01507482      -0.05922546      -0.11232512
Ni      12.89169180       7.27149162       2.16241388        3       1.00000000       0.09654890      -0.17027102       0.00017806
Ni       0.03035567       1.49144360       4.33373444        2       1.00000000       0.03304094       0.12351982      -0.02991727
Pt       2.54529665       1.53517594       4.31106234        2       0.00000000      -0.03965651       0.04261865       0.05014860
Ni       5.13629974       1.48874674       4.37718143        2       1.00000000      -0.16088030       0.11392855      -0.12705188
Ni       7.73385435       1.46452443       4.38610331        2       1.00000000       0.06987326       0.02075472      -0.00124803
Ni       1.27471033       3.68116316       4.37546103        2       1.00000000      -0.03271964       0.05308687       0.01013023
Ni       3.85390941       3.69153733       4.36531484        2       1.00000000      -0.07208150       0.14493590      -0.15190477
Pt       6.42095307       3.66182063       4.34234786        2       0.00000000      -0.02602486       0.00673182      -0.13073423
Ni       9.03524809       3.67063195       4.32593110        2       1.00000000       0.04593496       0.04121389      -0.23401619
Ni       2.59252097       5.78000809       4.37152698        2       1.00000000       0.06210691      -0.21567426      -0.03742145
Ni       5.11949883       5.80997048       4.29984946        2       1.00000000      -0.03090827      -0.15691959      -0.21425151
Ni       7.71788538       5.80714715       4.29924874        2       1.00000000      -0.00372506      -0.04199894      -0.20813461
Ni      10.29720491       5.75430310       4.37431065        2       1.00000000       0.00156786      -0.15526611      -0.05239329
Pt       3.91964245       7.98785825       4.29019204        2       0.00000000       0.01354075      -0.14475834       0.25649404
Ni       6.42034985       8.03721344       4.27700337        2       1.00000000      -0.05773694      -0.02859797      -0.13227468
Pt       8.91870253       8.02114855       4.27793542        2       0.00000000      -0.04788366       0.03152206       0.10319465
Pt      11.59799792       7.97152418       4.32630598        2       0.00000000       0.00405685      -0.18779749       0.15579368
Pt       0.02581995      -0.01666578       6.54984833        1       0.00000000       0.01891673       0.09337670       0.11174988
Pt       2.58166874       0.02687643       6.58529309        1       0.00000000      -0.04318522       0.13358874       0.23865261
Pt       5.15766488       0.02827063       6.47350600        1       0.00000000       0.02736883       0.17852271      -0.38337404
Pt       7.72972345      -0.08788275       6.60489593        1       0.00000000      -0.08311147      -0.01732699       0.17154679
Ni       1.31925390       2.25406154       6.49593235        1       1.00000000       0.06772197       0.26483127      -0.12362269
Ni       3.86979623       2.25336802       6.43009008        1       1.00000000      -0.07303043       0.27482387      -0.26132284
Ni       6.42173873       2.21310701       6.42426315        1       1.00000000      -0.03881198       0.13860692      -0.31379635
Pt       9.02571949       2.26101690       6.41377860        1       0.00000000       0.01419273       0.17508748      -0.31403983
Ni       2.58129059       4.38117171       6.46722002        1       1.00000000       0.00739800      -0.00741040      -0.22805356
Ni       5.10122132       4.33393603       6.49142630        1       1.00000000      -0.20704820      -0.04002225      -0.13376698
Ni       7.70618165       4.34296247       6.43238322        1       1.00000000      -0.08573323       0.00803781      -0.26205783
Ni      10.36362313       4.35682082       6.49029474        1       1.00000000       0.25703860       0.03341462      -0.23056569
Ni       3.82481335       6.49925551       6.47795233        1       1.00000000      -0.07529381      -0.22159149      -0.11998593
Pt       6.38215083       6.47827548       6.39358369        1       0.00000000      -0.09219804      -0.05900748      -0.27740466
Pt       9.06122661       6.45650849       6.51015146        1       0.00000000       0.05291835      -0.05285462       0.02320139
Ni      11.61295406       6.48821680       6.50928881        1       1.00000000       0.08975986      -0.16381685      -0.15169845
