64
Lattice="10.27441632544231 -0.01530023052614277 -0.008828219006626947 5.123957774401758 8.83354778762757 -0.04129755368199555 -0.007208210634592077 -0.034774044656348854 8.741213321790882" Properties=species:S:1:pos:R:3:tags:I:1:initial_magmoms:R:1:forces:R:3 unique_id=5ddecdaedeab447ab739647e1da7c7b5 stress="0.0001619609725400442 5.383265323836814e-06 -1.2167349863256713e-05 5.383265323836814e-06 0.0001709623903199467 2.652400510375898e-05 -1.2167349863256713e-05 2.652400510375898e-05 0.00017078761872681147" energy=-395.1847130467729 pbc="T T T"
Ni      -0.02423878       0.03121726       0.21385701        4       1.00000000      -0.09561434       0.05838700       0.31355907
Ni       2.56058688      -0.00132627       0.21561294        4       1.00000000      -0.04302774       0.00889705       0.41381264
Ni       5.13534192      -0.02421817       0.16742014        4       1.00000000      -0.01980174       0.13082964       0.31086124
Ni       7.73304410      -0.05351575       0.11577130        4       1.00000000       0.08939015      -0.10711817       0.21943601
Ni       1.24137664       2.20763436       0.10578701        4       1.00000000      -0.14132669      -0.01263421       0.22275723
Pt       3.77901548       2.20972006       0.09848115        4       0.00000000      -0.08819598       0.01144642      -0.14048802
Pt       6.44552239       2.13902591       0.18284755        4       0.00000000       0.06641755      -0.07910081       0.23720788
Ni       9.03046896       2.16406305       0.16849224        4       1.00000000       0.05840990      -0.10340576       0.21872383
Ni       2.55666818       4.43122945       0.05669337        4       1.00000000       0.07375112       0.03096226       0.04159286
Ni       5.09567184       4.42594461       0.16898622        4       1.00000000      -0.01988241      -0.00742167       0.32560350
Pt       7.77438712       4.41173474       0.08412778        4       0.00000000       0.11554198      -0.03407081      -0.05981825
Ni      10.29903133       4.39073619       0.04562864        4       1.00000000       0.09482479      -0.10143405       0.06682882
Ni       3.80643878       6.62578738       0.16749430        4       1.00000000      -0.05438702      -0.06684875       0.26477771
Pt       6.37676051       6.66398890       0.15800350        4       0.00000000      -0.09309917       0.01894718       0.11146053
Ni       9.00222324       6.62759622       0.03583554        4       1.00000000      -0.01528576       0.00315676      -0.02312963
Ni      11.57010418       6.61385374       0.02429902        4       1.00000000       0.12091402       0.00376518      -0.07700219
Ni       1.25693502       0.75064510       2.14818058        3       1.00000000      -0.10602240       0.14135716       0.00096841
Ni       3.84452706       0.74431877       2.18445476        3       1.00000000       0.07707217       0.04421821       0.05317367
Ni       6.45119331       0.72460646       2.22887360        3       1.00000000       0.10908790       0.06134018       0.14633602
Ni       8.98745157       0.73596886       2.16231833        3       1.00000000      -0.04719650       0.08050169       0.05095006
Ni       2.56245933       2.93003361       2.17983026        3       1.00000000      -0.04067027       0.05853599      -0.02317313
Ni       5.10176044       2.94301287       2.20897079        3       1.00000000      -0.14896009      -0.04658444      -0.03294463
Ni       7.75059381       2.91195226       2.21402964        3       1.00000000       0.19490361      -0.05376278      -0.04431646
Ni      10.24476023       2.88511737       2.16261340        3       1.00000000       0.00051211      -0.02445915       0.06116682
Ni       3.87399886       5.14325125       2.17916855        3       1.00000000       0.02724139      -0.01712272       0.11385166
Ni       6.39526975       5.14075512       2.19590040        3       1.00000000      -0.00196741       0.11864830      -0.07584576
Ni       8.96599458       5.11187663       2.21412881        3       1.00000000       0.02779740      -0.09800824       0.13697339
Pt      11.58340160       5.10109366       2.11979674        3       0.00000000       0.04558040      -0.03494528      -0.02331746
Ni       5.08045886       7.34807742       2.15007329        3       1.00000000      -0.12331539      -0.07282228      -0.09439771
Ni       7.69302379       7.34243247       2.15198494        3       1.00000000       0.03055790      -0.12745565      -0.08859728
Pt      10.24697063       7.34532703       2.07318754        3       0.00000000       0.01471178      -0.11677615      -0.00870140
Ni      12.86338795       7.35133289       2.10493344        3       1.00000000      -0.03823685      -0.01167572      -0.05185956
Ni      -0.03068126       1.49443132       4.28588247        2       1.00000000      -0.04061219       0.06325298      -0.20752194
Pt       2.58845660       1.51440738       4.27115021        2       0.00000000      -0.02256207      -0.00033365      -0.06872837
Ni       5.13306371       1.47254711       4.28246053        2       1.00000000       0.05117491       0.01788451      -0.18199866
Ni       7.73055787       1.46880083       4.26964574        2       1.00000000       0.10916927       0.09970034      -0.18124154
Pt       1.23067232       3.70765213       4.36823319        2       0.00000000      -0.04812639      -0.04320988      -0.07808391
Ni       3.84778695       3.69558482       4.28540793        2       1.00000000      -0.02258513       0.10169778      -0.24085567
Pt       6.43382126       3.67815793       4.20614603        2       0.00000000      -0.06008118      -0.07075157       0.09141943
Ni       8.98155029       3.67385738       4.28701474        2       1.00000000       0.01087471       0.00514810      -0.24257113
Ni       2.56539212       5.83878143       4.30623798        2       1.00000000       0.06169362      -0.01066579      -0.15089436
Ni       5.09316484       5.83466939       4.25299943        2       1.00000000      -0.07607012      -0.00903529      -0.14363546
Ni       7.74126619       5.81057049       4.26985760        2       1.00000000       0.05839498      -0.05156178      -0.22288369
Ni      10.23694209       5.82852531       4.34557648        2       1.00000000      -0.03907795      -0.00167589      -0.11985105
Pt       3.82804170       8.09591323       4.20842218        2       0.00000000       0.00559261       0.01835294       0.05083668
Pt       6.38698479       8.05117497       4.17228261        2       0.00000000      -0.01181160      -0.04976594       0.02024388
Pt       8.97291713       8.01548685       4.26661737        2       0.00000000      -0.00789852       0.03870755       0.12851039
Pt      11.57093317       8.05945110       4.28035831        2       0.00000000       0.00343716      -0.02030680       0.02912413
Pt      -0.02420403       0.01804216       6.54528935        1       0.00000000      -0.03687440       0.07462803       0.17347748
Pt       2.58278992       0.02633390       6.56754457        1       0.00000000       0.01407126       0.10078514       0.26530814
Pt       5.16970571      -0.10004499       6.55139757        1       0.00000000       0.06334706      -0.18610659       0.14044344
Ni       7.69806341      -0.03977891       6.48961466        1       1.00000000       0.07349813       0.09212446      -0.10428274
Ni       1.29504616       2.24851721       6.48502943        1       1.00000000       0.04650831       0.12200733      -0.03210535
Ni       3.81636494       2.21038223       6.39763192        1       1.00000000      -0.01025577       0.00723036      -0.30636127
Pt       6.42980930       2.15743104       6.39402214        1       0.00000000       0.03382767       0.01788125      -0.26108526
Pt       9.02767025       2.26758993       6.45072457        1       0.00000000       0.18103939       0.15058409       0.07821053
Ni       2.50047061       4.37184106       6.46409728        1       1.00000000      -0.13885340      -0.01033186      -0.10563962
Pt       5.05157656       4.34985796       6.46691638        1       0.00000000      -0.11671114      -0.01309375       0.08903552
Ni       7.74893583       4.40629629       6.36834190        1       1.00000000       0.06082020       0.06783143      -0.30570148
Ni      10.27434962       4.43530079       6.45185243        1       1.00000000       0.00081300       0.19890941      -0.06411867
Pt       3.72024476       6.58435012       6.48116262        1       0.00000000      -0.15902996       0.02992404       0.15084863
Pt       6.46946188       6.53815253       6.38238216        1       0.00000000       0.02097591      -0.01684289      -0.33365168
Ni       9.01909449       6.52082775       6.43564717        1       1.00000000       0.03014374      -0.15370568      -0.20420655
Ni      11.50897366       6.52917124       6.44318119        1       1.00000000      -0.10455652      -0.22460873      -0.22848975
