64
Lattice="10.178156572571764 0.02387881095045962 -0.04095795244991911 5.10975794318115 8.811917698644493 -0.03435798234959038 -0.03344202813715916 -0.013085252462474781 8.713511761312317" Properties=species:S:1:pos:R:3:tags:I:1:initial_magmoms:R:1:forces:R:3 unique_id=cc0668f047f148088867db2e2e3233c0 stress="-7.943742906672824e-05 -1.0924288683303708e-07 -3.959491799224106e-06 -1.0924288683303708e-07 -6.149662001050937e-05 5.268101146579303e-06 -3.959491799224106e-06 5.268101146579303e-06 -2.237697494090335e-05" energy=-391.88066302449147 pbc="T T T"
Ni       0.02074007      -0.01302605       0.16509460        4       1.00000000       0.05250028       0.07220579       0.25481972
Ni       2.49221442       0.00600424       0.17930820        4       1.00000000      -0.08675674       0.00434725       0.23212452
Pt       5.13996333      -0.00018776       0.18059757        4       0.00000000       0.04275424      -0.02279038       0.33383655
Ni       7.65229445      -0.01755080       0.14948074        4       1.00000000       0.09120611      -0.07601379       0.35858754
Ni       1.27063775       2.21762504       0.10968636        4       1.00000000      -0.02702592       0.05942992       0.24964659
Pt       3.77987636       2.27278655       0.17692373        4       0.00000000      -0.10535190       0.06697763       0.21682551
Ni       6.36925206       2.25244643       0.08939291        4       1.00000000      -0.04853467       0.08075320       0.24604078
Pt       8.91274899       2.28009071       0.07908841        4       0.00000000      -0.00184069       0.03354303       0.16905565
Ni       2.52410307       4.44634768       0.09267458        4       1.00000000      -0.06218491       0.07582522       0.19215233
Ni       5.10833677       4.44544206       0.16828495        4       1.00000000      -0.10048897       0.08785539       0.30118925
Ni       7.59164702       4.41456065       0.07501371        4       1.00000000      -0.16873883       0.00140553       0.16861803
Ni      10.23768873       4.42274456       0.06318409        4       1.00000000       0.17381704       0.02436450       0.21995907
Ni       3.80648030       6.58407632       0.05848868        4       1.00000000      -0.11377784      -0.11022793       0.07062713
Ni       6.35091388       6.59445820       0.04374555        4       1.00000000      -0.03198446      -0.07097647      -0.02905940
Pt       8.89467526       6.55705698       0.15404427        4       0.00000000      -0.01804441      -0.08804059       0.31191473
Ni      11.51105824       6.58682569       0.05568034        4       1.00000000       0.01685068      -0.07469142       0.17809753
Ni       1.30529566       0.77094711       2.19916724        3       1.00000000      -0.03488156       0.12343855       0.08995478
Ni       3.75807459       0.71749698       2.20470422        3       1.00000000      -0.16925953      -0.03595184      -0.09927732
Ni       6.36614439       0.75378215       2.19253347        3       1.00000000       0.10129673      -0.01880491      -0.00191122
Pt       8.88944365       0.78824417       2.19651364        3       0.00000000       0.14079627       0.23227466      -0.09130565
Ni       2.50429624       2.96464518       2.23862118        3       1.00000000      -0.04890714       0.09283234       0.12054232
Ni       5.09481384       2.97562109       2.16300327        3       1.00000000      -0.09317723       0.09544358      -0.05560431
Ni       7.61025065       2.98983391       2.16273328        3       1.00000000       0.08175351       0.01059586      -0.02899253
Ni      10.22606045       3.00032530       2.18753127        3       1.00000000       0.10341087       0.04200629       0.06876271
Ni       3.78246287       5.10424366       2.17039563        3       1.00000000      -0.15457949      -0.06319745       0.08184810
Ni       6.37985309       5.11303182       2.10544522        3       1.00000000       0.07730070      -0.03051168      -0.08420053
Ni       8.94050846       5.10348590       2.17541568        3       1.00000000       0.19120035      -0.14497416      -0.02701227
Ni      11.45732375       5.15213846       2.14473211        3       1.00000000       0.00851329      -0.02344969       0.08983743
Pt       5.13727242       7.26699055       2.12520551        3       0.00000000      -0.01605482      -0.13413981      -0.01376319
Ni       7.66071374       7.38235267       2.16860575        3       1.00000000       0.04963478       0.12823762      -0.04497748
Ni      10.21123785       7.32189872       2.22139354        3       1.00000000      -0.00325938      -0.12121448       0.08392274
Ni      12.67784134       7.30731374       2.11216825        3       1.00000000      -0.06042449      -0.18351153       0.02087479
Ni       0.04223223       1.50067763       4.29904580        2       1.00000000       0.10915090       0.06430503      -0.07901263
Ni       2.47366075       1.48593201       4.25158753        2       1.00000000      -0.03988432       0.07750714      -0.14108755
Pt       5.05488137       1.44206862       4.18184035        2       0.00000000      -0.15155824      -0.04029728       0.10520400
Ni       7.62370670       1.47966605       4.27607156        2       1.00000000      -0.02221955      -0.05290315      -0.01719444
Ni       1.26608911       3.67218036       4.31296597        2       1.00000000       0.02943544       0.02683147      -0.12112151
Ni       3.74143778       3.72110308       4.24950468        2       1.00000000      -0.07440025       0.06473895      -0.16078868
Pt       6.37139183       3.66767918       4.24585221        2       0.00000000      -0.03385089       0.01861043       0.07283122
Ni       8.96781132       3.70360888       4.22772899        2       1.00000000       0.15725945       0.05978834      -0.23050591
Ni       2.51028974       5.81788773       4.30800628        2       1.00000000      -0.06727783      -0.14158880      -0.19950505
Ni       5.05284258       5.85902755       4.29585357        2       1.00000000      -0.04161284      -0.16328758      -0.10112817
Pt       7.63549118       5.90795623       4.19042185        2       0.00000000       0.10356197       0.07449306       0.01063614
Ni      10.24162239       5.85765774       4.23804961        2       1.00000000       0.07488842      -0.10700165      -0.14780727
Pt       3.79172777       8.00458353       4.27685815        2       0.00000000      -0.10031675      -0.10039778       0.17982380
Ni       6.38210898       8.10194208       4.24676900        2       1.00000000      -0.00415061       0.13538837      -0.14315318
Ni       8.90423087       8.07573066       4.20741812        2       1.00000000       0.00334470      -0.03347159      -0.11125444
Ni      11.43602274       8.01287753       4.20648426        2       1.00000000      -0.05647804      -0.14359874      -0.09417057
Pt      -0.00939326      -0.03897528       6.49264064        1       0.00000000       0.12118054      -0.02077400       0.06972691
Pt       2.50928311      -0.01110017       6.42723847        1       0.00000000      -0.08273505      -0.01871177      -0.00943412
Pt       5.08362493      -0.02468275       6.37548409        1       0.00000000       0.10974064       0.02077286      -0.28377412
Pt       7.60142642      -0.02829514       6.46767371        1       0.00000000      -0.07900828      -0.00857707       0.14205863
Ni       1.24143845       2.25558887       6.41908936        1       1.00000000       0.00478956       0.07119945      -0.20235907
Pt       3.74117464       2.28413437       6.36399130        1       0.00000000      -0.06181352       0.12863144      -0.28064994
Ni       6.35364897       2.23202218       6.43165877        1       1.00000000      -0.04543772       0.03132589      -0.13504192
Pt       8.90439430       2.30760547       6.29945708        1       0.00000000       0.02055352       0.13496300      -0.43863659
Ni       2.47553282       4.44260784       6.41297339        1       1.00000000      -0.03235705       0.07310447      -0.19547810
Pt       5.08280276       4.48034739       6.46935846        1       0.00000000       0.01074735       0.08087849       0.20782619
Ni       7.61314574       4.41175089       6.43036214        1       1.00000000      -0.03421156       0.02883103      -0.13846335
Ni      10.23368437       4.41097699       6.38263102        1       1.00000000       0.22975702      -0.04009742      -0.21832609
Ni       3.77816170       6.56176000       6.43018521        1       1.00000000      -0.11373444      -0.04457979      -0.14975451
Ni       6.35045892       6.59167502       6.41383225        1       1.00000000       0.09561672       0.06844581      -0.29186837
Pt       8.94076743       6.50182089       6.36432490        1       0.00000000       0.09700373      -0.21900745      -0.27074583
Ni      11.48644913       6.54287365       6.37505121        1       1.00000000       0.08825512      -0.05856141      -0.20997941
