64
Lattice="10.511494002920758 0.0024686028962186217 0.009152789181050315 5.25788487428036 9.143123582501389 -0.0021627754341672573 0.0 0.0 21.809882283069474" Properties=species:S:1:pos:R:3:tags:I:1:initial_magmoms:R:1:forces:R:3 unique_id=d92a3b53b3a643c1bcc4b5ccf18e18bc energy=-389.61951044307347 stress="0.002534256358659741 -4.39189194903481e-05 -0.00015894494175215196 -4.39189194903481e-05 0.0032676395287888783 -8.033114463276159e-05 -0.00015894494175215196 -8.033114463276159e-05 -0.0035486522636662427" pbc="T T T"
Pt       0.01949638       0.03430123       0.00000000        0       0.00000000      -0.02225199      -0.14374537      -0.16384121
Ni       2.64149651       0.01570054       0.14668344        1       1.00000000       0.00546766      -0.01217098       0.01740143
Pt       5.19005139       0.02341656       0.05082139        1       0.00000000       0.03313860       0.10505441       0.11624011
Pt       7.86812053       0.01796520       0.10465232        1       0.00000000      -0.08693956       0.07140516      -0.57970773
Pt       1.31985910       2.27304852       0.01141279        0       0.00000000      -0.03672867       0.10350188       0.05269150
Ni       3.93223923       2.26790046       0.15392338        2       1.00000000       0.00648338       0.00147308       0.14614648
Pt       6.62749066       2.32189897       0.10522266        1       0.00000000       0.01818320      -0.10486497      -0.37713931
Ni       9.20455662       2.31765134       0.06375068        1       1.00000000      -0.01935185      -0.09780530       0.32799852
Pt       2.59688070       4.57330807       0.12140425        1       0.00000000      -0.14706173       0.05831876      -0.56353739
Pt       5.28705651       4.54557170       0.12523645        1       0.00000000       0.03081242       0.06560076      -0.50601461
Ni       7.90361190       4.56211985       0.07937979        1       1.00000000      -0.06431488       0.05443891       0.33681073
Pt      10.44885425       4.54229342       0.09835324        1       0.00000000       0.09427277      -0.00534505       0.30717986
Pt       3.91743208       6.85701382       0.09218518        1       0.00000000       0.12664142      -0.02552509      -1.03793615
Pt       6.61758565       6.83594247       0.12514290        1       0.00000000      -0.07805872      -0.08597620      -0.75533374
Pt       9.22142603       6.82955166       0.01916271        0       0.00000000       0.06481846      -0.04830972       0.06362315
Ni      11.80469049       6.85260851       0.12855421        1       1.00000000      -0.05101317      -0.02345746       0.06303232
Pt       1.34017923       0.79021062       2.30230078        3       0.00000000       0.08243536      -0.00305049       0.17798359
Ni       3.94070564       0.75848061       2.27843313        3       1.00000000       0.03251326      -0.01643808       0.24999379
Pt       6.54972559       0.75888136       2.36953525        4       0.00000000      -0.05719501       0.02513705       0.36740791
Pt       9.22305779       0.86680333       2.34255552        3       0.00000000       0.06841265       0.25621694       0.17512549
Pt       2.59581137       3.05486924       2.31906523        3       0.00000000      -0.07777784      -0.01207724       0.18139785
Pt       5.26554298       3.05143173       2.35273888        4       0.00000000       0.00555451      -0.07518351       0.33273312
Pt       7.95048986       3.15907107       2.36477694        4       0.00000000       0.08471629       0.15078973       0.12080587
Ni      10.50760021       3.09451814       2.31141303        3       1.00000000       0.04759540       0.13621230       0.16327851
Pt       3.93068623       5.30189529       2.34434586        3       0.00000000      -0.04337523       0.01598015       0.34960340
Ni       6.62077271       5.31323927       2.29903917        3       1.00000000       0.14017833      -0.00972060       0.25941260
Ni       9.21958421       5.31049547       2.31322334        3       1.00000000       0.08680858       0.01278792       0.19149949
Ni      11.76556025       5.30569399       2.30004828        3       1.00000000      -0.16182900      -0.13494851       0.28022134
Pt       5.26864563       7.61071160       2.31532363        3       0.00000000      -0.05813186       0.09653128       0.31068628
Pt       7.93111784       7.58770879       2.31227590        3       0.00000000       0.14639899       0.00013164       0.24527269
Pt      10.51128862       7.53819842       2.34346349        3       0.00000000      -0.03133738      -0.13593139       0.17780521
Pt      13.09367648       7.59142790       2.31202699        3       0.00000000      -0.01809982      -0.06239545       0.24584941
Ni      -0.04365764       1.56789478       4.57284639        6       1.00000000      -0.16696056       0.09049416      -0.08679762
Pt       2.62111723       1.56624922       4.53631736        5       0.00000000      -0.02544272       0.12305357      -0.16948465
Pt       5.30574885       1.53412059       4.54721655        5       0.00000000       0.01781336      -0.01870127      -0.13653959
Ni       7.93149747       1.58034464       4.53845035        5       1.00000000       0.13171157       0.18449145      -0.24227453
Pt       1.16777398       3.80159814       4.51762902        5       0.00000000      -0.26905560      -0.04960363      -0.21304089
Ni       3.95026394       3.79126569       4.53973567        5       1.00000000      -0.03185611      -0.01067682      -0.28578248
Ni       6.62412808       3.78985601       4.52084579        5       1.00000000       0.14658654      -0.07366560      -0.24825988
Ni       9.19173239       3.77219297       4.56095406        6       1.00000000      -0.11506376      -0.20691206       0.02632109
Pt       2.53997129       6.08685736       4.49738672        5       0.00000000      -0.12967208       0.01414063      -0.30932016
Pt       5.29614101       6.01417194       4.48224638        5       0.00000000       0.01311938      -0.06229733      -0.38062616
Pt       7.97842478       5.96142836       4.51733177        5       0.00000000       0.16814977      -0.20316994      -0.24404072
Ni      10.50498032       6.06576359       4.53249883        5       1.00000000      -0.03572430      -0.08207835      -0.22641586
Pt       3.91837800       8.46472996       4.52166116        5       0.00000000       0.00569335       0.03381929      -0.29174750
Pt       6.56689793       8.41243244       4.55360351        6       0.00000000      -0.01067173       0.02707021      -0.24765309
Pt       9.27215292       8.33776361       4.57949715        6       0.00000000      -0.00179967      -0.07859612      -0.15862464
Ni      11.82380702       8.38149564       4.55263535        6       1.00000000       0.02798500       0.02046103      -0.27637319
Ni       0.00684111       0.05217851       6.67032082        7       1.00000000       0.01806770       0.14095502      -0.02526236
Pt       2.63406488       0.00147041       6.80988228        8       0.00000000      -0.04714734      -0.05485904       0.20062868
Ni       5.26220887      -0.01060928       6.69450577        7       1.00000000       0.09279670       0.06098440       0.05687785
Pt       7.88667836       0.05143110       6.67571615        7       0.00000000      -0.15113781       0.15262033       0.54387120
Ni       1.25257509       2.27214832       6.67267457        7       1.00000000      -0.12945132      -0.05292162      -0.13867895
Pt       3.94403926       2.25560710       6.79092619        8       0.00000000       0.08521163       0.12078592       0.17957219
Pt       6.67946634       2.32558059       6.66978528        7       0.00000000       0.29021344       0.12216377       0.49613096
Ni       9.24275203       2.30817725       6.71907027        7       1.00000000       0.10699339       0.05869575      -0.66963106
Pt       2.56093001       4.52734543       6.68253340        7       0.00000000      -0.01284853      -0.10158054       0.50467406
Pt       5.30496669       4.54396310       6.67356814        7       0.00000000      -0.02791007      -0.15990031       0.58538667
Ni       7.95569776       4.55376592       6.73703196        7       1.00000000       0.17349347      -0.01427733      -0.45996345
Ni      10.45987139       4.54949621       6.68710605        7       1.00000000      -0.19475047       0.01800235      -0.38209298
Pt       3.95193153       6.88478920       6.68682409        7       0.00000000      -0.01092162      -0.01427210       0.75275723
Pt       6.64493348       6.83098734       6.70906948        7       0.00000000       0.13054679       0.01656486       0.66836714
Ni       9.21240652       6.81354373       6.68439436        7       1.00000000      -0.05533533      -0.16197966       0.02343756
Pt      11.71197629       6.86224774       6.74570241        7       0.00000000      -0.11359763       0.00455440      -0.12210539
