64
Lattice="10.273606030466725 0.005834284764535922 0.02295663149769978 5.14185565405236 8.823305986867005 -0.030348486964024778 0.0 0.0 21.56286459505271" Properties=species:S:1:pos:R:3:tags:I:1:initial_magmoms:R:1:forces:R:3 unique_id=d39fad7f5c2a4914a4c74dfb6dde8f06 stress="0.005708418489376897 -2.132004602256762e-05 0.00018537100392481876 -2.132004602256762e-05 0.005086891581747557 -9.627785602309263e-05 0.00018537100392481876 -9.627785602309263e-05 -0.001547090123635346" energy=-373.2770339145225 pbc="T T T"
Ni       0.01381161      -0.00013156       0.16202647        2       1.00000000       0.10780110       0.06073343      -0.13504344
Ni       2.54091009       0.01661971       0.18982707        2       1.00000000      -0.06795994       0.08501551      -0.07177209
Pt       5.13058257      -0.04900117       0.12741245        1       0.00000000      -0.01773781       0.18945718      -1.05143687
Ni       7.73219866      -0.05797624       0.18936789        2       1.00000000      -0.07872795      -0.03736596      -0.25030496
Ni       1.28713523       2.21112425       0.08463709        1       1.00000000      -0.00702996       0.01949878       0.36310355
Pt       3.74575487       2.20990549       0.15942252        2       0.00000000       0.06895586       0.00931226      -0.36988001
Pt       6.44337272       2.18263899       0.09299674        1       0.00000000       0.00288747      -0.04964517      -0.17303664
Pt       9.09481178       2.20380182       0.11521867        1       0.00000000      -0.00611449       0.12882736      -0.52470624
Ni       2.52836545       4.43950380       0.02740273        0       1.00000000      -0.00637843      -0.00711780       0.18741589
Pt       5.05740665       4.47532823       0.06651584        1       0.00000000      -0.04502820       0.08771008      -0.00296838
Pt       7.75660383       4.46054911       0.00000000        0       0.00000000      -0.07923873      -0.00221295      -0.24396621
Ni      10.34089853       4.43992747       0.04555510        0       1.00000000       0.06157968      -0.01790407       0.24917122
Ni       3.80295813       6.65108853       0.06074011        1       1.00000000      -0.02410876       0.03791848       0.33190850
Pt       6.41889207       6.72051716       0.05908044        1       0.00000000      -0.04685869       0.01424427       0.03124526
Ni       9.02053296       6.61567949       0.03788619        0       1.00000000       0.00440889       0.00112106       0.07960682
Ni      11.59982116       6.58503261       0.04522381        0       1.00000000       0.07948270       0.05139057       0.22365584
Ni       1.31998277       0.73534347       2.20834238        4       1.00000000       0.05242165       0.04725869       0.23878397
Ni       3.81429613       0.76122452       2.24620985        4       1.00000000      -0.04871757       0.10099558       0.28651447
Ni       6.42907451       0.76693553       2.24669502        4       1.00000000      -0.05064040       0.14268593       0.29072435
Pt       9.01705010       0.71894976       2.25361735        5       0.00000000       0.07137740       0.10142612       0.03907065
Ni       2.56578957       2.90188013       2.25991817        5       1.00000000       0.06637666      -0.12237534       0.29766395
Ni       5.12032907       2.93644967       2.24550643        4       1.00000000      -0.10097965      -0.00763579       0.16644718
Ni       7.68831773       2.92148815       2.24392162        4       1.00000000      -0.06651314      -0.03132816       0.16047398
Ni      10.33272583       2.91057393       2.25356037        5       1.00000000       0.13500189      -0.12201105       0.29226802
Ni       3.88196282       5.14422866       2.22432610        4       1.00000000       0.13523865      -0.06959469       0.23260713
Ni       6.38946659       5.15671548       2.22081504        4       1.00000000      -0.05363643       0.02452487       0.10527556
Pt       8.95874252       5.09796104       2.27082806        5       0.00000000      -0.17449809      -0.20919369      -0.03671448
Pt      11.64992681       5.08102924       2.20925204        4       0.00000000       0.11736501      -0.17564653       0.11732604
Ni       5.16263601       7.31086429       2.18030632        4       1.00000000       0.08240699      -0.13985959       0.13183453
Ni       7.65925291       7.37292952       2.18389304        4       1.00000000      -0.14525320      -0.00763486       0.14535284
Pt      10.28406392       7.32242318       2.18020010        4       0.00000000       0.01335880      -0.04672280      -0.23963390
Ni      12.89287866       7.31685711       2.14394426        3       1.00000000       0.12026628      -0.11830592       0.03937492
Ni       0.07115705       1.49002933       4.30731710        6       1.00000000       0.17750310       0.01049918      -0.12300436
Ni       2.53550192       1.49510903       4.28925505        6       1.00000000      -0.06701603       0.04468933      -0.20269382
Ni       5.13577230       1.48669550       4.29066067        6       1.00000000      -0.10293514       0.00029827      -0.38239578
Ni       7.70999141       1.48479832       4.32807134        6       1.00000000      -0.02630956      -0.02517324      -0.22672858
Ni       1.30082997       3.64519546       4.35694502        7       1.00000000       0.04056540      -0.05918112      -0.00648784
Ni       3.83113107       3.69665050       4.28424513        6       1.00000000      -0.09615719       0.03449713      -0.26787735
Pt       6.42147395       3.67632294       4.31393949        6       0.00000000      -0.03943730      -0.04330015      -0.16780101
Ni       9.03369214       3.68454735       4.32749816        6       1.00000000       0.10312738      -0.07478262      -0.11059746
Ni       2.59895490       5.79152306       4.35620577        7       1.00000000       0.05041799      -0.19073719      -0.01290053
Ni       5.15588810       5.84125225       4.32525187        6       1.00000000       0.04778557      -0.10180845      -0.22719219
Ni       7.69224035       5.85928697       4.36044493        7       1.00000000      -0.12970667       0.03741988      -0.12427188
Ni      10.28908342       5.80426979       4.40308443        7       1.00000000       0.04124187      -0.05037673       0.07359359
Pt       3.93561706       7.99139194       4.27614373        6       0.00000000       0.09277506      -0.09440205       0.06040042
Ni       6.43006171       8.05068844       4.27048200        6       1.00000000      -0.05008606       0.00937770      -0.28666295
Pt       8.91075740       8.05680718       4.26395830        6       0.00000000      -0.07480057       0.06119742       0.02188675
Pt      11.60794275       8.04043364       4.27193342        6       0.00000000       0.05004087      -0.07761134       0.01604694
Pt       0.02865916      -0.06305542       6.51430875        9       0.00000000       0.07716266       0.04902365       0.28821670
Pt       2.55645211      -0.05872159       6.52776547        9       0.00000000      -0.03678886       0.05257147       0.25105774
Pt       5.14174560      -0.05152705       6.44154953        8       0.00000000      -0.04546814       0.19394689       1.11741344
Pt       7.71661496      -0.06333532       6.56286460       10       0.00000000      -0.00008315       0.13800121       0.41357597
Ni       1.29513843       2.24135434       6.44249156        8       1.00000000      -0.01647664       0.13411311      -0.30834671
Pt       3.84424336       2.28865641       6.37160421        8       0.00000000       0.00776394       0.05177227       0.31949370
Ni       6.43390600       2.22397910       6.40081311        8       1.00000000      -0.00628808       0.01743130       0.10748222
Pt       9.01873923       2.28575851       6.37257305        8       0.00000000      -0.02106218       0.04711645       0.54928760
Ni       2.54979535       4.42669587       6.43260392        8       1.00000000      -0.01562898       0.01136528      -0.40028775
Ni       5.15176916       4.43449137       6.38422760        8       1.00000000      -0.06355576       0.08186147      -0.02793696
Ni       7.71494002       4.43723860       6.36805058        8       1.00000000       0.02997959       0.04508114       0.11433907
Ni      10.31793085       4.43167685       6.45077113        9       1.00000000       0.01703086      -0.01181676      -0.37709334
Ni       3.86451034       6.50687614       6.44964275        8       1.00000000       0.00391243      -0.16321437      -0.31490529
Ni       6.43556675       6.52739081       6.36313888        8       1.00000000      -0.01825098      -0.00016796      -0.08511368
Ni       9.00435601       6.51035229       6.45308087        9       1.00000000      -0.02247979      -0.07466724      -0.30029559
Ni      11.57334425       6.51286396       6.47111474        9       1.00000000      -0.00628323       0.00941033      -0.29056250
