64
Lattice="10.395075252386825 0.008252883948905668 0.011535982841019091 5.20468483334765 8.946798744264209 -0.006781215331322757 0.0 0.0 21.594240961267047" Properties=species:S:1:pos:R:3:tags:I:1:initial_magmoms:R:1:forces:R:3 unique_id=6bc1b9a28c684af3805b6926016e7b19 stress="0.00618564310816764 0.00023226504516161235 0.0003470912473406934 0.00023226504516161235 0.0058882964358916235 0.00010571982730426955 0.0003470912473406934 0.00010571982730426955 -0.0018089435251579106" energy=-378.2551548173764 pbc="T T T"
Ni      -0.01541627       0.02076376       0.13675087        1       1.00000000      -0.02875942       0.06198449       0.10008364
Ni       2.60047678       0.00385501       0.14572427        1       1.00000000      -0.00024345       0.02524536       0.01651743
Ni       5.19805104      -0.01540895       0.10611332        1       1.00000000      -0.00803655       0.18084711      -0.26916996
Ni       7.82184259      -0.03224171       0.05590985        1       1.00000000       0.03329801      -0.06106919       0.48634042
Ni       1.29362477       2.22562115       0.10860909        1       1.00000000       0.07011724      -0.12401124      -0.14216438
Pt       3.84134392       2.23759669       0.13340466        1       0.00000000      -0.01918827      -0.04086682      -0.49706057
Pt       6.50464508       2.16559923       0.09520440        1       0.00000000      -0.09031944      -0.14183102      -0.64751849
Ni       9.12545464       2.20779230       0.08428936        1       1.00000000      -0.00061139      -0.16396762      -0.04347119
Ni       2.59029398       4.48891443       0.00256980        0       1.00000000      -0.02503058      -0.02960601       0.21940602
Ni       5.19489517       4.47917363       0.09856998        1       1.00000000       0.17217129      -0.08814036      -0.21443848
Pt       7.87400302       4.50597948       0.01125936        0       0.00000000      -0.00087406       0.03493117      -0.04814124
Ni      10.42888365       4.49231864       0.00000000        0       1.00000000       0.04009386       0.01752170       0.24565002
Ni       3.87613603       6.73499059       0.10672036        1       1.00000000      -0.04759904       0.19761005      -0.03931567
Pt       6.48430267       6.77003987       0.14060378        1       0.00000000      -0.06636681       0.07570231      -0.49883729
Ni       9.12815519       6.73008464       0.01784029        0       1.00000000      -0.06005315      -0.00750596       0.23284999
Ni      11.71502441       6.72523699       0.00349403        0       1.00000000       0.12207001       0.07310755       0.28575056
Ni       1.30367312       0.71973627       2.11685900        2       1.00000000       0.02449188      -0.09954270      -0.00414202
Ni       3.89594585       0.74929614       2.16694778        3       1.00000000       0.05620839      -0.01484992       0.19217470
Ni       6.50481796       0.72746958       2.19402115        3       1.00000000       0.04483818       0.00222418       0.21201567
Ni       9.09777683       0.71141099       2.14487526        2       1.00000000      -0.04540482      -0.09170051      -0.01679663
Ni       2.60696974       2.97205096       2.16744047        3       1.00000000      -0.01267161       0.10517736       0.14498265
Ni       5.18282252       2.95952582       2.20241338        3       1.00000000      -0.01113483      -0.10765125       0.34314700
Pt       7.81633219       2.95238224       2.22144645        3       0.00000000       0.03207887      -0.06626257       0.06771220
Pt      10.41633876       2.92200780       2.14974348        2       0.00000000       0.08107976       0.01773008       0.12001439
Pt       3.92346377       5.20338863       2.11330806        2       0.00000000       0.00350968      -0.06371295       0.01193798
Ni       6.52762406       5.22972153       2.17400277        3       1.00000000       0.13138355      -0.04977472       0.22033504
Ni       9.08266701       5.24460714       2.20067796        3       1.00000000      -0.07438876       0.01037306       0.23232594
Pt      11.69936810       5.24373783       2.12235502        2       0.00000000      -0.04116823      -0.00722285      -0.00046698
Ni       5.18720967       7.49575184       2.13602821        2       1.00000000      -0.11275752       0.08867515       0.04843227
Ni       7.80716336       7.45729749       2.15843423        3       1.00000000       0.07416086      -0.04299481       0.11866974
Pt      10.37621107       7.48136659       2.07879936        2       0.00000000      -0.03198534      -0.01661900      -0.05091732
Ni      13.01929105       7.49654590       2.12693427        2       1.00000000      -0.02651446       0.10928779      -0.08771990
Ni      -0.02301397       1.51528403       4.31775457        5       1.00000000       0.00324161       0.10326298      -0.19214282
Pt       2.62394707       1.52918089       4.21235630        4       0.00000000      -0.00249999       0.03860217      -0.16092128
Ni       5.21710339       1.49500041       4.29312953        5       1.00000000      -0.01195039       0.00286338      -0.43462824
Ni       7.82220154       1.49197674       4.32166971        5       1.00000000       0.02976881       0.01030797      -0.24926887
Pt       1.28073601       3.80135459       4.36539200        6       0.00000000      -0.02189949       0.01513098       0.06837739
Ni       3.90076221       3.73244391       4.31436671        5       1.00000000      -0.00480392       0.00468011      -0.26850240
Pt       6.52718380       3.71666112       4.30095037        5       0.00000000      -0.07198509       0.00987642      -0.00302530
Ni       9.11117156       3.75957124       4.35965600        6       1.00000000       0.04589425       0.06419765      -0.19475531
Ni       2.58336751       5.94613758       4.35519093        6       1.00000000       0.00793995       0.04810599      -0.15731979
Pt       5.18451260       5.94138123       4.26818121        5       0.00000000      -0.06335075       0.09732081      -0.11409082
Ni       7.86736030       5.91749227       4.31958880        5       1.00000000       0.10415583      -0.08352303      -0.29713571
Ni      10.37763009       5.94218020       4.38827108        6       1.00000000      -0.06941272       0.05621114      -0.09221183
Pt       3.88181530       8.24957821       4.24343716        4       0.00000000       0.02933343       0.10268822      -0.11308235
Pt       6.50462757       8.20938875       4.21489577        4       0.00000000      -0.01005566       0.09704369      -0.17444142
Pt       9.11526983       8.13373850       4.30289982        5       0.00000000      -0.07626216      -0.01532970      -0.01492364
Pt      11.72584191       8.18974666       4.31594113        5       0.00000000      -0.03611263      -0.03147377      -0.04885234
Pt      -0.04245206      -0.00399396       6.56891094        9       0.00000000       0.09794136       0.07743090       0.13877317
Pt       2.62804286      -0.03428770       6.59424096        9       0.00000000      -0.00865880      -0.00492087       0.32660047
Pt       5.25662859      -0.10776942       6.58242969        9       0.00000000      -0.05305919       0.00981645       0.27591327
Ni       7.79203952      -0.01211079       6.53087829        8       1.00000000       0.00721653       0.02251479      -0.17123085
Pt       1.28588575       2.31390635       6.57357723        9       0.00000000      -0.11720604      -0.09921978       0.17096750
Pt       3.89826598       2.25757223       6.45196148        8       0.00000000       0.19603441      -0.12010624       0.50431098
Pt       6.53771267       2.19137409       6.44810318        7       0.00000000      -0.08983580      -0.11491570       0.71558706
Pt       9.09272378       2.30690953       6.49909763        8       0.00000000       0.06797528       0.12706592      -0.04289782
Ni       2.56047732       4.50233960       6.50786316        8       1.00000000      -0.03749213       0.07256035      -0.14563531
Pt       5.18785911       4.47239998       6.55475771        9       0.00000000      -0.01630922      -0.02696558       0.35024326
Ni       7.86301563       4.49005873       6.42496569        7       1.00000000       0.08957075       0.08541127       0.05020457
Ni      10.38727504       4.54494593       6.50894819        8       1.00000000      -0.10125566       0.09128318      -0.31112793
Pt       3.77397139       6.69536511       6.55873929        9       0.00000000       0.00366993      -0.05106031       0.00751673
Pt       6.58233494       6.64824452       6.47076972        8       0.00000000       0.04093662      -0.07030471       0.43158331
Ni       9.14930630       6.63160774       6.50679459        8       1.00000000       0.01831945      -0.10745612      -0.27251248
Ni      11.67604432       6.65018714       6.51671994        8       1.00000000      -0.13224243      -0.19418640      -0.31955670
