64
Lattice="10.219517106822785 -0.010379096213069572 0.029961396945983713 5.100769992422546 8.78480559240542 0.01776245774952472 0.0 0.0 21.4859377540305" Properties=species:S:1:pos:R:3:tags:I:1:initial_magmoms:R:1:forces:R:3 unique_id=a8a2e5e0ffa94c129e78d5780f896a31 energy=-371.11109104655816 stress="0.004979592142912837 0.00011356478678640838 0.00020042173662623158 0.00011356478678640838 0.0044119302886276475 0.00019008484127760165 0.00020042173662623158 0.00019008484127760165 -0.001845910342556236" pbc="T T T"
Ni       0.00517450       0.02680010       0.09763519        1       1.00000000       0.09834169      -0.00904561      -0.24041754
Ni       2.52286314       0.01321677       0.14085025        1       1.00000000      -0.06541953       0.07791668      -0.21279869
Pt       5.10788299      -0.03941080       0.07855021        1       0.00000000       0.00382528       0.25466958      -1.12647338
Ni       7.70405244      -0.04823952       0.13113163        1       1.00000000      -0.07248711      -0.09372377      -0.37232669
Ni       1.23567671       2.20661858       0.03834704        0       1.00000000      -0.07210761       0.04754492       0.35069184
Pt       3.75291091       2.25607785       0.12107650        1       0.00000000       0.02929074      -0.02166109      -0.60382956
Pt       6.43154256       2.19611877       0.05129145        1       0.00000000       0.02048391      -0.05308105      -0.12361435
Ni       8.99629665       2.19049582       0.09994263        1       1.00000000       0.05367217       0.15543036      -0.14725718
Ni       2.54289655       4.42927204       0.00000000        0       1.00000000       0.03227183       0.02526302       0.23707609
Ni       5.07132477       4.42672633       0.04199642        0       1.00000000      -0.04034532       0.08110672       0.27410123
Pt       7.73974983       4.41325664       0.03719232        0       0.00000000       0.08120371       0.01836990       0.00173505
Ni      10.25828030       4.37717407       0.02969348        0       1.00000000       0.08622049      -0.06781937       0.28555059
Ni       3.79332253       6.58117183       0.03935474        0       1.00000000      -0.02267265      -0.01053987       0.33904045
Pt       6.34040322       6.63425642       0.03922857        0       0.00000000      -0.06992044       0.09556496       0.03077615
Ni       8.95487212       6.57037465       0.02528821        0       1.00000000      -0.02711653      -0.00747641       0.02365143
Ni      11.52738680       6.54483362       0.02635645        0       1.00000000       0.07026256       0.04510151       0.17343518
Ni       1.29114275       0.73289696       2.10500385        2       1.00000000      -0.00174872       0.01226177       0.11019292
Ni       3.81371127       0.74809963       2.15545303        3       1.00000000       0.04815766      -0.01510196       0.20180220
Ni       6.39593349       0.76707415       2.18165605        3       1.00000000      -0.06817248       0.16718984       0.28200094
Pt       8.96495548       0.75753098       2.13815885        2       0.00000000       0.00235912       0.08692103       0.10677514
Ni       2.54250036       2.93423001       2.15945055        3       1.00000000       0.04337782       0.00207857       0.07748721
Ni       5.10627272       2.95395573       2.17958607        3       1.00000000      -0.03596768       0.06664759       0.12488906
Ni       7.68287297       2.94710428       2.18731120        3       1.00000000       0.02083454       0.10035272       0.22335289
Ni      10.22484057       2.91985218       2.15955750        3       1.00000000       0.03114608       0.01819484       0.17485153
Ni       3.87009360       5.12056775       2.13646228        2       1.00000000       0.13584361      -0.05045573       0.06676787
Ni       6.37141806       5.12971514       2.16467419        3       1.00000000      -0.02943853       0.03054528       0.07272815
Ni       8.91754859       5.08426523       2.19199908        3       1.00000000      -0.12282219      -0.22209627       0.26697387
Pt      11.54086253       5.04900193       2.16516576        3       0.00000000       0.12769337      -0.12124290       0.10273371
Ni       5.12035338       7.28837509       2.14723468        2       1.00000000       0.06677000      -0.13402687       0.09908991
Ni       7.61323150       7.30636872       2.15047401        3       1.00000000      -0.15016211      -0.10905791       0.12734400
Pt      10.18629200       7.24071418       2.14866550        2       0.00000000      -0.10190720      -0.14941053      -0.24092603
Ni      12.81428775       7.27969745       2.11607062        2       1.00000000       0.11452595      -0.13475928      -0.00251985
Ni       0.00286097       1.51434888       4.24680390        4       1.00000000      -0.11406276       0.08006214      -0.12198935
Pt       2.50085331       1.52442087       4.18487024        4       0.00000000      -0.09167651      -0.00050459       0.07696714
Ni       5.13447213       1.49054483       4.23248720        4       1.00000000      -0.03823642      -0.02912563      -0.35977888
Ni       7.68336024       1.49343877       4.27002886        5       1.00000000       0.03684797      -0.01205579      -0.20403651
Ni       1.26011146       3.69534843       4.30527085        5       1.00000000      -0.06060462       0.02265721       0.05344576
Ni       3.83022389       3.73310754       4.23579966        4       1.00000000      -0.05336494       0.08874272      -0.25536910
Pt       6.39318397       3.68256530       4.25989113        5       0.00000000      -0.03773430      -0.05006488      -0.08255611
Ni       8.97959329       3.68706290       4.26106939        5       1.00000000       0.05022532       0.00612922      -0.24767853
Ni       2.57471672       5.79082552       4.30521991        5       1.00000000       0.03719291      -0.13239017      -0.05467983
Ni       5.12394821       5.83300358       4.28112262        5       1.00000000       0.04747129      -0.09355851      -0.24508528
Ni       7.65995289       5.82725387       4.28791280        5       1.00000000      -0.03638407      -0.06701945      -0.25646519
Ni      10.21656180       5.77556580       4.34326616        5       1.00000000      -0.02313624      -0.05948473      -0.03635139
Pt       3.90434383       7.98577433       4.22815538        4       0.00000000       0.09707876      -0.09170081       0.06405138
Ni       6.38211519       8.00228163       4.23869032        4       1.00000000      -0.06085703      -0.07587528      -0.30611583
Pt       8.86834618       7.98206516       4.24542667        4       0.00000000      -0.08159753      -0.00723209      -0.02633329
Pt      11.53904310       8.00805359       4.23248372        4       0.00000000       0.01524344      -0.10048703      -0.05432076
Pt       0.03179947      -0.03535765       6.43581216        7       0.00000000       0.06691600       0.01658165       0.31078876
Pt       2.55225035      -0.05320755       6.47133844        8       0.00000000      -0.00663142      -0.01600632       0.45241490
Pt       5.12237340      -0.03251162       6.36062527        7       0.00000000      -0.02706127       0.19803558       1.21081173
Pt       7.68103236      -0.04638203       6.48593775        8       0.00000000       0.01625323       0.11818785       0.42221046
Ni       1.28325569       2.26642981       6.39785205        7       1.00000000       0.01472337       0.13705314      -0.17067881
Pt       3.84889411       2.31734585       6.34300948        6       0.00000000       0.09200437       0.04768405       0.58309047
Ni       6.40768712       2.23927241       6.33670517        6       1.00000000       0.00667370       0.01023088       0.21672827
Pt       8.96973768       2.29931426       6.40448301        7       0.00000000      -0.06348791       0.07233936       0.06520425
Ni       2.53783382       4.44234074       6.38277901        7       1.00000000      -0.02555910      -0.00503954      -0.33164851
Ni       5.12931746       4.44724452       6.40011677        7       1.00000000       0.01473546       0.05668763      -0.27835114
Ni       7.66939728       4.43758103       6.33374088        6       1.00000000       0.03403448       0.05523512       0.03548743
Ni      10.25950995       4.42986221       6.40277897        7       1.00000000       0.00534358       0.01647452      -0.31807698
Ni       3.83837299       6.50249643       6.40579771        7       1.00000000       0.01125026      -0.11970424      -0.30828355
Ni       6.39071747       6.51698150       6.31779354        6       1.00000000       0.02402427       0.00205143      -0.04378119
Ni       8.95393649       6.49283656       6.41342652        7       1.00000000      -0.03080773      -0.14211481      -0.23234456
Ni      11.50633556       6.50030226       6.42781435        7       1.00000000      -0.00480895      -0.01144930      -0.24015989
