64
Lattice="10.459958189375651 0.03998153590018287 0.06486934355933346 5.264604120459707 9.131488506039554 0.019141890147653152 0.0 0.0 21.83990260534422" Properties=species:S:1:pos:R:3:tags:I:1:initial_magmoms:R:1:forces:R:3 unique_id=4796e5a4fa794a3c890e068aa912ad3a stress="0.0067570074369573034 5.4610293818238044e-05 0.0001067536391302071 5.4610293818238044e-05 0.0072410183178746096 0.00010557382890297813 0.0001067536391302071 0.00010557382890297813 -0.0013659985557832443" energy=-384.29289984798584 pbc="T T T"
Pt      -0.06761547       0.05193652       0.02737376        0       0.00000000      -0.16954327      -0.00294232      -0.14266737
Ni       2.65293675      -0.01245838       0.09438535        1       1.00000000       0.09377034      -0.03521320       0.37509621
Ni       5.27912413      -0.01500422       0.20877108        2       1.00000000       0.13590029       0.02022125       0.03234708
Ni       7.79983848       0.07103439       0.17356426        2       1.00000000      -0.10616727       0.02680329       0.51667668
Pt       1.26792047       2.29877622       0.00000000        0       0.00000000       0.03363385       0.12131671      -0.28132033
Pt       4.00988185       2.21868713       0.16702595        2       0.00000000       0.15454595       0.08555276      -0.77348074
Ni       6.60322012       2.25317752       0.20964750        2       1.00000000      -0.04591719      -0.13431592       0.27940551
Ni       9.11517967       2.32774838       0.14823342        1       1.00000000      -0.03140293      -0.00412222       0.39322433
Pt       2.53953430       4.61374263       0.15901644        2       0.00000000      -0.08229970       0.09319893      -0.87424978
Pt       5.35798048       4.51660252       0.21167439        2       0.00000000       0.14780077      -0.09840578      -0.54978880
Ni       7.93155498       4.56413261       0.21243095        2       1.00000000       0.09292985       0.07399861       0.29656637
Ni      10.42111154       4.63412340       0.15491634        2       1.00000000      -0.04505598       0.14094920       0.42057382
Pt       3.85913399       6.91161606       0.16004123        2       0.00000000      -0.16784613       0.02156849      -0.84063897
Pt       6.66496882       6.83645685       0.17530529        2       0.00000000      -0.04466519      -0.17012148      -0.75099657
Ni       9.23243006       6.84618892       0.13343546        1       1.00000000       0.04807404      -0.07734062       0.47752507
Ni      11.75887041       6.89985362       0.22324928        2       1.00000000       0.06768041      -0.04616497      -0.08238778
Pt       1.30189743       0.76377618       2.27918702        3       0.00000000       0.04162279       0.00924786       0.13053159
Pt       4.05709853       0.75279751       2.34397930        3       0.00000000       0.06827796      -0.19236264       0.30699176
Ni       6.60430170       0.78983476       2.30769089        3       1.00000000       0.09694914      -0.01109251       0.09799224
Ni       9.09500733       0.80479640       2.32728145        3       1.00000000      -0.09559356       0.02095578       0.06085149
Pt       2.63041512       3.06213051       2.31797850        3       0.00000000      -0.06107343      -0.01936541       0.30806667
Ni       5.30843256       3.02684425       2.34433348        3       1.00000000       0.04328696      -0.07132431       0.35257486
Pt       7.80445143       3.05298586       2.34244121        3       0.00000000      -0.01348146      -0.02837936       0.09711099
Pt      10.39858983       3.14620946       2.31371651        3       0.00000000      -0.04298389      -0.00737430       0.06909243
Pt       3.96031760       5.33352171       2.31803178        3       0.00000000       0.04781619       0.00800085       0.27939865
Ni       6.62523429       5.29408035       2.34706706        3       1.00000000       0.10976104      -0.07685027       0.33390549
Ni       9.18277629       5.33699908       2.34165495        3       1.00000000      -0.01848584      -0.02736802       0.12336343
Ni      11.75500932       5.37424639       2.35479726        4       1.00000000      -0.04597258      -0.05885573       0.18668267
Pt       5.23253670       7.63244958       2.31345420        3       0.00000000      -0.01539301       0.06838758       0.25090935
Pt       7.94791888       7.52343947       2.34551798        3       0.00000000       0.15112997       0.05249720       0.22494458
Pt      10.57910926       7.55637847       2.28260567        3       0.00000000      -0.04834761      -0.04647839       0.21331006
Ni      13.09071412       7.69730938       2.34611198        3       1.00000000       0.00806837       0.14776437       0.14272875
Pt      -0.08882422       1.58677771       4.58160043        6       0.00000000      -0.20193293       0.17410040      -0.19253806
Pt       2.64370591       1.51022351       4.55452070        6       0.00000000      -0.07488833       0.01961156      -0.21096537
Ni       5.32615843       1.55358947       4.52156258        5       1.00000000       0.09256196       0.07030400      -0.23969919
Ni       7.84369539       1.59424036       4.53777724        5       1.00000000      -0.08878292       0.13131678      -0.16699387
Pt       1.22543924       3.85078593       4.52476824        5       0.00000000      -0.15841682       0.04778370      -0.20445175
Pt       4.05533007       3.75010949       4.48757975        5       0.00000000       0.07615669       0.01664422      -0.30533689
Ni       6.65101970       3.77902381       4.52093125        5       1.00000000       0.10938392      -0.04018745      -0.23626823
Ni       9.13496765       3.86414057       4.55470170        6       1.00000000      -0.12792060       0.04079546      -0.18561216
Pt       2.59104627       6.10414868       4.45498495        5       0.00000000      -0.07913256       0.07683925      -0.32828164
Pt       5.38879432       6.03860390       4.49154605        5       0.00000000       0.10542114      -0.06688434      -0.34972493
Ni       7.95677055       6.02168594       4.53540492        5       1.00000000       0.11933415      -0.16280346      -0.24063200
Ni      10.44177616       6.08060830       4.57534907        6       1.00000000      -0.10895752      -0.02261162      -0.08834371
Pt       3.93241345       8.43903999       4.50476276        5       0.00000000      -0.05842326       0.10254510      -0.21494015
Pt       6.59632105       8.37888418       4.57273721        6       0.00000000      -0.12443174       0.09686791      -0.23029942
Pt       9.22670067       8.29406030       4.61670780        6       0.00000000      -0.02583903      -0.09419246      -0.00883335
Pt      11.81107904       8.48386989       4.52771155        5       0.00000000      -0.08900349       0.13548722      -0.11395076
Ni       0.03055212       0.05111427       6.65757226        8       1.00000000      -0.02479147      -0.00214725       0.07656323
Ni       2.62408184       0.00759052       6.76328685        9       1.00000000      -0.05085559       0.08533077      -0.18696226
Pt       5.23591485      -0.01444741       6.83990261        9       0.00000000      -0.01723656       0.15884530      -0.01358360
Ni       7.90724153       0.05017252       6.78979275        9       1.00000000       0.04729167      -0.02339585      -0.36728388
Ni       1.28809970       2.24928932       6.64813753        7       1.00000000      -0.00621638       0.03585348       0.16303373
Pt       3.92899845       2.23282822       6.71019099        8       0.00000000       0.15946651      -0.05943507       0.89116453
Pt       6.67813753       2.24394226       6.74859307        8       0.00000000      -0.10683261      -0.00478217      -0.21351951
Ni       9.22568779       2.29192969       6.80608905        9       1.00000000       0.03427278       0.00341293      -0.38264704
Pt       2.59475973       4.52164817       6.69454305        8       0.00000000       0.09672843      -0.02316614       0.70679246
Pt       5.33110185       4.55406072       6.71623559        8       0.00000000       0.10828333       0.01871424       0.63449299
Pt       8.02323889       4.57147815       6.74647266        8       0.00000000      -0.10862338      -0.02796507      -0.34658455
Ni      10.49053844       4.56797289       6.79059546        9       1.00000000       0.06740860      -0.04985206      -0.34382137
Pt       3.97532440       6.91997049       6.69432351        8       0.00000000       0.09846298      -0.11503127       0.65781075
Pt       6.69233421       6.90719316       6.71761780        8       0.00000000      -0.01371903      -0.16107494       0.72260442
Ni       9.21461998       6.84436832       6.78291901        9       1.00000000       0.06924735      -0.03547187      -0.20270111
Pt      11.74218030       6.84713687       6.83532273        9       0.00000000      -0.02503418      -0.10783674      -0.15282699
