64
Lattice="10.137167035706236 0.0073153132474198055 -0.08151066212486797 5.0749187649620815 8.780560884676348 0.0012532617271205488 -0.06655317693411054 0.039606081106131855 8.69396362051908" Properties=species:S:1:pos:R:3:tags:I:1:initial_magmoms:R:1:forces:R:3 unique_id=b81af0acc65d4304a424fdd2c193d293 stress="0.00011579476512529191 -4.414502663819555e-06 1.143769624888118e-05 -4.414502663819555e-06 0.00011480885871041624 -1.4347451655719244e-05 1.143769624888118e-05 -1.4347451655719244e-05 0.00012486796852240883" energy=-391.5788698813911 pbc="T T T"
Ni       0.02674962      -0.02014287       0.15865031        4       1.00000000       0.06557001       0.00666007       0.23060994
Ni       2.48930358      -0.00109388       0.17103920        4       1.00000000      -0.13096834      -0.04292348       0.26238451
Ni       5.07520706      -0.02457753       0.07654464        4       1.00000000      -0.03563081      -0.03624168       0.22496805
Ni       7.57717284      -0.05887702       0.11175608        4       1.00000000      -0.05488608      -0.10636361       0.29276709
Ni       1.26670626       2.21560141       0.11489775        4       1.00000000      -0.03227104       0.08447807       0.25081512
Pt       3.71362287       2.21121917       0.17471921        4       0.00000000      -0.11418896       0.03612435       0.26922063
Pt       6.30648013       2.18943639       0.01447607        4       0.00000000      -0.05164004       0.01349153      -0.10028780
Pt       8.94483257       2.24364008      -0.06579762        4       0.00000000      -0.00397495       0.07962457      -0.33849926
Ni       2.50084493       4.43940532       0.11554320        4       1.00000000      -0.07969148       0.11736553       0.20735780
Ni       5.04802195       4.45365638       0.18267327        4       1.00000000      -0.13040153       0.07850950       0.42259346
Ni       7.57807527       4.44119450       0.03993441        4       1.00000000      -0.10090311       0.11516367       0.10002946
Ni      10.18939668       4.42116566       0.04267440        4       1.00000000       0.10724666       0.13536900       0.19751140
Ni       3.77317535       6.56742754       0.08736929        4       1.00000000      -0.13297878      -0.05007624       0.10159076
Ni       6.31504186       6.58000640       0.06106529        4       1.00000000      -0.03168881      -0.01342200      -0.02516081
Pt       8.87416519       6.59523125       0.13533489        4       0.00000000      -0.02227514       0.04852449       0.20813222
Ni      11.43700054       6.58826625       0.04717254        4       1.00000000      -0.01042435       0.02166311       0.12720000
Ni       1.30621215       0.76771648       2.18906351        3       1.00000000       0.03383954       0.04085592       0.12049236
Ni       3.76300961       0.69534959       2.17916257        3       1.00000000      -0.06820574      -0.09961345      -0.04491068
Ni       6.27851223       0.68905716       2.14079907        3       1.00000000       0.02832153      -0.07748676      -0.03389929
Pt       8.86493100       0.75013686       2.12890004        3       0.00000000       0.07217712       0.08970647      -0.08034289
Ni       2.49426756       2.95927561       2.22108499        3       1.00000000       0.01628954       0.04321680       0.07537088
Ni       5.01042504       2.97541677       2.18655793        3       1.00000000      -0.08523428       0.06983385       0.00329790
Pt       7.60593921       3.01267444       2.17728989        3       0.00000000       0.07772029       0.01058251      -0.13860250
Ni      10.18621182       2.97714657       2.12070659        3       1.00000000       0.05440624       0.04892890      -0.03596707
Ni       3.74952115       5.10353939       2.18230291        3       1.00000000      -0.15022751      -0.00412309       0.12523045
Ni       6.33624070       5.15226723       2.13653660        3       1.00000000       0.14986641       0.02642890       0.01284897
Ni       8.89305269       5.16090850       2.19627036        3       1.00000000       0.14791395       0.12778592       0.12906946
Ni      11.39373972       5.15666770       2.09779545        3       1.00000000      -0.03214249       0.07669651       0.01641394
Pt       5.10371770       7.25044666       2.15909364        3       0.00000000      -0.02730483      -0.04575818       0.00085351
Ni       7.61972407       7.33996942       2.20877789        3       1.00000000       0.08630055      -0.03962032       0.09524593
Ni      10.14817272       7.33361851       2.19101421        3       1.00000000      -0.00420339      -0.06201814       0.05701668
Ni      12.60220689       7.27602895       2.10437602        3       1.00000000      -0.03814354      -0.14589135       0.08119376
Ni      -0.01463292       1.49847480       4.32892454        2       1.00000000       0.06579732      -0.05847556      -0.10312275
Ni       2.46386787       1.46011770       4.24161862        2       1.00000000       0.00621451      -0.07259650      -0.09673227
Pt       5.03411867       1.41436388       4.21172416        2       0.00000000      -0.05952212      -0.01195559       0.03477234
Ni       7.59566568       1.49533161       4.28354335        2       1.00000000       0.02480185      -0.04369488      -0.10024735
Pt       1.23307887       3.69169567       4.31950790        2       0.00000000       0.04840059      -0.01149161      -0.00035580
Ni       3.75256444       3.72526445       4.24886916        2       1.00000000       0.02956415       0.05792902      -0.10608276
Pt       6.32239471       3.74309735       4.29278109        2       0.00000000      -0.05735683       0.09379813       0.00851840
Ni       8.86531205       3.71513635       4.29600618        2       1.00000000       0.04058750       0.19428921      -0.10745421
Ni       2.49035605       5.85763551       4.32913873        2       1.00000000      -0.03363884      -0.07613284      -0.13954716
Ni       5.03809551       5.87852863       4.30598335        2       1.00000000      -0.00937094      -0.05354114      -0.00995551
Ni       7.58124270       5.90445379       4.24036452        2       1.00000000       0.05913140       0.07643251      -0.17212498
Ni      10.12172007       5.89052400       4.21908769        2       1.00000000       0.02838734       0.00656784      -0.18282417
Pt       3.74377250       8.00643214       4.31784519        2       0.00000000      -0.08415836      -0.00330400       0.14347986
Ni       6.35038091       8.05360048       4.27665937        2       1.00000000       0.04790725       0.00720926      -0.07183984
Ni       8.83697047       8.03855201       4.22441220        2       1.00000000      -0.01343078      -0.13770843      -0.10609837
Ni      11.33786229       8.00732564       4.23647579        2       1.00000000      -0.04774301      -0.16822220      -0.08942917
Pt      -0.04773265       0.04143220       6.47894053        1       0.00000000       0.00755232       0.00476088       0.07633471
Pt       2.51103264       0.00718078       6.40931906        1       0.00000000       0.04742909      -0.00848323       0.04539191
Ni       5.03140204       0.00609163       6.39807603        1       1.00000000      -0.05482377      -0.07580481      -0.14459626
Pt       7.48010457       0.02549708       6.41365065        1       0.00000000      -0.10413820      -0.02949797       0.14811076
Ni       1.18825599       2.26529556       6.44477311        1       1.00000000      -0.01629544      -0.01675568      -0.07570755
Pt       3.73698775       2.26638301       6.35674407        1       0.00000000      -0.01324226       0.05404270      -0.31302273
Ni       6.32862468       2.23361960       6.31501112        1       1.00000000       0.03257942       0.04065446      -0.28233169
Ni       8.83288469       2.27990857       6.24533514        1       1.00000000       0.01937942       0.01853924      -0.46560646
Ni       2.45225036       4.46292814       6.44775323        1       1.00000000      -0.02383975       0.08263163      -0.05664166
Pt       5.03504703       4.49674744       6.47314156        1       0.00000000       0.08852854       0.11950837       0.29946287
Ni       7.60180107       4.39470077       6.39930243        1       1.00000000       0.13163394      -0.09395827      -0.08648156
Ni      10.11504308       4.38652011       6.37598632        1       1.00000000       0.09142102      -0.12834965      -0.04224021
Ni       3.72865255       6.58809698       6.44965030        1       1.00000000      -0.09477232       0.00651275      -0.08352124
Ni       6.30375068       6.60122452       6.39905091        1       1.00000000       0.12038232       0.03429094      -0.28992831
Pt       8.88218006       6.53520700       6.30523082        1       0.00000000       0.15648664      -0.18956907      -0.25910539
Ni      11.38772271       6.56867199       6.36127063        1       1.00000000       0.06388138      -0.16509687      -0.18561746
