64
Lattice="10.324520339555196 -0.01738623254214356 0.06740072329229047 5.14720325072 8.864118166356707 0.03756565683615866 0.0 0.0 21.598861721855" Properties=species:S:1:pos:R:3:tags:I:1:initial_magmoms:R:1:forces:R:3 unique_id=1f2c63a9e3554db091985e79490653c3 energy=-376.2849421674664 stress="0.005860587005269122 -3.181187549985373e-05 0.0004640970031093385 -3.181187549985373e-05 0.0057227913717361805 0.0001734992355504225 0.0004640970031093385 0.0001734992355504225 -0.0017653744972571245" pbc="T T T"
Ni       0.01578711       0.00584678       0.10563975        1       1.00000000       0.11671417       0.04907588      -0.06549295
Ni       2.58483385       0.00689208       0.14630206        1       1.00000000      -0.02664729       0.05488564       0.06759903
Ni       5.16201930      -0.02702497       0.11567213        1       1.00000000      -0.04736172       0.09914735      -0.36714339
Ni       7.74643993      -0.06861234       0.16699084        2       1.00000000      -0.05201131      -0.06753183      -0.15231318
Ni       1.29665204       2.22283409       0.04640538        0       1.00000000       0.01879648      -0.02213205       0.41080153
Pt       3.78439677       2.17543158       0.13669866        1       0.00000000       0.04432153       0.02114767      -0.27836131
Pt       6.45277351       2.12811925       0.07842024        1       0.00000000       0.05929540      -0.05057422      -0.09527326
Pt       9.13035693       2.20491667       0.11039001        1       0.00000000       0.00552684       0.07024674      -0.53011625
Ni       2.53421494       4.45525921       0.00132912        0       1.00000000      -0.00041104      -0.03676141       0.16295504
Pt       5.10692375       4.46058226       0.00000000        0       0.00000000       0.10917898      -0.04063571      -0.33861022
Pt       7.78907576       4.46689042       0.01130420        0       0.00000000      -0.07249322       0.00740294      -0.28247024
Ni      10.37751583       4.44819251       0.05944210        1       1.00000000       0.05971349      -0.00852337       0.12240592
Ni       3.81215751       6.69108290       0.04548153        0       1.00000000      -0.02062776       0.10564972       0.30491716
Pt       6.45023248       6.74901377       0.16885245        2       0.00000000       0.01283196      -0.01589064      -0.51178032
Ni       9.06628192       6.67767844       0.06238756        1       1.00000000      -0.03165424       0.07854664       0.10895373
Ni      11.62753711       6.64186085       0.06988379        1       1.00000000       0.10658750       0.06510188       0.24030289
Ni       1.33545799       0.74906779       2.17469271        4       1.00000000       0.07008027       0.08092325       0.23497213
Ni       3.85009619       0.76078140       2.20625812        4       1.00000000      -0.08895609       0.16314670       0.27231329
Ni       6.45902353       0.76162000       2.21660521        4       1.00000000      -0.03556608       0.19728719       0.24412756
Pt       9.06063618       0.72627511       2.23990143        4       0.00000000       0.03742540       0.18404851       0.02542814
Ni       2.56409465       2.90238979       2.22695985        4       1.00000000      -0.06130499      -0.16222301       0.31581348
Ni       5.17005516       2.91300880       2.23651391        4       1.00000000      -0.05260359      -0.08110905       0.21456054
Ni       7.73016711       2.92388498       2.24101684        4       1.00000000      -0.02636115      -0.05089865       0.11723168
Ni      10.37649689       2.91036385       2.26195327        5       1.00000000       0.11945018      -0.14665154       0.25495371
Pt       3.88139630       5.16699821       2.20290092        4       0.00000000       0.04848146      -0.12178144      -0.12585670
Ni       6.46005850       5.16149043       2.21630869        4       1.00000000       0.00085141      -0.10264366       0.07920766
Pt       8.99153314       5.13221186       2.25944969        5       0.00000000      -0.12342848      -0.13830993      -0.04153187
Pt      11.63225460       5.10068991       2.19843895        4       0.00000000      -0.05021392      -0.11110476       0.06903041
Ni       5.18493424       7.41254867       2.20267263        4       1.00000000       0.08078370       0.05051064       0.20231598
Ni       7.71178647       7.42710441       2.23074926        4       1.00000000      -0.12858039       0.11050850       0.24912197
Pt      10.32209078       7.43048605       2.13711791        3       0.00000000       0.00127942      -0.01843904      -0.07713065
Ni      12.91941535       7.37522892       2.20272486        4       1.00000000       0.05262165      -0.01916892       0.03242286
Ni       0.08385218       1.52834115       4.28803810        6       1.00000000       0.20192475       0.04336566      -0.20089274
Ni       2.56453258       1.52199007       4.28883124        6       1.00000000      -0.09582373       0.03092593      -0.22829585
Ni       5.17238099       1.49897781       4.30976495        6       1.00000000      -0.14085045      -0.02294474      -0.35351039
Ni       7.77338112       1.49318808       4.34950226        6       1.00000000       0.04212395      -0.08165304      -0.25638577
Ni       1.33423197       3.64531424       4.35296310        7       1.00000000       0.05931292      -0.13339437      -0.08704982
Ni       3.84410636       3.68153426       4.31534337        6       1.00000000      -0.15138980      -0.13049647      -0.26569778
Pt       6.50094751       3.63468245       4.33886297        6       0.00000000      -0.02714697      -0.04487892      -0.21067552
Ni       9.06584726       3.66022367       4.34755217        6       1.00000000       0.07620168      -0.20387953      -0.30628117
Ni       2.59340470       5.86242049       4.38907969        7       1.00000000      -0.01603345      -0.14758397       0.00492331
Pt       5.17892433       5.87900607       4.33264649        6       0.00000000       0.08858187      -0.04733349       0.02144046
Ni       7.76364742       5.88661246       4.36222425        7       1.00000000      -0.06844650      -0.01154303      -0.19446163
Pt      10.34921914       5.81402903       4.48862127        8       0.00000000       0.02709250      -0.04461194       0.10647198
Pt       3.92393271       8.13283857       4.32077479        6       0.00000000       0.00535128       0.06754836       0.04828858
Ni       6.46951066       8.15980545       4.30851300        6       1.00000000      -0.04036892       0.14495770      -0.28490270
Pt       8.96700366       8.15226224       4.31977716        6       0.00000000      -0.10443798       0.10305952       0.02882066
Pt      11.64082387       8.14052431       4.33462943        6       0.00000000       0.00351377       0.04481831      -0.04804056
Pt       0.04512198       0.01313437       6.50429802       10       0.00000000       0.08226443       0.03894597       0.28645408
Pt       2.60452410       0.01806623       6.53315344       10       0.00000000      -0.04205579       0.07308632       0.21248043
Pt       5.19561249      -0.04372971       6.56002772       11       0.00000000      -0.02120343       0.19445091       0.32159867
Pt       7.77008852      -0.05102676       6.59886172       11       0.00000000      -0.04873994       0.15475705       0.33850442
Ni       1.32200806       2.28215441       6.45594146       10       1.00000000      -0.01403985       0.18139461      -0.34075668
Pt       3.88986969       2.31003005       6.40009083        9       0.00000000       0.00067676      -0.00853137       0.25451760
Ni       6.48611169       2.23406464       6.44443744        9       1.00000000      -0.02166703      -0.07150928       0.11699739
Pt       9.07703670       2.29622615       6.41809981        9       0.00000000       0.00333189      -0.04545534       0.47551799
Ni       2.57812270       4.46176010       6.46905414       10       1.00000000      -0.05490729      -0.00204320      -0.43012580
Ni       5.17674804       4.42098421       6.42736062        9       1.00000000      -0.04897509      -0.01980323       0.18218816
Ni       7.78965125       4.42542212       6.42441424        9       1.00000000       0.08782185       0.02767934       0.07351528
Ni      10.38770940       4.42554321       6.55767900       11       1.00000000       0.06953277      -0.10657987      -0.17929686
Ni       3.85828564       6.58212768       6.51091024       10       1.00000000      -0.04839284      -0.13592087      -0.22391912
Pt       6.50609576       6.56062886       6.47778654       10       0.00000000       0.06034026       0.08427777       0.52717700
Ni       9.07756702       6.57886307       6.55113320       11       1.00000000      -0.06917435      -0.08694994      -0.07537880
Ni      11.65396287       6.56638809       6.57170438       11       1.00000000       0.07986415       0.01259513      -0.17657913
