64
Lattice="10.34356395813926 0.009174824203675202 0.03200753048673365 5.179727609905268 8.891732266939721 0.02185786888852316 0.0 0.0 21.546248477427987" Properties=species:S:1:pos:R:3:tags:I:1:initial_magmoms:R:1:forces:R:3 unique_id=71a4e5db8d974044a312cff9d359cc45 stress="0.005599164036779146 0.00018627290938248885 0.00042465481668347134 0.00018627290938248885 0.005551288888973394 0.00021355666886660257 0.00042465481668347134 0.00021355666886660257 -0.0021119117919398585" energy=-375.6158060704231 pbc="T T T"
Ni       0.00456269       0.02440056       0.10495571        1       1.00000000       0.11011861      -0.00287444      -0.19655105
Ni       2.58826476       0.01156999       0.14437232        1       1.00000000      -0.00091540       0.03434843      -0.10321659
Ni       5.17165713      -0.00446526       0.10200471        1       1.00000000      -0.00231531       0.19762438      -0.33823474
Ni       7.76660942      -0.02922044       0.12782898        1       1.00000000      -0.08701441      -0.12201422      -0.21604740
Ni       1.26956184       2.23232098       0.11750491        1       1.00000000      -0.07862071       0.05258460       0.08624174
Pt       3.83002163       2.23560151       0.12862313        1       0.00000000      -0.01939532      -0.00954310      -0.50747716
Pt       6.49692650       2.18125995       0.06016737        1       0.00000000       0.06940273      -0.07034026      -0.01037130
Ni       9.09727949       2.23547224       0.09807641        1       1.00000000       0.08696049       0.13536168      -0.06624776
Ni       2.56977884       4.47108152       0.00000000        0       1.00000000      -0.07158241      -0.05370155       0.19515803
Ni       5.17350405       4.45886317       0.10584682        1       1.00000000       0.18379562      -0.07177603      -0.33465782
Pt       7.84277491       4.46356401       0.05661607        1       0.00000000       0.05866405       0.00926729      -0.00115165
Ni      10.37853835       4.45263895       0.03434852        0       1.00000000       0.06715220      -0.07325602       0.31119795
Ni       3.85210224       6.68750756       0.02705141        0       1.00000000      -0.02018169       0.14142951       0.27510182
Pt       6.45263706       6.72390721       0.14587765        1       0.00000000      -0.00814806       0.03422278      -0.62897338
Ni       9.08404846       6.69030764       0.03373782        0       1.00000000      -0.07972002      -0.01524003       0.13460737
Ni      11.66044330       6.67596791       0.02583130        0       1.00000000       0.09978540       0.00987528       0.26108389
Ni       1.30742351       0.76593688       2.09045823        2       1.00000000       0.00335205       0.10642911       0.03645897
Ni       3.87946476       0.75061842       2.15053728        3       1.00000000       0.04569118      -0.00405791       0.18269232
Ni       6.46313097       0.76853438       2.17487695        3       1.00000000      -0.03671948       0.13158796       0.26538680
Pt       9.06255247       0.79822368       2.13285182        2       0.00000000      -0.03720995       0.15429123       0.13902810
Ni       2.56384256       2.95789506       2.14806827        2       1.00000000      -0.11025740       0.07016020       0.07420597
Ni       5.19565473       2.94337885       2.18910056        3       1.00000000       0.02576864      -0.10232483       0.26492285
Ni       7.78437789       2.98422819       2.18745126        3       1.00000000       0.09110941       0.07373480       0.19769976
Ni      10.34547903       2.97015615       2.17567854        3       1.00000000      -0.04828155       0.03929867       0.17300078
Pt       3.89609005       5.17042689       2.10239482        2       0.00000000      -0.03110355      -0.06550264      -0.02999432
Ni       6.51401807       5.17684429       2.17263194        3       1.00000000       0.13226675      -0.06778306       0.16340657
Ni       9.04005788       5.17279323       2.20476825        3       1.00000000      -0.06263639      -0.12370790       0.27846327
Pt      11.61037504       5.13791153       2.17710330        3       0.00000000      -0.09148921      -0.06441929       0.10250387
Ni       5.17293304       7.42877098       2.13950893        2       1.00000000      -0.14282072       0.01657976       0.04288789
Ni       7.77583032       7.40838006       2.15606031        3       1.00000000       0.07607317      -0.08164122       0.09097816
Pt      10.33337689       7.41769815       2.08282648        2       0.00000000      -0.00316267      -0.08211713      -0.08872746
Ni      12.94831743       7.41870893       2.13610500        2       1.00000000      -0.01060696      -0.04194413      -0.04995164
Ni      -0.00904188       1.55457202       4.26663184        5       1.00000000      -0.05052997       0.18286952      -0.19630964
Pt       2.58867558       1.57696430       4.17804192        4       0.00000000      -0.04545499       0.05000875      -0.07048428
Ni       5.21172752       1.50298602       4.27112738        5       1.00000000      -0.00098615      -0.05633192      -0.31855672
Ni       7.77913586       1.51213768       4.29751505        5       1.00000000       0.08414648      -0.09029697      -0.25377550
Ni       1.27827430       3.75693649       4.30398505        5       1.00000000      -0.11420668       0.03389825      -0.06115242
Ni       3.86689421       3.72618696       4.27932104        5       1.00000000      -0.06991257      -0.01464054      -0.25837135
Pt       6.54179811       3.65630436       4.26066288        5       0.00000000       0.03111739      -0.01875600      -0.08674813
Ni       9.10589385       3.74253242       4.29555909        5       1.00000000       0.18215501      -0.00179742      -0.29202847
Ni       2.56067052       5.87526005       4.35201806        6       1.00000000      -0.08293719      -0.14141596      -0.02240862
Pt       5.16611456       5.88572472       4.26155833        5       0.00000000       0.02098398      -0.08667476      -0.07965663
Ni       7.83740473       5.87647708       4.29805246        5       1.00000000       0.11609170      -0.12745149      -0.29618078
Ni      10.35679260       5.86719076       4.37271140        6       1.00000000      -0.01285731      -0.08966477      -0.07904094
Pt       3.87665214       8.15786379       4.26630363        5       0.00000000      -0.00672387       0.02583069       0.00793395
Pt       6.48633584       8.17242390       4.19245118        4       0.00000000      -0.08230171       0.13917277      -0.19991830
Pt       9.07243579       8.09919191       4.29193476        5       0.00000000      -0.06119130      -0.00280046      -0.01652567
Pt      11.66101595       8.12969039       4.27685602        5       0.00000000      -0.04734863      -0.10196847      -0.07694319
Pt       0.00041521      -0.01272269       6.51149678        8       0.00000000       0.03788045       0.19441344       0.33075113
Pt       2.61784920      -0.01888901       6.54108458        8       0.00000000      -0.01374591       0.09238437       0.43892378
Pt       5.20594251      -0.05340055       6.52378497        8       0.00000000       0.00009001       0.01215817       0.40325907
Pt       7.75312926      -0.03071873       6.54624848        8       0.00000000      -0.04574163       0.08628030       0.29830558
Pt       1.28629745       2.34821069       6.47341642        8       0.00000000      -0.14461968       0.08475847       0.01230180
Pt       3.91705412       2.25973200       6.39597919        7       0.00000000       0.09586748      -0.00846452       0.55963043
Ni       6.49436997       2.23576314       6.39738227        7       1.00000000      -0.08154570      -0.11492580       0.15548127
Pt       9.01373099       2.33033813       6.45294673        8       0.00000000       0.03953826      -0.01452158      -0.02992708
Ni       2.57485166       4.51476061       6.43865964        7       1.00000000       0.01022612       0.03859838      -0.29833369
Pt       5.17493949       4.44849166       6.51845481        8       0.00000000       0.02230267      -0.06319039       0.32583797
Ni       7.81619099       4.46599410       6.39371475        7       1.00000000       0.03298018       0.14168173      -0.00518260
Ni      10.36149774       4.52621481       6.45569928        8       1.00000000      -0.05655847       0.03463677      -0.39045239
Ni       3.84935373       6.63002867       6.47383517        8       1.00000000      -0.06467889      -0.03836980      -0.20445127
Pt       6.54740473       6.61007808       6.43583687        7       0.00000000       0.18355097      -0.12285338       0.57707769
Ni       9.12119449       6.59492897       6.47375160        8       1.00000000       0.04983758      -0.13657541      -0.24086776
Ni      11.65848847       6.59862660       6.48503577        8       1.00000000      -0.03338673      -0.04054392      -0.33561108
