64
Lattice="10.4038912780605 0.004121529333780765 0.02092425230500234 5.205514988135746 8.954573440844635 0.010164960897813147 0.017084580465503395 -0.0002801700889639505 8.891854602903246" Properties=species:S:1:pos:R:3:tags:I:1:initial_magmoms:R:1:forces:R:3 unique_id=fbb355a294054d398ec20301650a2869 stress="0.00039557398464072635 3.805571040474057e-06 -1.542616535343176e-05 3.805571040474057e-06 0.00039046001661408036 5.2684399499765055e-06 -1.542616535343176e-05 5.2684399499765055e-06 0.000359549993494003" energy=-402.25451301669233 pbc="T T T"
Ni      -0.03133451      -0.00472259       0.19096473        4       1.00000000      -0.14913012       0.00534340       0.34490437
Ni       2.62195018      -0.01651250       0.11257911        4       1.00000000       0.12646092      -0.04862711       0.26138626
Ni       5.20415048      -0.02182817       0.16680114        4       1.00000000       0.01280641       0.06658458       0.25624049
Ni       7.82604014      -0.03711704       0.12315018        4       1.00000000       0.08151595      -0.15288988       0.23421644
Pt       1.27793773       2.20925990       0.15541832        4       0.00000000      -0.07115481      -0.06016756       0.16684371
Pt       3.90170991       2.23074459       0.20331021        4       0.00000000       0.03011227       0.02370126       0.16068640
Pt       6.52185467       2.16662242       0.16368603        4       0.00000000       0.11175248      -0.11635259       0.15978841
Ni       9.11002478       2.21306207       0.15858611        4       1.00000000      -0.00070063      -0.13508050       0.17580670
Ni       2.60730600       4.50642205       0.14747938        4       1.00000000       0.04894617      -0.01365933       0.16191729
Ni       5.20061322       4.48844666       0.17201400        4       1.00000000       0.18027190      -0.05880937       0.27085316
Pt       7.87421678       4.51435929       0.08569822        4       0.00000000       0.11624951       0.00884486      -0.11887267
Ni      10.41891832       4.51536535       0.08246311        4       1.00000000       0.08260482       0.08619951       0.06194222
Ni       3.87847094       6.74393535       0.18311496        4       1.00000000      -0.05030134       0.13550362       0.25520977
Pt       6.49081460       6.77792927       0.21648539        4       0.00000000      -0.03842595       0.05698996       0.11377041
Ni       9.13181993       6.74013277       0.09282286        4       1.00000000       0.01804947       0.08140287       0.04648487
Ni      11.71867819       6.73602899       0.08969256        4       1.00000000       0.10509033       0.10697410      -0.00284783
Ni       1.30909305       0.70279276       2.21885726        3       1.00000000      -0.01986942      -0.08815910      -0.15627734
Ni       3.90150425       0.74703818       2.24492734        3       1.00000000       0.05196066      -0.03315703      -0.02454024
Ni       6.51180144       0.72756724       2.26890993        3       1.00000000       0.03095015      -0.03540101       0.10982109
Ni       9.10194384       0.71024190       2.22158232        3       1.00000000      -0.06737178      -0.04399192      -0.11033966
Ni       2.62794110       2.98021566       2.25225372        3       1.00000000      -0.02524344       0.12113878      -0.04744680
Ni       5.19007249       2.96760651       2.28511068        3       1.00000000      -0.02298897      -0.12325015       0.14398540
Pt       7.80577571       2.95493656       2.30016217        3       0.00000000      -0.07761647      -0.07670542      -0.15235655
Pt      10.38104836       2.94550821       2.30043875        3       0.00000000       0.09340247      -0.05744341      -0.06803819
Pt       3.93519600       5.21730175       2.20105440        3       0.00000000      -0.01163747      -0.01038679       0.07082966
Ni       6.53191534       5.23777525       2.25352700        3       1.00000000       0.14657168       0.03294434       0.01760698
Ni       9.08617448       5.25534413       2.28309117        3       1.00000000      -0.06691755       0.06531523       0.14687997
Pt      11.70509487       5.26121198       2.20994650        3       0.00000000      -0.08153606       0.06676791      -0.03544887
Ni       5.19446550       7.50272737       2.22074943        3       1.00000000      -0.11264563       0.07286433      -0.04109151
Ni       7.81040173       7.46940915       2.24851118        3       1.00000000       0.04165953      -0.02504405      -0.00394109
Pt      10.37742541       7.49386537       2.17263281        3       0.00000000      -0.03399902      -0.03615490      -0.01402990
Ni      13.02955853       7.50430670       2.22238159        3       1.00000000      -0.03740042       0.07930259      -0.09183978
Ni      -0.02836893       1.51109340       4.39499106        2       1.00000000      -0.05369098       0.04919700      -0.05943197
Pt       2.64105072       1.52069203       4.29440001        2       0.00000000       0.03823246       0.10288206      -0.08136606
Ni       5.22733357       1.49814263       4.37396611        2       1.00000000       0.03790680      -0.04777358      -0.24019194
Ni       7.82914336       1.49567334       4.40898863        2       1.00000000       0.01668020       0.01141515      -0.13767303
Pt       1.26696970       3.79867949       4.40507493        2       0.00000000       0.06152281       0.07505746       0.09231168
Ni       3.91323966       3.72860956       4.39546178        2       1.00000000      -0.00924215       0.01702432      -0.10024931
Pt       6.53914723       3.72315457       4.38774353        2       0.00000000      -0.10662342      -0.00908540       0.14434055
Ni       9.11328481       3.76723270       4.45388939        2       1.00000000      -0.00885627       0.12717064      -0.08123895
Ni       2.59085163       5.97279168       4.41912377        2       1.00000000      -0.01037867       0.07142407      -0.11590379
Pt       5.19981955       5.95500053       4.36159552        2       0.00000000       0.00664142       0.08163274       0.10894451
Ni       7.87235452       5.92885683       4.41279618        2       1.00000000       0.08916541      -0.09742746      -0.22142393
Ni      10.38492126       5.95414229       4.47847415        2       1.00000000      -0.06914350       0.02158509      -0.07099797
Pt       3.88795768       8.26634036       4.33178941        2       0.00000000      -0.01564630       0.02622764      -0.07765531
Pt       6.51811456       8.22489801       4.32862489        2       0.00000000      -0.01307223       0.01470239      -0.02739115
Pt       9.11341228       8.14756639       4.42591388        2       0.00000000      -0.05394193      -0.02012427       0.02050056
Pt      11.72865226       8.20504899       4.42000241        2       0.00000000      -0.04128966      -0.01447568      -0.05270771
Pt       0.00266200      -0.00016447       6.64657029        1       0.00000000       0.00101933      -0.00096171       0.16612190
Ni       2.62920756      -0.02235029       6.61624904        1       1.00000000       0.02519940      -0.01544621      -0.15328339
Pt       5.20893264      -0.10829546       6.67161373        1       0.00000000      -0.08599166      -0.24085292       0.17157282
Ni       7.79878949      -0.00520182       6.62195432        1       1.00000000      -0.02417297       0.00937541      -0.13338942
Pt       1.29383410       2.23435017       6.55035635        1       0.00000000       0.05025619      -0.00783618      -0.29749547
Pt       3.91184159       2.20283897       6.54548199        1       0.00000000      -0.05275833      -0.08329024      -0.21209785
Pt       6.54652687       2.18344886       6.54007163        1       0.00000000      -0.03909896      -0.11522334      -0.26246071
Pt       9.10471559       2.30258467       6.59236192        1       0.00000000      -0.00147229       0.08629627       0.01672980
Pt       2.53526966       4.53058158       6.62749304        1       0.00000000      -0.09419998       0.04792828       0.10318984
Pt       5.23979246       4.48267146       6.64911378        1       0.00000000      -0.00492192       0.06789736       0.11329506
Ni       7.87284476       4.49969664       6.52443971        1       1.00000000       0.10132916       0.04314698      -0.29960764
Ni      10.36825611       4.54478307       6.60267366        1       1.00000000      -0.15919361       0.17809689      -0.19788507
Pt       3.83042971       6.76370996       6.65751541        1       0.00000000      -0.10809024       0.06692366       0.14491328
Pt       6.63864204       6.70990565       6.57296601        1       0.00000000       0.15005350       0.02768213      -0.13421082
Ni       9.14864007       6.66293654       6.60973382        1       1.00000000       0.11502145      -0.24744366      -0.19609952
Ni      11.67698833       6.70085352       6.62147851        1       1.00000000      -0.15270870      -0.12032209      -0.22126211
