64
Lattice="10.129799718929286 -0.03681448777806879 0.08398404362834776 5.033017577821522 8.794557312123848 0.0853565097688398 0.0 0.0 21.46410734823118" Properties=species:S:1:pos:R:3:tags:I:1:initial_magmoms:R:1:forces:R:3 unique_id=042b3f98d45942878703bdf490ecca3f energy=-369.32059406335054 stress="0.0013932327645226287 -4.140375827674388e-05 0.0008694023942930953 -4.140375827674388e-05 0.001351788698362789 0.00025929745131603025 0.0008694023942930953 0.00025929745131603025 -0.005310999030591599" pbc="T T T"
Ni       0.05374408       0.03237434       0.04467167        0       1.00000000       0.12308903       0.08241245      -0.89580941
Ni       2.53062318      -0.04845113       0.13919722        1       1.00000000       0.02557515      -0.05144649      -0.43516151
Ni       5.05467925      -0.07749566       0.02306198        0       1.00000000      -0.06062732       0.00384085       0.18063176
Ni       7.61171158      -0.05731526       0.00905634        0       1.00000000       0.02702678      -0.00628354      -0.09019824
Ni       1.21993980       2.22726508       0.03284736        0       1.00000000       0.07875223       0.01193716       0.22055115
Pt       3.73539505       2.19571451       0.13817352        1       0.00000000       0.09548007       0.01714447      -0.79347719
Pt       6.39958970       2.22377130       0.00000000        0       0.00000000      -0.09021898       0.19907610      -0.36359493
Ni       8.92327940       2.23144325       0.03866529        0       1.00000000      -0.00977785       0.11450719       0.04504654
Ni       2.48296783       4.43626743       0.04936173        0       1.00000000       0.00857152       0.01054319       0.24418435
Ni       5.03273103       4.43279093       0.14437333        1       1.00000000      -0.12038690      -0.06739963      -0.52394339
Ni       7.66492235       4.41760058       0.04868905        0       1.00000000       0.16428535       0.00516230       0.02128718
Ni      10.13040494       4.37947693       0.11059199        1       1.00000000      -0.00314762       0.11286657       0.24531153
Ni       3.77471052       6.56898983       0.00734700        0       1.00000000      -0.00701119      -0.03410223      -0.00224923
Ni       6.35664564       6.58984229       0.02060885        0       1.00000000       0.12526616       0.03791365      -0.03601731
Ni       8.85671033       6.57260426       0.19124996        2       1.00000000       0.00346681      -0.05890536      -0.10172355
Ni      11.34515348       6.54304487       0.07825793        1       1.00000000      -0.10381519      -0.05895161       0.18839258
Ni       1.32787322       0.79159119       2.05014304        3       1.00000000       0.08842547       0.14345010       0.12874268
Ni       3.78117240       0.66973478       2.12146348        3       1.00000000      -0.00530414      -0.14989907       0.13171023
Pt       6.24763809       0.71100543       2.15767342        4       0.00000000       0.00482107      -0.03568784       0.08177551
Pt       8.92602331       0.80548087       2.10455679        3       0.00000000      -0.07702800      -0.02735405       0.00469935
Ni       2.49669661       2.99642826       2.11547448        3       1.00000000      -0.08361360       0.10532602       0.06681729
Ni       5.02304076       2.94329237       2.18127553        4       1.00000000      -0.03949341       0.00238334       0.25986393
Ni       7.66430201       2.96361375       2.14770305        3       1.00000000       0.03728816       0.04263372       0.07899677
Ni      10.15783056       2.97342654       2.15551295        4       1.00000000       0.01472566       0.04353306       0.04775346
Ni       3.75953594       5.07258381       2.14179182        3       1.00000000      -0.02544496      -0.06300983       0.11396460
Pt       6.39993718       5.10740463       2.10954892        3       0.00000000       0.12605770      -0.05287140       0.02968662
Ni       8.92113181       5.11720096       2.18257735        4       1.00000000       0.07205414      -0.04898988       0.10509229
Ni      11.34561141       5.07395440       2.16230540        4       1.00000000      -0.08318691      -0.01048960       0.01669482
Pt       5.09174731       7.30865296       2.07755867        3       0.00000000       0.00916941      -0.02557860       0.01506252
Ni       7.66780372       7.32343530       2.16778605        4       1.00000000       0.04612081      -0.06003345       0.19099921
Ni      10.05465448       7.26261908       2.20638484        4       1.00000000      -0.00492675      -0.03486882       0.10289068
Pt      12.57082613       7.20306713       2.18031638        4       0.00000000       0.01577491      -0.01237023       0.00101921
Ni       0.03465533       1.52430241       4.23411889        6       1.00000000       0.03496218      -0.03799901      -0.10788846
Pt       2.59011034       1.49811874       4.14325036        5       0.00000000      -0.06990032      -0.03444049      -0.14442539
Ni       5.08826706       1.43036683       4.27210960        7       1.00000000      -0.04507054      -0.09520425      -0.10540685
Pt       7.64447485       1.47172698       4.34960325        7       0.00000000       0.04148135      -0.05349281      -0.02164056
Pt       1.24722738       3.75305585       4.24008095        6       0.00000000      -0.03339567      -0.00693503       0.03117912
Ni       3.80976853       3.74107281       4.21698175        6       1.00000000      -0.06188184       0.07719284      -0.19022849
Pt       6.34379415       3.69514611       4.28768764        7       0.00000000      -0.02440808       0.03586555      -0.06196216
Ni       8.89539187       3.70812431       4.31144336        7       1.00000000      -0.00977800       0.07788522      -0.08463120
Ni       2.51857963       5.85821433       4.30216511        7       1.00000000      -0.07745948      -0.03978108      -0.04122827
Ni       5.04255488       5.85061543       4.28105826        7       1.00000000       0.01890254      -0.03514847      -0.14900352
Ni       7.67967560       5.84686169       4.29912408        7       1.00000000       0.11786618      -0.00962208      -0.10363814
Ni      10.14051318       5.88342673       4.28769088        7       1.00000000      -0.03169779       0.01796330      -0.13848014
Pt       3.74018132       8.00656398       4.32779049        7       0.00000000      -0.05238898      -0.06760891      -0.11083464
Pt       6.39162311       8.00112198       4.27712339        7       0.00000000       0.07657905      -0.13558983      -0.03642671
Ni       8.93620167       8.03567490       4.29152141        7       1.00000000      -0.01419664      -0.01159295      -0.12082123
Ni      11.33127877       8.00700219       4.39527774        8       1.00000000      -0.05294722      -0.05982208      -0.05739962
Pt      -0.03929767       0.06235355       6.41596044       10       0.00000000      -0.00156183       0.16720828       0.45553767
Pt       2.60406314      -0.00541386       6.44858929       10       0.00000000       0.04540075      -0.05462833       0.32406119
Ni       5.17411393      -0.01193851       6.35169167       10       1.00000000      -0.10808542      -0.00695631      -0.11844770
Ni       7.56558134      -0.02339102       6.42549955       10       1.00000000       0.01331813      -0.00023090       0.09527001
Ni       1.26080570       2.27529761       6.37285181       10       1.00000000      -0.02001118      -0.08235820      -0.07068467
Pt       3.85537755       2.25466486       6.31560292        9       0.00000000       0.18089554       0.19411068       0.93503724
Ni       6.39225481       2.19012657       6.33218942        9       1.00000000      -0.16034964       0.06459115       0.75327504
Ni       8.89535534       2.25667814       6.42540866       10       1.00000000       0.03317961       0.04058704      -0.03633518
Ni       2.51195858       4.47166285       6.38004976       10       1.00000000       0.04780963       0.00219984      -0.15101048
Pt       5.08789950       4.51351628       6.46410735       11       0.00000000      -0.17516634      -0.15552486       0.35210866
Ni       7.65733595       4.37118467       6.41926621       10       1.00000000       0.05740613      -0.02258107      -0.05137261
Ni      10.16745296       4.36507281       6.46065145       11       1.00000000      -0.06123358       0.03404756      -0.17519399
Ni       3.75490168       6.60993269       6.41116465       10       1.00000000      -0.06448744      -0.00232366       0.10771376
Ni       6.35278967       6.59984674       6.41557802       10       1.00000000       0.08148238       0.07036043       0.10280067
Pt       8.94646280       6.52325804       6.45527084       11       0.00000000       0.03296725       0.04944802      -0.12351432
Ni      11.45504381       6.58962166       6.43856923       10       1.00000000      -0.07019836      -0.05410812      -0.23540855
