64
Lattice="10.301090448223258 0.019257583124876278 -0.011849233824203725 5.16722278031326 8.890197879709786 -0.008905211382709112 -0.009674858904075535 -0.0028101314161780486 8.802158046947245" Properties=species:S:1:pos:R:3:tags:I:1:initial_magmoms:R:1:forces:R:3 unique_id=76da3e448ccb4269b317abdccc34adb5 stress="0.00022810021736039549 1.1557031804083223e-06 -7.962668627469253e-06 1.1557031804083223e-06 0.00022957888208884059 7.556681554868131e-06 -7.962668627469253e-06 7.556681554868131e-06 0.00022602106941069233" energy=-396.91157535389004 pbc="T T T"
Ni      -0.00065481       0.02499766       0.18140573        4       1.00000000       0.00427460       0.05831825       0.25665568
Ni       2.54245132       0.01724732       0.20760504        4       1.00000000      -0.05233883       0.07545845       0.38672898
Pt       5.14663083      -0.02054650       0.13429098        4       0.00000000      -0.03416548      -0.05999884       0.35465357
Ni       7.75834358      -0.02509662       0.17166023        4       1.00000000       0.02496612      -0.10555648       0.34145513
Ni       1.25226746       2.22972025       0.10665173        4       1.00000000      -0.13412344       0.05008020       0.20322147
Pt       3.78681554       2.28609283       0.18872807        4       0.00000000      -0.07735226       0.11834204       0.16910798
Pt       6.48762177       2.23262950       0.10990580        4       0.00000000       0.10431360       0.07591558      -0.02339961
Ni       9.06641489       2.23707405       0.13636959        4       1.00000000       0.12524964       0.05857728       0.16070630
Ni       2.57257447       4.47867012       0.06818988        4       1.00000000       0.04495269       0.09906746      -0.00527655
Ni       5.12662217       4.47942489       0.17906478        4       1.00000000      -0.01021064       0.06710472       0.34880164
Pt       7.81317797       4.47330490       0.09411031        4       0.00000000       0.10329632       0.01205051      -0.10036680
Ni      10.34291634       4.45156190       0.06399285        4       1.00000000       0.12634717      -0.05363917       0.14850373
Ni       3.83853737       6.66334230       0.10612621        4       1.00000000      -0.08831851      -0.03795700       0.20224954
Pt       6.41248371       6.71432312       0.18173452        4       0.00000000      -0.10102458       0.01630281       0.08251705
Ni       9.03924030       6.66295178       0.07064231        4       1.00000000       0.01210510      -0.00803281       0.10305112
Ni      11.63349429       6.64829304       0.05523266        4       1.00000000       0.08517199      -0.05961832       0.05780382
Ni       1.29420747       0.76549663       2.16369809        3       1.00000000      -0.04887542       0.13141870      -0.09315813
Ni       3.84200966       0.77149699       2.22340328        3       1.00000000       0.08151335       0.03206430       0.00459680
Ni       6.44165856       0.79370491       2.24094020        3       1.00000000      -0.04514893       0.13212268       0.08313313
Pt       9.02436078       0.79391544       2.18416373        3       0.00000000      -0.01629635       0.09122716       0.18373916
Ni       2.56797513       2.97158530       2.22945545        3       1.00000000       0.02325032       0.06884124      -0.03330187
Ni       5.14538445       2.99040773       2.24290224        3       1.00000000      -0.09685163       0.02384122       0.03236379
Ni       7.74533378       2.99466117       2.23982752        3       1.00000000       0.10508122       0.07862044       0.01304449
Ni      10.30646470       2.97524425       2.20149082        3       1.00000000       0.03389346       0.04030511       0.09474367
Ni       3.90437159       5.18311940       2.21448790        3       1.00000000       0.08320648      -0.03137770       0.08415712
Ni       6.43082565       5.18746564       2.23288825        3       1.00000000      -0.00843846       0.06794622      -0.01150895
Ni       8.99465633       5.16388965       2.22666726        3       1.00000000      -0.04575124      -0.18664674       0.16198008
Pt      11.65270712       5.12959221       2.16564159        3       0.00000000       0.12322897      -0.10711291       0.08299000
Ni       5.13089392       7.37414198       2.19905595        3       1.00000000      -0.17925640      -0.16539334      -0.09150295
Ni       7.72638512       7.40381721       2.18963076        3       1.00000000      -0.00551927      -0.14241630      -0.09090527
Pt      10.29067838       7.35867367       2.17591640        3       0.00000000      -0.00709892      -0.10158426      -0.29658234
Ni      12.92239149       7.39487546       2.14724808        3       1.00000000       0.05077843      -0.16025363      -0.06550975
Ni      -0.01893085       1.54288346       4.35469620        2       1.00000000      -0.05748488       0.10592982      -0.08418096
Pt       2.53097448       1.58144962       4.26277645        2       0.00000000       0.00396391       0.00805742       0.06023901
Ni       5.16663601       1.52920243       4.32388855        2       1.00000000      -0.06515328       0.05677668      -0.16930442
Ni       7.73412175       1.52638976       4.34328237        2       1.00000000       0.05418277      -0.01802150      -0.08186052
Ni       1.28813507       3.69757934       4.39877741        2       1.00000000      -0.01388183      -0.02736194      -0.02223246
Ni       3.85076105       3.76243079       4.31487482        2       1.00000000      -0.02921255       0.06271518      -0.20608990
Pt       6.45831077       3.70846756       4.29600994        2       0.00000000      -0.06448040       0.01687753       0.02931849
Ni       9.02148750       3.69300757       4.32737800        2       1.00000000       0.01887712      -0.11976991      -0.28859350
Ni       2.61077908       5.86076976       4.39345558        2       1.00000000       0.02866510      -0.13491510      -0.08165387
Ni       5.12595791       5.88513412       4.31403378        2       1.00000000      -0.00958459      -0.11524735      -0.19360417
Ni       7.73811178       5.88067270       4.32838771        2       1.00000000       0.00733817      -0.07194839      -0.24489983
Pt      10.30711320       5.82645915       4.42639958        2       0.00000000       0.01271090      -0.03520822      -0.00291533
Pt       3.87787732       8.09037351       4.32218109        2       0.00000000      -0.03154343      -0.11074242       0.13133782
Pt       6.42532581       8.12271362       4.22582637        2       0.00000000      -0.07244509      -0.03413415      -0.04098462
Pt       8.99212639       8.14406647       4.30787703        2       0.00000000      -0.01171955       0.02380261       0.05801616
Pt      11.63469083       8.16703725       4.27908417        2       0.00000000       0.01631240       0.00324857       0.02445794
Pt      -0.00495698       0.02150740       6.58456136        1       0.00000000       0.02796332       0.05611414       0.09094383
Pt       2.56534103       0.00791345       6.60492934        1       0.00000000       0.00078260       0.03327814       0.22208754
Pt       5.15813070      -0.02453724       6.47474941        1       0.00000000       0.06705956      -0.05877235      -0.37918012
Pt       7.71502829      -0.01576064       6.58627958        1       0.00000000      -0.01973093      -0.02970854       0.13675192
Ni       1.26936706       2.29388072       6.51618784        1       1.00000000      -0.03787603       0.19611174      -0.15582927
Pt       3.82665355       2.28575633       6.46029465        1       0.00000000      -0.12181931       0.07308298      -0.27186102
Ni       6.45195191       2.25030460       6.43640830        1       1.00000000       0.00035171       0.04939829      -0.25710702
Pt       9.02053068       2.34213318       6.49564888        1       0.00000000      -0.00141970       0.08541232       0.03545163
Ni       2.52103690       4.48006675       6.50083240        1       1.00000000      -0.13153256       0.06190306      -0.23691816
Pt       5.11649760       4.46519099       6.52779900        1       0.00000000      -0.04507061       0.04543108       0.10705633
Ni       7.76265475       4.46283999       6.43175371        1       1.00000000       0.06042560       0.07912284      -0.30520214
Ni      10.33235846       4.46883303       6.52586363        1       1.00000000       0.11395710       0.00040759       0.00966994
Ni       3.81969520       6.62416926       6.51751694        1       1.00000000      -0.09893820      -0.07135336      -0.13055272
Pt       6.48080511       6.61478623       6.45339535        1       0.00000000       0.06556181       0.03312865      -0.29295665
Ni       9.04917061       6.60543651       6.52423332        1       1.00000000       0.07923241      -0.15865376      -0.09738985
Ni      11.60922770       6.61304362       6.52555463        1       1.00000000       0.07364936      -0.08297851      -0.10670611
