64
Lattice="10.287011120397924 0.04238947061763024 -0.08102501012930609 5.180215918606804 8.935210354273304 -0.016585520018555542 -0.0661566437402128 0.02255857783925956 8.81947748063318" Properties=species:S:1:pos:R:3:tags:I:1:initial_magmoms:R:1:forces:R:3 unique_id=2b235c40ae194cb3906aad51a6379f91 stress="0.00027686088676694837 -5.562998926393946e-06 2.655887975055074e-05 -5.562998926393946e-06 0.00026094754724770297 -1.8276039809939903e-05 2.655887975055074e-05 -1.8276039809939903e-05 0.0002609357819801303" energy=-398.0253428821131 pbc="T T T"
Pt      -0.02241349      -0.00874863       0.05546577        4       0.00000000      -0.05707031      -0.00840927      -0.10983377
Pt       2.62874823      -0.10829972       0.00893907        4       0.00000000       0.04623577      -0.13152033      -0.18222992
Ni       5.14212814      -0.02670043       0.10723486        4       1.00000000      -0.09356108      -0.15898012       0.31091716
Pt       7.64341041       0.05610717      -0.02796834        4       0.00000000      -0.15315992       0.01465139      -0.20207660
Pt       1.26135381       2.26463128       0.10542790        4       0.00000000      -0.06677871       0.01775607       0.36724133
Pt       3.93680945       2.22602839       0.11296013        4       0.00000000       0.06822811      -0.05864745       0.24324606
Ni       6.46491756       2.26508704       0.00716575        4       1.00000000       0.04747398       0.05489494       0.03852177
Ni       8.96860678       2.30668629       0.10732268        4       1.00000000      -0.05168664       0.08838622       0.44858427
Pt       2.51455699       4.52516053       0.08749486        4       0.00000000      -0.10944902       0.03896185      -0.05436632
Pt       5.26862259       4.48509919       0.06184728        4       0.00000000       0.08060420      -0.00316545      -0.05863552
Ni       7.76889404       4.50934221       0.00396120        4       1.00000000       0.14271500       0.13965584       0.00589049
Ni      10.25352662       4.55407584      -0.00656749        4       1.00000000      -0.10761859       0.11721892       0.10114128
Pt       3.87347587       6.69851168       0.09074587        4       0.00000000      -0.03128370      -0.00610773      -0.01160413
Ni       6.49804059       6.67829325       0.13129251        4       1.00000000       0.11727253      -0.08156860       0.31558201
Ni       9.05649146       6.68799719       0.01288666        4       1.00000000       0.07663756      -0.06091147      -0.02055897
Ni      11.52829360       6.74168297       0.02255198        4       1.00000000      -0.20315837       0.03885384       0.20290393
Pt       1.27871527       0.66673249       2.28773292        3       0.00000000      -0.12431409      -0.01680092      -0.08517169
Pt       3.84741163       0.73046522       2.31871241        3       0.00000000      -0.02888378      -0.05149243      -0.01455457
Pt       6.40556480       0.74774423       2.16942096        3       0.00000000       0.04767246       0.04505737      -0.06970365
Ni       8.98036685       0.74950977       2.15082619        3       1.00000000      -0.05688677      -0.07814946       0.02215447
Ni       2.60424570       3.04555536       2.27959467        3       1.00000000       0.07864480       0.11962041       0.16957757
Ni       5.11301455       3.05460752       2.26383683        3       1.00000000      -0.14633959       0.15152652       0.25788020
Pt       7.63848679       3.06737541       2.11899356        3       0.00000000      -0.18003787       0.20788807       0.14842322
Pt      10.31197638       3.09736866       2.17603319        3       0.00000000       0.20342205       0.09516542       0.02365425
Ni       3.86711449       5.21741452       2.27405299        3       1.00000000       0.01498260       0.00726592       0.16293071
Ni       6.39723721       5.28323587       2.23301445        3       1.00000000      -0.12255433       0.13609495       0.28533733
Pt       8.99798191       5.36131520       2.13572305        3       0.00000000      -0.04606550       0.11542150       0.11677652
Ni      11.61223106       5.29952552       2.18274227        3       1.00000000       0.10133133       0.14964352       0.21110430
Ni       5.16402219       7.39074466       2.23122457        3       1.00000000       0.01697295      -0.20356529       0.08821325
Ni       7.70521622       7.43030692       2.22529786        3       1.00000000      -0.10445388      -0.00867572       0.22380007
Ni      10.31515686       7.44642066       2.13638518        3       1.00000000       0.04204618      -0.03180586      -0.00775252
Ni      12.87102283       7.42737105       2.14950903        3       1.00000000      -0.01194578      -0.18789485      -0.00224597
Pt      -0.00133945       1.46197904       4.38226119        2       0.00000000      -0.05875337       0.02447637       0.14198537
Ni       2.58484819       1.50979868       4.36345924        2       1.00000000      -0.00859391       0.11703246       0.03615354
Ni       5.09096122       1.55358585       4.33961006        2       1.00000000       0.00425822       0.08686920       0.02206222
Pt       7.60984886       1.55571924       4.36541754        2       0.00000000      -0.04768202       0.06046151       0.10483480
Ni       1.33318107       3.79574414       4.37693357        2       1.00000000       0.13047661       0.11422738      -0.09766933
Ni       3.84193835       3.78768605       4.32379994        2       1.00000000       0.00639259       0.10108249      -0.17742012
Ni       6.34753387       3.79898291       4.36770753        2       1.00000000      -0.11287007       0.11837913      -0.05038335
Pt       8.97530303       3.88640624       4.39485261        2       0.00000000      -0.08826833       0.03521038       0.16563581
Ni       2.57012864       5.89494144       4.37742813        2       1.00000000       0.07492930      -0.14460836      -0.17313492
Ni       5.14473163       5.91668902       4.33642579        2       1.00000000       0.03482339      -0.14682397      -0.16383838
Ni       7.68417257       6.03049932       4.33932992        2       1.00000000      -0.09411432       0.08631426      -0.09435632
Ni      10.28768375       5.99788797       4.35694284        2       1.00000000      -0.00204302      -0.06222956       0.01806298
Pt       3.89730477       8.08004593       4.36135143        2       0.00000000       0.02737249      -0.17880390      -0.16922876
Ni       6.48212690       8.15441784       4.36352912        2       1.00000000       0.03633278      -0.17380732      -0.07305123
Ni       8.95559682       8.17952212       4.35948200        2       1.00000000      -0.05012301      -0.24722792       0.07334114
Pt      11.52092104       8.11342203       4.30662845        2       0.00000000      -0.04817096      -0.13097989       0.01110572
Ni      -0.04581215      -0.01143744       6.46809331        1       1.00000000       0.06260109      -0.09248541      -0.25806451
Ni       2.52198119       0.00378385       6.40243806        1       1.00000000       0.00600616       0.00684243      -0.38581827
Pt       5.09581549      -0.01918810       6.51828232        1       0.00000000       0.06163852      -0.13842564       0.09103161
Ni       7.67886039       0.00715621       6.40573323        1       1.00000000       0.08245572      -0.23788453      -0.34818777
Pt       1.28571429       2.29714227       6.45666685        1       0.00000000       0.07562843       0.16740186      -0.34775559
Pt       3.87662914       2.32635478       6.39164200        1       0.00000000       0.14814790       0.17065818      -0.19061584
Ni       6.38159516       2.30344660       6.49369746        1       1.00000000       0.00790692       0.10577751      -0.16862578
Pt       8.91863076       2.29175253       6.56117816        1       0.00000000       0.03785690      -0.01169919       0.27215590
Ni       2.54605908       4.54291599       6.42271680        1       1.00000000       0.11185501       0.14735327      -0.28135912
Ni       5.12523232       4.50979271       6.40074848        1       1.00000000       0.01594323       0.12600721      -0.30360942
Ni       7.67063170       4.52364034       6.49214405        1       1.00000000      -0.07487115       0.04284655      -0.13096328
Ni      10.27396239       4.58655011       6.47158142        1       1.00000000       0.14502800       0.17710815      -0.07664687
Ni       3.81575337       6.68214628       6.45143766        1       1.00000000      -0.01791835      -0.21791813      -0.18854126
Pt       6.42071114       6.71188400       6.46888946        1       0.00000000      -0.01702602      -0.02044333       0.15205054
Ni       8.99670353       6.70381211       6.46448492        1       1.00000000       0.05295640      -0.14192437      -0.24923482
Ni      11.56391674       6.69691572       6.45971036        1       1.00000000       0.10883323      -0.19315460      -0.08506124
