64
Lattice="10.181006280115502 0.011595640528217294 0.004805868135837381 5.1005452593283955 8.737985707459062 -0.06136577416733361 0.0 0.0 21.43460132628557" Properties=species:S:1:pos:R:3:tags:I:1:initial_magmoms:R:1:forces:R:3 unique_id=0b9b764de67247f8a5fead7d0f9fa2ab energy=-369.11031483260075 stress="0.0020395070639218655 -2.818831234806566e-05 8.648220164485102e-05 -2.818831234806566e-05 0.0012183932138304047 -0.00011902799632892306 8.648220164485102e-05 -0.00011902799632892306 -0.005261812427467134" pbc="T T T"
Ni       0.04544503      -0.05899423       0.15927967        2       1.00000000       0.07760091      -0.01111600      -0.32824463
Ni       2.48516830      -0.03655092       0.18420121        2       1.00000000       0.01550918       0.00025469      -0.27859321
Pt       5.08334131      -0.05859146       0.12343329        1       0.00000000      -0.07228509       0.29023883      -1.12186191
Ni       7.66336157      -0.05828501       0.15983472        2       1.00000000      -0.06610886      -0.03815325      -0.41849437
Ni       1.27574405       2.19617026       0.07431453        1       1.00000000      -0.02584322       0.02872239       0.29372134
Pt       3.73169451       2.24986720       0.12979243        1       0.00000000       0.12479049      -0.08203294      -0.62158883
Pt       6.38137353       2.26273060       0.05438776        1       0.00000000      -0.05813625      -0.08428878      -0.22688861
Pt       8.99252568       2.24801693       0.08004661        1       0.00000000      -0.00801253       0.15539774      -0.77810819
Ni       2.52368704       4.41795305       0.03990346        0       1.00000000       0.03624983       0.02786726       0.36543464
Ni       5.08744497       4.45665901       0.04366385        0       1.00000000      -0.07903112       0.02362593       0.24054265
Ni       7.64020370       4.44744952       0.04939225        0       1.00000000       0.05868399      -0.02935480       0.16462625
Ni      10.22884230       4.42228206       0.04851852        0       1.00000000       0.02570462       0.04517784       0.34264877
Ni       3.83395651       6.53089174       0.02795687        0       1.00000000       0.03465930       0.01685329       0.29246204
Ni       6.35948420       6.54165302       0.03634396        0       1.00000000      -0.01279861       0.06890935       0.22435308
Ni       8.87241731       6.49686996       0.11987700        1       1.00000000      -0.06336117       0.01559058      -0.44153931
Ni      11.51113478       6.49772348       0.00000000        0       1.00000000       0.05539310       0.04722952       0.18589703
Ni       1.30538068       0.73135249       2.15881617        5       1.00000000       0.02956283       0.09825224       0.16780888
Ni       3.77645670       0.76295927       2.16669851        5       1.00000000      -0.05651688       0.07139594       0.19317733
Ni       6.36153315       0.74755546       2.20277639        5       1.00000000      -0.00588190       0.06186911       0.23541949
Pt       8.93354672       0.72747910       2.17126185        5       0.00000000       0.01631555      -0.08257862       0.17512853
Ni       2.50891822       2.93086010       2.19632629        5       1.00000000      -0.01552538       0.00510804       0.09737643
Ni       5.06022686       2.93297721       2.15923880        5       1.00000000      -0.06619664       0.01481138       0.07193635
Ni       7.64948287       2.95350764       2.16489845        5       1.00000000      -0.01731039      -0.00097741       0.11630019
Ni      10.24560847       2.95162817       2.18169439        5       1.00000000       0.09791776      -0.01344177       0.12933708
Ni       3.81829284       5.07681218       2.10636253        4       1.00000000      -0.00435590      -0.06106638       0.05203735
Ni       6.34285591       5.09218329       2.05262997        4       1.00000000      -0.03984968      -0.07511999      -0.00461396
Ni       8.91467630       5.02717226       2.08689951        4       1.00000000       0.04339220      -0.15399124       0.04782309
Ni      11.50293049       5.03146296       2.12237555        4       1.00000000       0.08891465      -0.09899798       0.15977657
Ni       5.13078063       7.20688578       2.06087962        4       1.00000000      -0.03145526      -0.06845237       0.09586327
Ni       7.58257822       7.26106173       2.04641793        3       1.00000000      -0.04192479      -0.02604384       0.09683271
Pt      10.24686054       7.16382636       2.12140230        4       0.00000000       0.06849972      -0.23869635       0.11365738
Ni      12.75947046       7.20126163       2.06497703        4       1.00000000       0.09730344      -0.09669206       0.08158800
Ni       0.06691347       1.46645280       4.22342020        7       1.00000000       0.11578977      -0.01083115      -0.12320416
Ni       2.49913461       1.49542188       4.18991249        7       1.00000000      -0.05320131       0.05172854      -0.16058445
Ni       5.09091215       1.44544025       4.17758641        7       1.00000000      -0.05630606      -0.01321977      -0.31511489
Ni       7.61619706       1.42490028       4.22828191        7       1.00000000      -0.09158114      -0.11118861      -0.19488593
Ni       1.28679197       3.61781789       4.23713004        7       1.00000000       0.01654347      -0.02298490      -0.07526456
Ni       3.76719414       3.66685574       4.16925553        7       1.00000000      -0.07452429       0.06195813      -0.20465535
Pt       6.31898080       3.57655659       4.21913858        7       0.00000000      -0.02432533      -0.03183468      -0.05259297
Ni       8.97471538       3.63311352       4.17016361        7       1.00000000       0.04910778       0.02366401      -0.22267839
Ni       2.53139379       5.73275951       4.21735667        7       1.00000000      -0.05502129      -0.04910571      -0.15759989
Ni       5.05809980       5.76096762       4.21829983        7       1.00000000       0.00146596      -0.07564400      -0.16592759
Pt       7.61814871       5.78527343       4.16150994        7       0.00000000      -0.05497736       0.00721825      -0.04381631
Ni      10.25562822       5.73836903       4.23600121        7       1.00000000      -0.00117193       0.00161069      -0.07461651
Pt       3.83056901       7.88819050       4.16601400        7       0.00000000       0.00587348      -0.00017824       0.00603523
Ni       6.35000166       8.00098773       4.14021470        6       1.00000000      -0.05562824       0.04565324      -0.20266910
Pt       8.88298989       8.04193508       4.12365913        6       0.00000000      -0.08925612       0.06420945      -0.14963667
Ni      11.49029573       7.95372562       4.16887449        7       1.00000000       0.01351705      -0.09289031      -0.18577927
Pt       0.01419038      -0.08499366       6.43063730       10       0.00000000      -0.15943256       0.17397175       0.27388328
Pt       2.52122606      -0.02591424       6.43460133       10       0.00000000       0.20017460       0.09225745       0.32505856
Pt       5.12612469      -0.01587145       6.29023630        9       0.00000000      -0.06744902       0.10149752       1.19871832
Pt       7.63457742      -0.08179856       6.42863140       10       0.00000000       0.10551285       0.18347527       0.41222087
Ni       1.27735958       2.21586549       6.32550596        9       1.00000000       0.01437172       0.01655532      -0.16860755
Pt       3.80990181       2.28908034       6.24701969        8       0.00000000      -0.00480922      -0.11650721       0.54539264
Ni       6.37004418       2.19459889       6.28321179        9       1.00000000       0.01537645      -0.03604991       0.39150159
Pt       8.92412872       2.25810323       6.23108673        8       0.00000000      -0.01203034      -0.18796325       0.79028158
Ni       2.52392498       4.38688167       6.31659003        9       1.00000000       0.03603168      -0.02492832      -0.34509769
Ni       5.09889069       4.39677070       6.34714935        9       1.00000000      -0.07132127       0.00873988      -0.18966685
Ni       7.57882429       4.33498116       6.36391279       10       1.00000000      -0.03249601      -0.02930055      -0.08722734
Ni      10.27365084       4.33316794       6.32381943        9       1.00000000       0.02432709       0.01661382      -0.22924980
Ni       3.82184086       6.41782782       6.33601674        9       1.00000000      -0.00002381      -0.02317228      -0.21864234
Ni       6.33401024       6.45286232       6.34486873        9       1.00000000       0.00110243       0.04212195      -0.17425157
Pt       8.94619966       6.39485326       6.41429217       10       0.00000000       0.11899472       0.04976291       0.25109067
Ni      11.50530872       6.44896083       6.30787246        9       1.00000000      -0.02053766       0.07446035      -0.17622897
