64
Lattice="10.145574430765736 0.016409303350093468 0.0040690568280059925 5.086998088942511 8.743745627716642 -0.046981623110602166 0.0 0.0 21.378232211152316" Properties=species:S:1:pos:R:3:tags:I:1:initial_magmoms:R:1:forces:R:3 unique_id=8cdd8bedc41a408380945669e20e3771 stress="0.002335768572650481 2.041377755370647e-05 8.331367826529077e-05 2.041377755370647e-05 0.0016603310824914765 -0.0004037786137409053 8.331367826529077e-05 -0.0004037786137409053 -0.005088170745331834" energy=-368.33229892459445 pbc="T T T"
Ni       0.03830420      -0.05020719       0.11728400        1       1.00000000       0.06552740      -0.01252976      -0.38219146
Ni       2.48003528      -0.00282268       0.12035737        1       1.00000000       0.06070775      -0.03002253      -0.17555529
Pt       5.13335454      -0.00894619       0.13354324        1       0.00000000      -0.11255472      -0.03156159      -0.82892802
Ni       7.64285986      -0.03948072       0.11817386        1       1.00000000       0.01285305      -0.07478348      -0.45100697
Ni       1.26905038       2.19544502       0.03691910        0       1.00000000      -0.02517904      -0.01053642       0.28345917
Pt       3.76984444       2.25638668       0.10983212        1       0.00000000       0.00261589      -0.02826122      -0.72031925
Ni       6.35074224       2.23823583       0.03663207        0       1.00000000      -0.05357147      -0.04924252       0.11616372
Pt       8.88924350       2.24549671       0.03719066        0       0.00000000       0.06533432       0.07752448      -0.79866980
Ni       2.52382342       4.41733145       0.00691173        0       1.00000000       0.08307389      -0.01972601       0.37308980
Ni       5.09361762       4.42268395       0.00896937        0       1.00000000      -0.14644933       0.00566096       0.23060487
Ni       7.55064389       4.37228331       0.01684834        0       1.00000000       0.03834409       0.02857170       0.12500994
Ni      10.21992975       4.37880393       0.01886165        0       1.00000000       0.01589877      -0.00368911       0.26352971
Ni       3.81958031       6.53330068       0.00000000        0       1.00000000       0.01987097       0.00893278       0.31621648
Ni       6.30009338       6.54682499       0.00252842        0       1.00000000       0.03956236       0.02964575       0.18502757
Pt       8.85420019       6.49418052       0.10222004        1       0.00000000       0.02143580       0.07757146      -0.79292594
Ni      11.47961960       6.52157487       0.00620320        0       1.00000000      -0.05998932       0.05447726       0.28087685
Ni       1.30085491       0.73684239       2.11255419        3       1.00000000       0.00179299       0.13869540       0.12543878
Ni       3.73753164       0.69642736       2.11542536        3       1.00000000      -0.15766132      -0.08203165       0.16681060
Ni       6.37565291       0.73322293       2.11721908        3       1.00000000       0.10434783       0.05300472       0.12556405
Pt       8.90502660       0.73584610       2.12546633        3       0.00000000       0.08624002      -0.09757388       0.22337345
Ni       2.50010812       2.94076336       2.14909168        3       1.00000000      -0.02292932       0.05323939       0.11052474
Ni       5.08560505       2.96461699       2.07155655        3       1.00000000       0.01694371       0.06357940       0.06116387
Ni       7.59330547       2.95562885       2.09625242        3       1.00000000      -0.02918289       0.03461697       0.10840146
Ni      10.20640593       2.95960793       2.12791536        3       1.00000000       0.12409920       0.01521181       0.13208934
Ni       3.80038198       5.08834159       2.06389257        3       1.00000000      -0.05269954      -0.02456729       0.04738623
Ni       6.32480145       5.10646985       2.00908261        2       1.00000000       0.01081118       0.02343383       0.01920580
Ni       8.92368284       5.04038377       2.09268628        3       1.00000000       0.11192846      -0.15825344       0.02758387
Ni      11.43305852       5.09728484       2.08165178        3       1.00000000       0.02065553      -0.01933494       0.11118723
Ni       5.11368676       7.21643267       2.03005069        2       1.00000000      -0.05602496      -0.04819940       0.11166992
Ni       7.58112393       7.31810553       2.06846460        3       1.00000000      -0.11807345       0.09180805       0.07643388
Ni      10.18411666       7.24423814       2.14244526        3       1.00000000       0.04488075      -0.07603522       0.19281219
Ni      12.66717719       7.21747616       2.03467359        2       1.00000000       0.00075402      -0.08420682       0.09901808
Ni       0.06522256       1.47286909       4.17359909        5       1.00000000       0.11039169      -0.00363134      -0.10594570
Ni       2.48263708       1.46423238       4.14281661        4       1.00000000      -0.04754454      -0.00424926      -0.15484551
Pt       5.04602807       1.41153881       4.08414965        4       0.00000000       0.01463775      -0.01936502      -0.16726603
Ni       7.61528393       1.44248181       4.18532085        5       1.00000000      -0.07728877      -0.10817557      -0.17697730
Ni       1.28137061       3.63009550       4.18555138        5       1.00000000       0.03458073      -0.02804798      -0.10337442
Ni       3.74785887       3.69500660       4.13298266        4       1.00000000      -0.05004416       0.04620098      -0.17041772
Pt       6.33813975       3.63494559       4.19023548        5       0.00000000      -0.00821815      -0.02826675      -0.01419844
Ni       8.95383663       3.66005069       4.12678197        4       1.00000000       0.07067676       0.07128609      -0.21263431
Ni       2.51834110       5.74826115       4.16883239        5       1.00000000      -0.05219612      -0.05125102      -0.18487813
Ni       5.04842179       5.78208771       4.17424499        5       1.00000000       0.00795294      -0.04783764      -0.17325021
Pt       7.61639804       5.85233871       4.08469185        4       0.00000000      -0.10229430       0.00534742      -0.07409595
Ni      10.22522670       5.78455890       4.13397846        4       1.00000000       0.05078402      -0.03122037      -0.16804931
Pt       3.81533601       7.89815314       4.12982826        4       0.00000000      -0.01794933       0.00108523       0.00440643
Ni       6.36208712       8.02382903       4.09634214        4       1.00000000      -0.00969550       0.07658144      -0.20738844
Ni       8.88458004       7.99045841       4.09134362        4       1.00000000      -0.05936476       0.06676792      -0.29024499
Ni      11.41940143       7.92097016       4.10245981        4       1.00000000      -0.02905918      -0.11739248      -0.18069338
Pt       0.01576436      -0.07462106       6.37625354        8       0.00000000      -0.16243428       0.18411519       0.25525772
Pt       2.52108216      -0.02437355       6.31155664        7       0.00000000       0.27328486       0.02348718       0.15507479
Pt       5.09187186      -0.03726854       6.25569941        7       0.00000000      -0.19161983      -0.14849726       0.94858392
Pt       7.59986158      -0.06546496       6.37823221        8       0.00000000       0.09400577       0.16070668       0.39266703
Ni       1.26872769       2.22493008       6.27606527        7       1.00000000       0.02324398       0.01244170      -0.15956535
Pt       3.78345497       2.30905232       6.23779569        6       0.00000000      -0.12723271      -0.02616740       0.67274603
Ni       6.34415750       2.21688729       6.32278875        7       1.00000000       0.01290344      -0.00835890       0.06257681
Pt       8.89255095       2.27532657       6.18282497        6       0.00000000      -0.00910124      -0.18044280       0.86078034
Ni       2.51270901       4.40396800       6.26755227        7       1.00000000       0.06672313      -0.04237824      -0.30600619
Ni       5.08365625       4.41269597       6.30843663        7       1.00000000      -0.09663267       0.02430023      -0.15441637
Ni       7.56016317       4.35712904       6.31871316        7       1.00000000      -0.00420178      -0.00334573      -0.04690360
Ni      10.24023898       4.35042389       6.27017209        7       1.00000000       0.04256930       0.00053606      -0.23559815
Ni       3.81238558       6.43171494       6.28963760        7       1.00000000      -0.01007240      -0.02451757      -0.20160164
Ni       6.31657015       6.46800407       6.28562307        7       1.00000000       0.00518096       0.03673617      -0.19813263
Pt       8.92509404       6.41332781       6.24010224        6       0.00000000       0.17092415       0.16911190       0.80157477
Ni      11.47354918       6.46320284       6.25924012        7       1.00000000      -0.03627237       0.08902244      -0.23022891
