64
Lattice="10.262166460548412 0.0034893937237790895 -0.04012589960171677 5.1341051338828105 8.933946992733494 0.005049565571028296 0.0 0.0 21.62490151073951" Properties=species:S:1:pos:R:3:tags:I:1:initial_magmoms:R:1:forces:R:3 unique_id=5dc15edf98b74d0a8d60e8107f7200ab stress="0.0044273125742796075 -2.582702148083479e-05 -0.0001930245968404584 -2.582702148083479e-05 0.004487110025576941 7.144543833550627e-05 -0.0001930245968404584 7.144543833550627e-05 -0.0023719515719626896" energy=-376.55957298544524 pbc="T T T"
Ni      -0.00692563       0.01569598       0.09253833        1       1.00000000      -0.00643747       0.03459979       0.34959323
Ni       2.52754490       0.00835283       0.12252108        1       1.00000000      -0.08928657      -0.01008327      -0.16957697
Ni       5.15682192      -0.01679064       0.03486705        0       1.00000000       0.01978242      -0.04616918       0.13948376
Ni       7.70705770      -0.01040886       0.09775886        1       1.00000000       0.12701855       0.05447719      -0.27579187
Ni       1.26158955       2.21106223       0.08732925        1       1.00000000       0.04122824      -0.09047192       0.28020252
Pt       3.80814664       2.18715905       0.08568511        1       0.00000000      -0.14246952       0.13536560      -0.98841784
Ni       6.42974903       2.21898096       0.12629009        1       1.00000000       0.01092048       0.01855258      -0.42598348
Pt       9.02249321       2.22194330       0.00000000        0       0.00000000      -0.00745270      -0.17169583       0.11800894
Pt       2.47628830       4.50567759       0.09785314        1       0.00000000       0.12547000       0.00520103       0.07963873
Pt       5.15944935       4.48858767       0.02079510        0       0.00000000      -0.16484784       0.06314215      -0.31292914
Ni       7.71812849       4.46899426       0.04126680        0       1.00000000      -0.00396007       0.10270593       0.19989463
Ni      10.25061383       4.46032711       0.05794382        1       1.00000000      -0.07797226       0.00111050       0.34040847
Ni       3.83776583       6.73808513       0.15812172        2       1.00000000       0.15768080      -0.03537026      -0.47298485
Pt       6.38544029       6.77436656       0.03003158        0       0.00000000      -0.03371886       0.02146424      -0.07025498
Pt       9.05096669       6.68267895       0.02855693        0       0.00000000       0.05913137       0.05074059       0.18990926
Ni      11.54534254       6.72679213       0.11521928        1       1.00000000      -0.12814723       0.00645477      -0.19627588
Ni       1.20595591       0.76598572       2.18218563        4       1.00000000      -0.07228334       0.02849595      -0.02887353
Pt       3.79782270       0.68430145       2.20905765        4       0.00000000       0.00182645      -0.13987565      -0.00920410
Pt       6.44774360       0.71807864       2.16614710        4       0.00000000       0.05291016       0.05664226       0.20371332
Ni       9.04242449       0.75703554       2.17089590        4       1.00000000       0.16690224       0.10105862       0.08622241
Ni       2.48688875       3.00562981       2.22259989        4       1.00000000      -0.13964057       0.00551194       0.14641653
Pt       5.08541519       3.05478044       2.25378109        5       0.00000000      -0.05468121       0.04360544       0.12333772
Pt       7.79204546       3.03830062       2.20887364        4       0.00000000       0.16268461       0.07923024      -0.00021688
Ni      10.29908790       2.98817324       2.17251397        4       1.00000000       0.09494703       0.00383508      -0.01213362
Ni       3.83289359       5.22553068       2.21792234        4       1.00000000      -0.01853359      -0.06332676       0.15925059
Ni       6.41950794       5.24034408       2.20753895        4       1.00000000       0.00675315      -0.05541512       0.03124326
Ni       9.02234159       5.21946580       2.22042098        4       1.00000000       0.15665205       0.01305765       0.17254807
Ni      11.48099595       5.20104503       2.17865891        4       1.00000000      -0.18545287      -0.06701748       0.08895910
Ni       5.12465567       7.48189569       2.20077702        4       1.00000000       0.05307279       0.11612463       0.02697324
Pt       7.66078299       7.38878985       2.30476091        5       0.00000000      -0.05438691      -0.11878830       0.15222534
Ni      10.26544599       7.39881248       2.23143580        4       1.00000000      -0.01550741      -0.14686278       0.31041569
Pt      12.83746961       7.40160753       2.12603782        3       0.00000000      -0.03623221      -0.03509852       0.05440077
Ni      -0.05363093       1.52338939       4.39735627        7       1.00000000      -0.14225365       0.08369866      -0.17247950
Pt       2.45032068       1.46395866       4.32849399        6       0.00000000      -0.15950510      -0.04201425      -0.15911976
Pt       5.15458746       1.42378586       4.39482855        7       0.00000000       0.08138689      -0.09073258       0.14495399
Ni       7.73760223       1.52967346       4.36071954        7       1.00000000       0.08828317       0.05027370      -0.17794002
Pt       1.16620578       3.72965540       4.38498288        7       0.00000000      -0.06119418       0.03254629      -0.06543257
Ni       3.81926440       3.75376497       4.37762264        7       1.00000000      -0.03200493       0.02041802      -0.24263399
Pt       6.49243997       3.77528676       4.39808385        7       0.00000000       0.03959581      -0.00883050      -0.01244070
Ni       8.97977406       3.75920170       4.39799275        7       1.00000000       0.00789857       0.11700123      -0.05181708
Pt       2.50820625       5.95511549       4.35678776        7       0.00000000      -0.01562074       0.04487212      -0.04485175
Pt       5.17724211       5.99591247       4.32371304        6       0.00000000       0.00851671       0.04208966      -0.27101816
Ni       7.75084238       5.98101421       4.40478959        7       1.00000000       0.10972535      -0.03465907      -0.04056431
Ni      10.17601309       5.97704262       4.34114811        6       1.00000000      -0.04972807      -0.00226990      -0.20812430
Pt       3.88015781       8.29784923       4.34432004        6       0.00000000      -0.02052241       0.04657136      -0.04604675
Ni       6.41523612       8.19125834       4.38409998        7       1.00000000       0.03262133      -0.01908044      -0.11531998
Ni       8.97729741       8.13102636       4.39878023        7       1.00000000       0.03934949      -0.08236613      -0.06346128
Ni      11.49532850       8.17111926       4.36928427        7       1.00000000       0.02645110      -0.17331497      -0.12568802
Ni      -0.00214252       0.05515121       6.54448664        9       1.00000000       0.03789449       0.05655064      -0.28826489
Pt       2.51654110      -0.05704520       6.55606473       10       0.00000000       0.06192711      -0.11535515       0.07932300
Ni       5.08932868      -0.00483860       6.52626754        9       1.00000000      -0.07180583       0.00131637      -0.02813772
Pt       7.69765782       0.04863729       6.54487735        9       0.00000000      -0.00614565      -0.02041891       0.11915276
Ni       1.20514519       2.25772578       6.55424614       10       1.00000000      -0.05070900      -0.01049148      -0.26193900
Pt       3.77779938       2.30949156       6.47537951        9       0.00000000      -0.01664998       0.13152264       1.02776527
Pt       6.45297914       2.31355480       6.60238847       10       0.00000000       0.10214129       0.07306268       0.50309572
Ni       9.00949756       2.28235157       6.41118845        8       1.00000000       0.02249827       0.05168218      -0.01839152
Ni       2.51394690       4.47215309       6.48578584        9       1.00000000      -0.07769206       0.01079743       0.13947298
Ni       5.13704884       4.50061266       6.45683332        9       1.00000000       0.00028561       0.01069706       0.24488773
Ni       7.72775426       4.52889667       6.51963825        9       1.00000000       0.17435148       0.10541305      -0.24682775
Ni      10.19925591       4.45707547       6.50834207        9       1.00000000      -0.08235510       0.01365636      -0.32926648
Pt       3.89501717       6.68267812       6.62490151       10       0.00000000      -0.03472885      -0.03084487       0.23219535
Ni       6.43192639       6.68443409       6.45153658        9       1.00000000       0.10850012      -0.04808907       0.10482905
Ni       8.92884460       6.67946087       6.42261928        8       1.00000000      -0.05098802      -0.11144282       0.05018533
Pt      11.42119728       6.68181815       6.54112760        9       0.00000000      -0.07549292      -0.06346044       0.03370188
