64
Lattice="10.154395779648224 -0.005410061685152563 -0.006151868365876018 5.0725126389687825 8.760453990358917 -0.006546404206751609 -0.0050229794870553495 -0.003271990516990944 8.697702816321751" Properties=species:S:1:pos:R:3:tags:I:1:initial_magmoms:R:1:forces:R:3 unique_id=d3c62ced331d4b4f862c537668ccba2f stress="-0.0009950123744841485 1.5785400440994533e-06 -3.0763795002017023e-06 1.5785400440994533e-06 -0.001002503577763339 -8.270831040959862e-06 -3.0763795002017023e-06 -8.270831040959862e-06 -0.000854723043002277" energy=-391.04985125034784 pbc="T T T"
Ni       0.04070072      -0.03555329       0.17764512        4       1.00000000       0.14401666      -0.01576748       0.23883053
Ni       2.52339191      -0.02943762       0.19865518        4       1.00000000       0.01568591      -0.03330532       0.24971982
Ni       5.09001600      -0.01550127       0.08275671        4       1.00000000      -0.01674356      -0.02558734       0.06885389
Ni       7.58311306      -0.01565768       0.16308771        4       1.00000000      -0.02700301       0.06598458       0.29725672
Ni       1.27027908       2.20230737       0.11077291        4       1.00000000       0.00418132       0.06100281       0.20807995
Pt       3.80045733       2.19620987       0.18359574        4       0.00000000      -0.02730679      -0.00751248       0.29818206
Ni       6.33979883       2.19627797       0.09910185        4       1.00000000      -0.01303419       0.08465468       0.21091769
Pt       8.88824044       2.24872922       0.01827711        4       0.00000000       0.03793354       0.03510774      -0.18050822
Ni       2.51302264       4.40896184       0.09728773        4       1.00000000      -0.04176944       0.05275578       0.16330788
Ni       5.07393551       4.40215819       0.06669789        4       1.00000000      -0.04082934       0.02622549       0.06495497
Ni       7.60618112       4.40547905       0.06793184        4       1.00000000       0.00061783       0.11864923       0.05937941
Ni      10.17820648       4.41090826       0.09276762        4       1.00000000       0.05346960       0.14302276       0.14594093
Ni       3.82702231       6.54338888       0.06317700        4       1.00000000       0.10562631      -0.09259826       0.01682096
Ni       6.33745849       6.58430704       0.07074856        4       1.00000000       0.00171648       0.07434843      -0.05488232
Ni       8.85560674       6.55048724       0.14158365        4       1.00000000      -0.13914397      -0.06467850       0.17664409
Ni      11.41154343       6.54069058       0.04104835        4       1.00000000      -0.07494393      -0.05622494      -0.08737225
Ni       1.31907555       0.75572470       2.16308766        3       1.00000000       0.08902677       0.17506157       0.05045857
Ni       3.76468874       0.72078912       2.19579750        3       1.00000000      -0.12664424      -0.02349495       0.02275691
Ni       6.31615695       0.75880540       2.13681809        3       1.00000000      -0.01452253       0.01558759      -0.06536451
Pt       8.94470208       0.75557541       2.16838251        3       0.00000000       0.09756354       0.12316360      -0.10327591
Ni       2.51516077       2.93261926       2.20869346        3       1.00000000       0.03233048       0.01373879       0.04065244
Ni       5.07272723       2.92505988       2.19432731        3       1.00000000      -0.03786399       0.05488199       0.00663512
Ni       7.61044323       2.94233149       2.16832351        3       1.00000000       0.05864287       0.04060377      -0.01992996
Ni      10.18252109       2.95729633       2.17819062        3       1.00000000      -0.01484967       0.03043086      -0.02806411
Ni       3.79226576       5.05525579       2.17515852        3       1.00000000      -0.01510119      -0.17270551       0.01238515
Pt       6.34531236       5.13224833       2.13278602        3       0.00000000       0.01119334       0.04540757       0.02085786
Ni       8.89725818       5.06872256       2.17743684        3       1.00000000       0.03243674      -0.11770183       0.05142350
Ni      11.40938968       5.05441153       2.15082556        3       1.00000000      -0.05355301      -0.06472746      -0.04196624
Ni       5.10229113       7.28435607       2.13335188        3       1.00000000      -0.01923826      -0.05973625      -0.03793899
Ni       7.59939697       7.31338418       2.14506080        3       1.00000000      -0.01244460      -0.05102019      -0.04104625
Pt      10.09011080       7.28496806       2.18288616        3       0.00000000      -0.02454703      -0.05299865      -0.01157796
Pt      12.68682613       7.20500290       2.12722891        3       0.00000000       0.03207480      -0.15699708       0.00992526
Ni       0.03294613       1.49022177       4.32986002        2       1.00000000       0.09623180      -0.03725604      -0.05408592
Ni       2.51025695       1.47305358       4.27311462        2       1.00000000       0.00947296       0.02907771      -0.07173664
Pt       5.02514673       1.40374292       4.24388565        2       0.00000000      -0.14701460       0.00947366       0.05571235
Pt       7.64102521       1.49489509       4.31609766        2       0.00000000      -0.00085132      -0.06891873       0.02427478
Pt       1.26258956       3.66552963       4.31438087        2       0.00000000      -0.00731118      -0.01784715      -0.02079962
Ni       3.78267429       3.70792764       4.28354635        2       1.00000000      -0.02530779       0.06092791      -0.16830255
Pt       6.32962584       3.72198181       4.36523113        2       0.00000000      -0.01963861       0.02905340       0.02070516
Ni       8.90623279       3.70036175       4.31794393        2       1.00000000       0.00672868       0.14543332      -0.16945345
Ni       2.52057863       5.80265512       4.35261537        2       1.00000000      -0.04485722      -0.05950522      -0.07690148
Ni       5.04183937       5.81210039       4.34561709        2       1.00000000      -0.06234857      -0.01467121      -0.10103639
Ni       7.65691365       5.83012589       4.31009241        2       1.00000000       0.16389692      -0.00606199      -0.14770422
Ni      10.15081494       5.83072818       4.30897928        2       1.00000000       0.01913520      -0.05710889      -0.11705663
Pt       3.78904410       7.93558044       4.32036591        2       0.00000000      -0.04080189      -0.00384322       0.14333291
Pt       6.40158203       7.99870150       4.22743527        2       0.00000000       0.03903873      -0.00028431       0.07543552
Ni       8.89979478       7.98852495       4.30283436        2       1.00000000      -0.00597615      -0.12781611       0.02198164
Ni      11.37733029       7.96066880       4.33073680        2       1.00000000      -0.00918419      -0.12653855      -0.02208946
Pt      -0.01568414       0.01159368       6.51281434        1       0.00000000      -0.02360317      -0.00975037       0.13691074
Pt       2.57285785       0.00146667       6.49025441        1       0.00000000      -0.00209687       0.01773164       0.14076700
Ni       5.08040409      -0.02013669       6.44045202        1       1.00000000      -0.08049848      -0.01325551      -0.18557920
Pt       7.52378162      -0.03590122       6.52050739        1       0.00000000      -0.11180030      -0.05384306       0.16785067
Ni       1.23792034       2.23797018       6.44489671        1       1.00000000      -0.00678003       0.04322114      -0.06022352
Pt       3.80889234       2.29284466       6.39652588        1       0.00000000       0.01774415       0.20625221      -0.32312193
Ni       6.35475886       2.22389341       6.47139293        1       1.00000000       0.00919301       0.08489135       0.00115578
Ni       8.89627887       2.25601258       6.34653355        1       1.00000000       0.07303549       0.14066701      -0.41312406
Ni       2.51950790       4.43373877       6.44542997        1       1.00000000      -0.05031924       0.12980457      -0.04487055
Ni       5.07574545       4.43524795       6.45308718        1       1.00000000      -0.01159251       0.18242985      -0.04063255
Ni       7.60900888       4.35731091       6.45245502        1       1.00000000       0.03690459      -0.06212730      -0.05038678
Ni      10.16649739       4.34717569       6.44024996        1       1.00000000       0.06840595      -0.09306590      -0.03781964
Ni       3.79865026       6.49095597       6.44870878        1       1.00000000      -0.01512096      -0.11024155      -0.08618435
Ni       6.31814747       6.50020287       6.43948269        1       1.00000000       0.03030100      -0.06557377      -0.20110983
Pt       8.91956431       6.48377615       6.43789299        1       0.00000000       0.04920281      -0.13110394       0.10596894
Ni      11.43327359       6.51108476       6.41701254        1       1.00000000       0.02883432      -0.18572194      -0.24393367
