64
Lattice="10.762472236769769 -0.00915191496863549 -0.011606701598907872 5.37331032752877 9.306170658288943 -0.01616798411695918 0.0 0.0 22.01575904069827" Properties=species:S:1:pos:R:3:tags:I:1:initial_magmoms:R:1:forces:R:3 unique_id=609183d542004cb69214303332b1a86d stress="0.0033125423384863396 6.13900839187677e-05 2.941803417872206e-05 6.13900839187677e-05 0.0034354143252970423 1.0122714210027458e-05 2.941803417872206e-05 1.0122714210027458e-05 -0.0014927063152896606" energy=-403.0506074244014 pbc="T T T"
Pt       0.00316964       0.00631908       0.02136604        0       0.00000000       0.10618973       0.02930403       0.07080829
Pt       2.70222744       0.02534546       0.08522034        1       0.00000000      -0.01136034      -0.00063365      -0.15494726
Pt       5.36479653       0.02732713       0.08800252        1       0.00000000      -0.05393295      -0.02161289      -0.27010425
Pt       8.06903566       0.00171641       0.07169861        1       0.00000000      -0.06062794       0.00854863      -0.34143991
Pt       1.36643592       2.32265678       0.08001972        1       0.00000000       0.01727676      -0.05414787      -0.20942937
Ni       4.03819463       2.32626324       0.08289485        1       1.00000000      -0.02264125      -0.02478896       0.30046433
Pt       6.69452584       2.32262575       0.00903030        0       0.00000000      -0.02137364      -0.03284399      -0.01476219
Pt       9.41257240       2.31645051       0.00000000        0       0.00000000       0.04646566      -0.00824265       0.01680919
Pt       2.70382960       4.62256429       0.09275804        1       0.00000000      -0.01566247      -0.02053245      -0.39381395
Pt       5.36006348       4.61576920       0.08410631        1       0.00000000      -0.01976696       0.03806270      -0.39658833
Pt       8.06227752       4.63855201       0.07446107        1       0.00000000      -0.05328852       0.02225561      -0.39866810
Pt      10.76070167       4.63933935       0.07520017        1       0.00000000       0.05401727      -0.03936419      -0.40241124
Pt       4.03082740       6.97620590       0.07913300        1       0.00000000       0.02800218      -0.05404085      -0.39017513
Pt       6.71676437       6.98190955       0.07437432        1       0.00000000       0.02690699       0.02600503      -0.30294620
Pt       9.41030900       6.98159167       0.07598716        1       0.00000000      -0.04182514       0.11304681      -0.32643188
Pt      12.10212305       6.97228516       0.07679597        1       0.00000000      -0.03034670       0.01687533      -0.41219532
Pt       1.33299882       0.76328357       2.43343830        3       0.00000000      -0.09664774      -0.03563839       0.54331529
Pt       4.02615007       0.77147825       2.37752345        3       0.00000000      -0.04022982       0.07384742       0.42527353
Pt       6.72355012       0.77217228       2.37545951        3       0.00000000       0.07834812       0.05885536       0.48033773
Pt       9.42988813       0.77059899       2.40084068        3       0.00000000      -0.00441730       0.03312840       0.49158029
Pt       2.69567554       3.08216193       2.35228357        3       0.00000000       0.04301261      -0.13647623       0.37395150
Pt       5.36829781       3.08201494       2.34546790        2       0.00000000      -0.00459719      -0.10877449       0.32731702
Pt       8.06626440       3.08622875       2.37307022        3       0.00000000      -0.02175695      -0.08067851       0.44975158
Pt      10.75788245       3.07630729       2.38906992        3       0.00000000      -0.02748329      -0.05935298       0.46108405
Pt       4.03205049       5.42692658       2.37088229        3       0.00000000       0.03836810       0.03209426       0.50218371
Pt       6.72121526       5.42614525       2.36707251        3       0.00000000       0.00264710      -0.03347571       0.52125804
Pt       9.40736054       5.42292879       2.37190026        3       0.00000000      -0.03346734      -0.05092731       0.51628057
Pt      12.09879347       5.41393998       2.36802688        3       0.00000000      -0.02371409      -0.05777110       0.51797500
Pt       5.38475525       7.76659192       2.40083423        3       0.00000000       0.01369117       0.07904391       0.50716580
Pt       8.06457145       7.76923397       2.41891259        3       0.00000000       0.00167648       0.12697993       0.62573928
Pt      10.73736530       7.75835243       2.38921626        3       0.00000000      -0.06295711       0.06781954       0.54012904
Pt      13.44555053       7.75106664       2.36450138        3       0.00000000       0.04528822       0.09608389       0.54641561
Ni      -0.00269225       1.52955324       4.72180482        4       1.00000000       0.01838257      -0.14588933      -0.22455540
Pt       2.64572503       1.47311575       4.67998157        4       0.00000000      -0.02639839      -0.18218911      -0.37455992
Pt       5.36200023       1.52253559       4.69881243        4       0.00000000      -0.03075159       0.00515968      -0.33623762
Pt       8.10174370       1.54837488       4.73556754        4       0.00000000       0.01787250       0.10215966      -0.14211486
Pt       1.31806656       3.83302582       4.68171329        4       0.00000000       0.03612347      -0.15383809      -0.49961872
Pt       4.02389031       3.85389128       4.67149987        4       0.00000000      -0.07364637      -0.16087488      -0.47323537
Pt       6.72640023       3.85407504       4.70131398        4       0.00000000       0.00349699      -0.09420834      -0.39990480
Pt       9.42398978       3.82354514       4.69944789        4       0.00000000       0.06772627      -0.12083905      -0.34570472
Pt       2.68279597       6.21030671       4.67373869        4       0.00000000       0.04438414       0.07651831      -0.50062996
Pt       5.39240410       6.23273393       4.67192806        4       0.00000000       0.05396975       0.03850816      -0.48174180
Pt       8.06138713       6.26039989       4.66891983        4       0.00000000      -0.00715220       0.14341087      -0.45723774
Pt      10.72875943       6.21441832       4.66135818        4       0.00000000      -0.05639572      -0.01559227      -0.47351056
Pt       4.10175088       8.58266858       4.70760530        4       0.00000000       0.36433135       0.25492439      -0.24210029
Ni       6.71623147       8.54056748       4.69511852        4       1.00000000      -0.03438777       0.14043528      -0.36797623
Ni       9.38864390       8.52441198       4.68253170        4       1.00000000      -0.08651253       0.05892653      -0.49909745
Pt      12.07600421       8.52910177       4.66476887        4       0.00000000       0.08406614       0.07674869      -0.50983142
Ni      -0.01062178       0.00600426       6.94878962        5       1.00000000       0.02962460       0.08694389      -0.47209799
Pt       2.65108168      -0.01297943       6.91045897        5       0.00000000      -0.03071101      -0.12402896       0.10770483
Pt       5.38368644       0.01419463       6.93649151        5       0.00000000      -0.03297934      -0.06150017       0.26932871
Pt       8.10657315       0.05210775       6.93735025        5       0.00000000       0.11224653       0.10303378       0.25956894
Pt       1.27300920       2.27097035       6.92475988        5       0.00000000      -0.30729925      -0.19406070       0.04642982
Pt       4.04812976       2.31128883       7.01575904        6       0.00000000      -0.10707740      -0.02847386      -0.10502571
Ni       6.72691101       2.31375809       6.95505039        6       1.00000000       0.03468961      -0.01743805      -0.40107769
Ni       9.40588515       2.30069598       6.94145931        5       1.00000000       0.06561023      -0.05272471      -0.43698786
Pt       2.68057457       4.63475498       6.95494047        6       0.00000000      -0.04330024      -0.05976393       0.39212655
Pt       5.38873336       4.62050461       6.95046087        6       0.00000000       0.02786327       0.07163826       0.34909632
Pt       8.06213370       4.58117702       6.93435146        5       0.00000000       0.03000660      -0.10579453       0.25153386
Pt      10.73351412       4.60509465       6.93823008        5       0.00000000      -0.01061453      -0.08060640       0.39862246
Pt       4.04061548       7.01007861       6.94060261        5       0.00000000      -0.00521942       0.11093174       0.36674305
Pt       6.70009893       7.00762192       6.91731477        5       0.00000000      -0.02545669       0.12872820       0.25146216
Pt       9.39849374       6.97944722       6.91919533        5       0.00000000      -0.03571127       0.10482901       0.37665434
Pt      12.09843590       6.97480969       6.93799301        5       0.00000000       0.06742604       0.09227729       0.47004834
