64
Lattice="10.293811757341228 -0.022789052074801655 0.05456731575095513 5.127169980645669 8.859483817929638 0.027306392429694393 0.04455402674105864 2.1434343271901395e-05 8.812358182768817" Properties=species:S:1:pos:R:3:tags:I:1:initial_magmoms:R:1:forces:R:3 unique_id=68d8527036aa470aba75e3f72b6adc3e stress="0.00025363183768675746 3.6105304809894455e-06 -2.0651302716198512e-05 3.6105304809894455e-06 0.00025732426319707846 1.0235034499477208e-05 -2.0651302716198512e-05 1.0235034499477208e-05 0.00024364867032507231" energy=-397.1110136144005 pbc="T T T"
Ni       0.01488748       0.00216084       0.17820594        4       1.00000000       0.07619941       0.06329793       0.34811400
Ni       2.54873370       0.01100682       0.21124368        4       1.00000000      -0.02826463       0.09859092       0.44883128
Pt       5.14201734      -0.06415044       0.16923566        4       0.00000000       0.02251793      -0.05162986       0.33475744
Ni       7.74809111      -0.06914348       0.22551919        4       1.00000000       0.03788775      -0.02886825       0.38788331
Ni       1.28529056       2.22261442       0.11490959        4       1.00000000       0.04160522       0.03480865       0.26666549
Pt       3.75089928       2.21139557       0.20177066        4       0.00000000      -0.02473019       0.10013826       0.19443704
Pt       6.45819359       2.18035051       0.14326263        4       0.00000000       0.10591929       0.03255126       0.02735501
Pt       9.10869127       2.19997977       0.16683013        4       0.00000000       0.15507188       0.00412542       0.05353112
Ni       2.51409161       4.45733742       0.07212881        4       1.00000000      -0.04546743       0.03888119       0.01570128
Pt       5.09346008       4.47050557       0.06049500        4       0.00000000      -0.02812337       0.10160348      -0.16536922
Pt       7.79602667       4.47888654       0.13741304        4       0.00000000       0.11924279       0.07697124      -0.08371681
Ni      10.34059155       4.44191148       0.12357108        4       1.00000000       0.14771818       0.07372347       0.03604824
Ni       3.79565802       6.68598629       0.10840648        4       1.00000000      -0.06310966       0.11569449       0.16580662
Pt       6.42442624       6.73946873       0.22978848        4       0.00000000       0.01495069       0.08751273       0.24685421
Ni       9.02485655       6.62860878       0.12836496        4       1.00000000       0.08820590      -0.00382449       0.07546153
Ni      11.59546337       6.59730411       0.13057608        4       1.00000000       0.09789063      -0.04875891       0.08443644
Ni       1.32804245       0.74830604       2.24167977        3       1.00000000       0.03771726       0.05395821       0.17026952
Ni       3.82811903       0.75601800       2.28480800        3       1.00000000      -0.05043165       0.07197543       0.11915618
Ni       6.44131749       0.75672111       2.29347517        3       1.00000000      -0.06534935       0.06046655       0.11492877
Pt       9.03416651       0.72676401       2.29865420        3       0.00000000       0.02067179       0.22622492      -0.03587143
Ni       2.54171776       2.90553747       2.29726570        3       1.00000000      -0.08712355      -0.13528179       0.23045463
Ni       5.15348276       2.91353458       2.29591407        3       1.00000000      -0.08678508      -0.06017610       0.01858187
Ni       7.73581486       2.95863186       2.30467637        3       1.00000000       0.16281242       0.00071491      -0.04675046
Ni      10.31710460       2.92621281       2.32305627        3       1.00000000      -0.00237433      -0.12223015       0.16715855
Pt       3.84820239       5.16082109       2.25976754        3       0.00000000      -0.00624698      -0.10402905      -0.19003617
Ni       6.47618997       5.15911211       2.28032293        3       1.00000000       0.07310203      -0.00112793      -0.04766440
Ni       8.97681572       5.12726515       2.31367749        3       1.00000000      -0.10194371      -0.16576562       0.18561381
Pt      11.54501942       5.07421523       2.29081534        3       0.00000000      -0.06395555      -0.17420536       0.14611777
Ni       5.16476870       7.40500102       2.26041111        3       1.00000000       0.05767696       0.02699459       0.10175694
Ni       7.68843452       7.38800381       2.28676980        3       1.00000000      -0.14358981      -0.01176146       0.10554406
Pt      10.24624835       7.31058811       2.27771596        3       0.00000000      -0.09853733      -0.09126867      -0.18954663
Ni      12.86906282       7.36036668       2.24630146        3       1.00000000      -0.02572647      -0.08936931      -0.00053745
Ni       0.07739797       1.53412733       4.34884975        2       1.00000000       0.16477492       0.12296682      -0.09134983
Ni       2.55275079       1.51497835       4.34164516        2       1.00000000      -0.07248348       0.08001027      -0.09610178
Ni       5.15175073       1.49111783       4.35614631        2       1.00000000      -0.12805921      -0.02962396      -0.16412952
Ni       7.74054649       1.48477721       4.39647367        2       1.00000000       0.05139962      -0.05029184      -0.06847685
Ni       1.29426957       3.68045677       4.41463327        2       1.00000000      -0.02823483      -0.03983138       0.01242268
Ni       3.82340628       3.67829871       4.36677867        2       1.00000000      -0.14940516      -0.09607385      -0.19504961
Pt       6.48817540       3.63561689       4.38417488        2       0.00000000       0.04559848      -0.06995032      -0.10967901
Ni       9.06216610       3.71345687       4.38025211        2       1.00000000       0.15682769       0.01596785      -0.26160425
Ni       2.54692282       5.84869797       4.44463983        2       1.00000000      -0.10667992      -0.14492019       0.02707230
Pt       5.15791002       5.87240556       4.38165885        2       0.00000000       0.18679223       0.02161415       0.05714134
Ni       7.77503923       5.85913411       4.38988302        2       1.00000000       0.05896780      -0.10661897      -0.16347182
Ni      10.29164108       5.82455091       4.48235624        2       1.00000000      -0.00731654      -0.09506635       0.03111489
Pt       3.90126391       8.12499667       4.37156126        2       0.00000000       0.00133354      -0.03394401       0.21972116
Ni       6.44165903       8.14952847       4.35578009        2       1.00000000      -0.07330053       0.08103137      -0.09978576
Pt       8.92290937       8.09979153       4.37419201        2       0.00000000      -0.07885776       0.06113294       0.18964050
Pt      11.59985776       8.07401044       4.37447932        2       0.00000000      -0.01613402      -0.04983087       0.07902445
Pt       0.03883635       0.01346411       6.56459801        1       0.00000000      -0.02678730       0.02615796       0.14797920
Pt       2.59204742       0.01762936       6.57681867        1       0.00000000      -0.07107284       0.10066384       0.19415307
Pt       5.17348712      -0.03877590       6.50863144        1       0.00000000      -0.00375478      -0.02801812      -0.33512441
Pt       7.73976580      -0.05579466       6.63800411        1       0.00000000      -0.09437008      -0.07095246       0.19976289
Ni       1.31030171       2.28560420       6.50666642        1       1.00000000      -0.03287316       0.23016221      -0.22954734
Pt       3.86668810       2.31401126       6.44909296        1       0.00000000      -0.06962707       0.14759359      -0.18788853
Ni       6.46139856       2.23560660       6.48878817        1       1.00000000      -0.01396649       0.01759130      -0.21850155
Pt       9.04599114       2.30134704       6.45530620        1       0.00000000      -0.00076503       0.10878212      -0.37459757
Ni       2.55364453       4.46420144       6.51623605        1       1.00000000      -0.15658424       0.05882363      -0.23725264
Ni       5.15380052       4.41734715       6.47284567        1       1.00000000      -0.03761018      -0.00245676      -0.38568095
Ni       7.76437477       4.42450179       6.48493402        1       1.00000000       0.10903122       0.02397496      -0.31145355
Ni      10.34591358       4.45147306       6.55386636        1       1.00000000       0.07922627       0.07418356      -0.23825772
Ni       3.83521065       6.57665923       6.55897051        1       1.00000000      -0.08540401      -0.18379867      -0.10770697
Pt       6.48272524       6.55403428       6.52243272        1       0.00000000       0.02562084      -0.05622301      -0.18459334
Ni       9.05744869       6.55422001       6.56392301        1       1.00000000       0.08589820      -0.18382999      -0.21941935
Ni      11.59635174       6.54632747       6.58913958        1       1.00000000      -0.04961519      -0.10916252      -0.16433266
