64
Lattice="10.314006525200089 -0.030937592588463743 0.0036251963200333442 5.130210521486501 8.926934726935288 -0.01026061528013382 0.0 0.0 21.570957137562303" Properties=species:S:1:pos:R:3:tags:I:1:initial_magmoms:R:1:forces:R:3 unique_id=ca366925a2f34d53ae1f3d3800b24989 energy=-376.42519397896507 stress="0.00540181424732641 -5.7672481905560744e-05 0.00015807275875901275 -5.7672481905560744e-05 0.00562976794328783 -0.0001611438045470375 0.00015807275875901275 -0.0001611438045470375 -0.001612177726701202" pbc="T T T"
Ni       0.02114371       0.03121418       0.14406112        1       1.00000000       0.07525258       0.04596915      -0.00309451
Ni       2.56827321      -0.00345422       0.14999737        1       1.00000000      -0.08776878       0.02092539      -0.04708305
Ni       5.12644685      -0.02951410       0.10041421        1       1.00000000      -0.06904559       0.17954605      -0.43037740
Pt       7.79023884      -0.09502227       0.03039265        0       0.00000000       0.15066363      -0.04300493      -0.16663367
Ni       1.24424567       2.23447601       0.05119121        1       1.00000000      -0.08107151      -0.00233810       0.51822970
Pt       3.77482451       2.23312935       0.05728785        1       0.00000000      -0.01970579       0.01148000       0.04323627
Pt       6.43216947       2.24753109       0.09307676        1       0.00000000      -0.02657170       0.10419780      -0.83672426
Ni       9.06861430       2.20552900       0.13248072        1       1.00000000       0.03295310       0.00684631       0.07116131
Ni       2.55882018       4.47216914       0.01285407        0       1.00000000       0.06929887      -0.01547347       0.25591416
Ni       5.10472635       4.47441676       0.12071198        1       1.00000000      -0.05484438       0.05829883       0.07394735
Pt       7.80454638       4.47512001       0.04972651        0       0.00000000       0.06242250       0.05665110      -0.00050055
Ni      10.32869761       4.42578276       0.01286429        0       1.00000000       0.05457838      -0.09125798       0.30158527
Ni       3.83255746       6.65873165       0.12539686        1       1.00000000      -0.03000645      -0.12245421       0.08043821
Pt       6.39932596       6.72772949       0.13112266        1       0.00000000      -0.03370060       0.04574481      -0.47320331
Ni       9.01904384       6.68703469       0.00542671        0       1.00000000      -0.12535063       0.00601388       0.09320783
Ni      11.58449232       6.63950423       0.00000000        0       1.00000000       0.12427125      -0.06982897       0.13744401
Ni       1.27083630       0.75986320       2.11565990        2       1.00000000      -0.04524498       0.13040483      -0.00706316
Ni       3.82534264       0.74962428       2.14504023        2       1.00000000      -0.09839023       0.04117140       0.15725043
Pt       6.42890702       0.74720668       2.19977910        3       0.00000000      -0.06541485       0.12666020       0.03449797
Ni       9.08362741       0.73303240       2.13769740        2       1.00000000       0.12900068       0.08153807       0.11411758
Ni       2.57124630       2.96133041       2.15211427        3       1.00000000      -0.02282324      -0.01389834       0.12694849
Ni       5.10180241       3.01090474       2.18232737        3       1.00000000      -0.20498062       0.10359157       0.17056733
Ni       7.78082237       2.99423435       2.16429906        3       1.00000000       0.15797078       0.08425239       0.10097694
Ni      10.29498254       2.91101601       2.14028300        2       1.00000000       0.07544045      -0.07542315       0.07653119
Ni       3.88671347       5.20040754       2.15743125        3       1.00000000       0.10863449      -0.04337339       0.15658821
Ni       6.41440450       5.20169165       2.17473988        3       1.00000000      -0.07309496       0.09034989       0.14236313
Ni       8.98522159       5.15593113       2.18097668        3       1.00000000      -0.05497140      -0.15448303       0.20429537
Pt      11.63435593       5.12833290       2.08781242        2       0.00000000       0.03585973      -0.14497743      -0.01655717
Ni       5.10964527       7.42271720       2.13737038        2       1.00000000      -0.09962878      -0.09240616       0.02063205
Ni       7.69662340       7.42408503       2.14430050        2       1.00000000      -0.01584913      -0.06977935       0.04605593
Pt      10.23781660       7.37921385       2.05331252        2       0.00000000       0.00975761      -0.17149288      -0.07647137
Ni      12.91566642       7.37399187       2.13752995        2       1.00000000       0.04165955      -0.13274475       0.08387515
Ni       0.01209420       1.50759397       4.27978546        5       1.00000000       0.12385774      -0.05129590      -0.33056610
Pt       2.60296182       1.53061070       4.26486808        5       0.00000000      -0.02461245      -0.03494751      -0.13533678
Ni       5.13155969       1.50725585       4.30570810        5       1.00000000       0.01091168       0.13310509      -0.23645763
Pt       7.81246902       1.51441299       4.26637710        5       0.00000000       0.20421607      -0.00288241      -0.06107917
Pt       1.27927335       3.70793353       4.35806599        6       0.00000000      -0.03597123      -0.06401955      -0.06580746
Ni       3.86194699       3.73917022       4.29015224        5       1.00000000       0.04146542       0.11258535      -0.28511723
Pt       6.42210002       3.77436796       4.21426300        4       0.00000000      -0.03248360       0.02024538      -0.14722809
Ni       9.01062006       3.70709796       4.29735421        5       1.00000000      -0.01712219      -0.00516385      -0.31254158
Ni       2.59132397       5.89892859       4.30498134        5       1.00000000       0.13069269      -0.16229269      -0.21055444
Ni       5.11131131       5.91015393       4.26257964        5       1.00000000      -0.11510396      -0.01941819      -0.36432411
Ni       7.72312713       5.89675682       4.28099474        5       1.00000000      -0.06165997       0.00532185      -0.35020584
Pt      10.25073432       5.86288624       4.38069975        6       0.00000000      -0.02224802      -0.03289573      -0.09854788
Pt       3.85998277       8.13379379       4.21887763        4       0.00000000       0.07103108      -0.05312609      -0.13439231
Pt       6.40671772       8.14436487       4.18528766        4       0.00000000      -0.05725907       0.00718293      -0.19476621
Pt       8.98181621       8.15279210       4.27008382        5       0.00000000      -0.05071840       0.00122235      -0.07605146
Pt      11.60632381       8.11057502       4.33204468        5       0.00000000       0.08444907      -0.05610025      -0.06846144
Pt      -0.01467014       0.03455399       6.53427805        8       0.00000000       0.01711759       0.07523566       0.10514892
Pt       2.59724064       0.03943809       6.57095714        9       0.00000000       0.00627053       0.01466048       0.31137417
Pt       5.18979911      -0.08291730       6.55185852        9       0.00000000      -0.01989749       0.09407381       0.49298487
Ni       7.74048601      -0.03491019       6.43151216        7       1.00000000       0.06201186       0.13066086       0.29367754
Ni       1.30977500       2.27893222       6.49781609        8       1.00000000       0.01455410       0.00646639      -0.13318386
Ni       3.83446430       2.24413894       6.41501436        7       1.00000000       0.03204238      -0.05444225       0.06376357
Pt       6.43481807       2.21212450       6.42246352        7       0.00000000      -0.05554597       0.00519229       0.80845177
Pt       9.08597812       2.30554202       6.51497685        8       0.00000000       0.05757726       0.13268357       0.10399370
Ni       2.51902785       4.43520407       6.48402748        8       1.00000000      -0.06441078       0.02234763      -0.21264470
Pt       5.06902104       4.41841807       6.48880186        8       0.00000000      -0.13280362       0.08201798       0.09936398
Ni       7.77267726       4.46175391       6.40204960        7       1.00000000       0.07530477       0.06254743      -0.03919038
Ni      10.32384393       4.46401282       6.50464836        8       1.00000000       0.04457543       0.04667746      -0.09272889
Pt       3.74125629       6.66331396       6.50387668        8       0.00000000       0.08801237      -0.10999087       0.00249316
Pt       6.48943236       6.62555695       6.41520329        7       0.00000000      -0.18358872      -0.04421176       0.42073462
Ni       9.03598596       6.62107379       6.49428859        8       1.00000000      -0.07817742      -0.03946566      -0.04742659
Ni      11.56341126       6.61559315       6.50023171        8       1.00000000      -0.03178710      -0.17267933      -0.05752960
