64
Lattice="10.277969968995986 -0.008814662946451385 -0.023273537583496127 5.131351262460569 8.844005369651944 -0.09288488935260511 -0.01900276386301751 -0.0766014626763255 8.779375098561568" Properties=species:S:1:pos:R:3:tags:I:1:initial_magmoms:R:1:forces:R:3 unique_id=9796747115884325a83e585c0206ea37 stress="0.00018109873959858136 -1.0484063642788363e-07 4.180870710698763e-06 -1.0484063642788363e-07 0.00019065857042369072 2.2372955285153223e-05 4.180870710698763e-06 2.2372955285153223e-05 0.00018412598462513863" energy=-396.52616435674724 pbc="T T T"
Ni      -0.00292442       0.01052283       0.18415279        4       1.00000000       0.02393836       0.05195627       0.26192035
Ni       2.56367309      -0.00543226       0.20345869        4       1.00000000       0.00318251       0.01169370       0.34203801
Ni       5.14036569      -0.02928481       0.14983408        4       1.00000000      -0.00681645       0.06261503       0.21415560
Ni       7.71387613      -0.05599775       0.06633769        4       1.00000000      -0.02488163      -0.15374707       0.10703134
Ni       1.24519476       2.20828832       0.16804945        4       1.00000000      -0.16406409      -0.01192654       0.29880494
Pt       3.79334829       2.20151664       0.08153522        4       0.00000000      -0.08915807      -0.01499395      -0.13497949
Pt       6.47392474       2.18945512       0.15858761        4       0.00000000       0.09177525      -0.07483293       0.31473644
Ni       9.02225166       2.21948134       0.11407402        4       1.00000000       0.10135666       0.05559732       0.12955510
Ni       2.53299207       4.43135913       0.00611830        4       1.00000000      -0.17761506      -0.04466013      -0.06459102
Ni       5.12374263       4.41236908       0.09449222        4       1.00000000       0.03318998      -0.12462804       0.25874021
Ni       7.76147179       4.40852789       0.02258669        4       1.00000000       0.21806559      -0.06080598       0.06894614
Ni      10.25890186       4.39762355       0.01415034        4       1.00000000      -0.07118397      -0.10617038       0.03422717
Ni       3.81157818       6.64535876       0.00842376        4       1.00000000      -0.09141202       0.02596132       0.08780155
Pt       6.41704870       6.66005998      -0.01714447        4       0.00000000      -0.04362953      -0.02738698      -0.22704002
Ni       8.99570966       6.60230261       0.07552320        4       1.00000000      -0.04100409      -0.15217941       0.17848396
Ni      11.57390862       6.61975381      -0.02772068        4       1.00000000       0.03811712      -0.09443782      -0.05408611
Ni       1.28657987       0.73727813       2.15566319        3       1.00000000      -0.04612651       0.08275781       0.01323049
Ni       3.84563505       0.73356802       2.18377886        3       1.00000000       0.06845518       0.01921605       0.03605950
Ni       6.41453784       0.71932491       2.22698118        3       1.00000000       0.02402514       0.05658224       0.19033995
Pt       8.98185275       0.74405825       2.15451438        3       0.00000000      -0.05706751       0.01931080       0.05614092
Ni       2.53608783       2.90259688       2.17592961        3       1.00000000      -0.08140203       0.04071147      -0.03285150
Ni       5.11143227       2.87737200       2.20628901        3       1.00000000      -0.09997520      -0.12466501       0.08036075
Ni       7.76066818       2.92880966       2.18223342        3       1.00000000       0.22575334       0.04634417       0.03654174
Ni      10.26297320       2.91551914       2.16104709        3       1.00000000      -0.00511946      -0.03451321       0.14576470
Pt       3.82006195       5.12697461       2.10945146        3       0.00000000      -0.07721588      -0.04405821      -0.04256464
Pt       6.49756997       5.12446620       2.12185363        3       0.00000000       0.06152520       0.09958199      -0.13406945
Ni       8.99234748       5.09927480       2.13988810        3       1.00000000       0.07846369      -0.06641899       0.07902024
Pt      11.50659065       5.07395899       2.14092092        3       0.00000000       0.00615073      -0.07786179      -0.02275118
Ni       5.11969758       7.37339458       2.09297702        3       1.00000000      -0.08176060      -0.02898515      -0.09325307
Ni       7.70511124       7.37642375       2.09566982        3       1.00000000       0.05808434       0.01833694      -0.03564628
Pt      10.28728607       7.36793988       2.05741571        3       0.00000000       0.07466629      -0.04363392       0.04371471
Ni      12.82742890       7.35973318       2.07544668        3       1.00000000      -0.03351863      -0.02607740      -0.09846104
Ni      -0.02642681       1.49716603       4.32045280        2       1.00000000       0.00494712       0.16290959      -0.06366432
Pt       2.57446652       1.53246307       4.25173354        2       0.00000000      -0.05337440       0.07199378       0.02405054
Ni       5.14675599       1.42796053       4.28541896        2       1.00000000       0.06415166      -0.04822926      -0.15712069
Ni       7.69219931       1.42148158       4.29528887        2       1.00000000      -0.03528587       0.03764011      -0.06661116
Ni       1.24530631       3.69738927       4.32559369        2       1.00000000      -0.04899569       0.02076587      -0.05747532
Ni       3.81176648       3.65556846       4.32002791        2       1.00000000      -0.03665840       0.08618752      -0.11716622
Pt       6.46919657       3.59907560       4.24799140        2       0.00000000       0.00592226      -0.07981555       0.11259434
Ni       9.02677920       3.66383381       4.28405309        2       1.00000000       0.15281150       0.06258839      -0.17803892
Ni       2.49066003       5.83135449       4.35317154        2       1.00000000      -0.14974892      -0.04615496      -0.07469390
Pt       5.07407942       5.84544316       4.31429207        2       0.00000000      -0.02834900      -0.01375651      -0.00833771
Ni       7.74387452       5.81021529       4.28898054        2       1.00000000       0.15312186      -0.05574472      -0.12974992
Ni      10.29308446       5.80120194       4.30355091        2       1.00000000       0.01440405      -0.02486164      -0.05905524
Pt       3.72204407       8.08123988       4.26041719        2       0.00000000      -0.01828686      -0.02504823      -0.00076570
Pt       6.40210455       8.08181159       4.18460888        2       0.00000000      -0.08923824       0.11230839      -0.04302376
Pt       9.03024701       8.03462462       4.20611288        2       0.00000000      -0.02700819      -0.04337780       0.07610874
Ni      11.55177095       8.05412931       4.25918157        2       1.00000000      -0.09492592      -0.05613591      -0.12638878
Pt      -0.06860221      -0.11176762       6.58391311        1       0.00000000      -0.00621603      -0.01255389       0.14774260
Pt       2.57067922      -0.05461341       6.58314067        1       0.00000000       0.02990562       0.05390193       0.21943661
Pt       5.20163401      -0.10464997       6.52855644        1       0.00000000       0.09707271      -0.14830981       0.10281284
Ni       7.68685694      -0.10623559       6.49811807        1       1.00000000       0.00945758      -0.02003526      -0.11118251
Pt       1.30137798       2.27443350       6.51394987        1       0.00000000       0.16808522       0.10298009       0.20067496
Ni       3.84379420       2.18898834       6.40540503        1       1.00000000       0.05800280       0.03577035      -0.30247142
Pt       6.40909710       2.14763300       6.42298148        1       0.00000000      -0.01407710       0.01039573      -0.18274665
Pt       8.97802183       2.21906788       6.44944755        1       0.00000000       0.04274993       0.14235233      -0.01295285
Ni       2.53243986       4.43008008       6.43646608        1       1.00000000      -0.05371382       0.21372078      -0.26525504
Pt       5.05714421       4.40096818       6.51339108        1       0.00000000      -0.10507454       0.15781310       0.08643738
Ni       7.68975735       4.37925220       6.44621239        1       1.00000000      -0.11721759       0.01901963      -0.18668223
Ni      10.29624864       4.39503913       6.41987000        1       1.00000000       0.19358674       0.09607999      -0.22404502
Ni       3.76374031       6.57127174       6.45166245        1       1.00000000      -0.22049139       0.04459447      -0.10820459
Ni       6.40862301       6.55204839       6.36026994        1       1.00000000       0.07736779      -0.00758842      -0.40267490
Pt       8.99737037       6.45691660       6.44838772        1       0.00000000       0.03642738      -0.05488329       0.10099719
Ni      11.59603262       6.53217501       6.40049386        1       1.00000000       0.07584910      -0.07320901      -0.22986833
