64
Lattice="10.338394771879923 -0.011073629280543826 0.0076142238992290365 5.159607341670921 8.900711023240056 -0.016640098121234535 0.0 0.0 21.540919390920685" Properties=species:S:1:pos:R:3:tags:I:1:initial_magmoms:R:1:forces:R:3 unique_id=e381fa01b0ea41bea55c43490b50d521 energy=-375.6582900521556 stress="0.005821829115145906 2.960341717301201e-05 0.00015789802304912328 2.960341717301201e-05 0.006197239393372638 -0.00011798991656391365 0.00015789802304912328 -0.00011798991656391365 -0.0017140889491278916" pbc="T T T"
Ni       0.00391058       0.02165715       0.11465587        1       1.00000000       0.10857130      -0.03518878      -0.16692830
Ni       2.58146214       0.00109211       0.14787204        1       1.00000000      -0.01960405       0.03991035      -0.09108829
Ni       5.16619058      -0.01720997       0.10730095        1       1.00000000      -0.01298854       0.21002580      -0.33178808
Ni       7.75815761      -0.05323599       0.12879246        1       1.00000000      -0.10233047      -0.13443684      -0.18108635
Ni       1.25865351       2.23095900       0.04046646        0       1.00000000      -0.06040045       0.02267836       0.47345367
Pt       3.81178719       2.23245435       0.13099902        1       0.00000000       0.00305460       0.01752037      -0.50557074
Pt       6.48218723       2.17334870       0.13440792        1       0.00000000       0.00772490      -0.04070015      -0.45176038
Ni       9.08612029       2.21660105       0.08599446        1       1.00000000       0.06512642       0.12721746      -0.05393320
Ni       2.57286920       4.46954300       0.00686575        0       1.00000000       0.08415469      -0.00547923       0.29297708
Ni       5.13497827       4.46393730       0.11834479        1       1.00000000      -0.05541426       0.03481203       0.10528099
Pt       7.82527132       4.45516718       0.04258704        0       0.00000000       0.01934874      -0.00287622       0.01757942
Ni      10.36567474       4.43548149       0.00958037        0       1.00000000       0.06473665      -0.07715804       0.32562249
Ni       3.83828225       6.67160043       0.11734299        1       1.00000000      -0.03672627      -0.05243780       0.08777208
Pt       6.42921380       6.71490666       0.11801728        1       0.00000000      -0.08056555       0.02683110      -0.51795851
Ni       9.06163655       6.68138506       0.00376245        0       1.00000000      -0.10835897      -0.03101484       0.11908366
Ni      11.64249752       6.66165662       0.00000000        0       1.00000000       0.15683990      -0.00964156       0.21343051
Ni       1.30161885       0.75780041       2.09635749        3       1.00000000      -0.00527056       0.13085384      -0.06654264
Ni       3.86995738       0.74532042       2.14948887        3       1.00000000       0.05665183       0.02010249       0.18569049
Ni       6.45500456       0.74678416       2.18090897        4       1.00000000      -0.04292255       0.14610116       0.28818956
Pt       9.05566066       0.76910916       2.12288177        3       0.00000000       0.01233392       0.08395100       0.14570051
Ni       2.57278332       2.97083222       2.15424874        4       1.00000000      -0.00584035       0.10840458       0.04294457
Ni       5.14578303       2.97785994       2.18168095        4       1.00000000      -0.16053247       0.04136780       0.19058298
Ni       7.78051684       2.97433676       2.17906563        4       1.00000000       0.14516838       0.07608070       0.18626145
Ni      10.34069751       2.95071526       2.14598790        3       1.00000000       0.07197331       0.03323809       0.08839801
Ni       3.90195195       5.18116206       2.14567806        3       1.00000000       0.09723991      -0.09046585       0.14287427
Ni       6.44194775       5.18697515       2.15998674        4       1.00000000      -0.05188655       0.05364438       0.12831787
Ni       9.02413054       5.15810292       2.16529924        4       1.00000000      -0.02301213      -0.13817334       0.19050673
Pt      11.67405700       5.12074097       2.10970161        3       0.00000000       0.05790034      -0.06356238       0.02990475
Ni       5.13680033       7.38011178       2.12410386        3       1.00000000      -0.14693265      -0.14744646       0.07638122
Ni       7.74541422       7.40329304       2.12301615        3       1.00000000       0.06977395      -0.09682578       0.02395884
Pt      10.31553091       7.40928806       2.03739945        2       0.00000000       0.03175603      -0.16578560      -0.09706289
Ni      12.94011658       7.37853285       2.09257924        3       1.00000000       0.03512117      -0.08935119       0.04930873
Ni      -0.00758856       1.54163703       4.27324493        6       1.00000000      -0.05939047       0.09635014      -0.21772718
Pt       2.53911455       1.56797891       4.18717254        5       0.00000000      -0.04847188       0.02037701      -0.01199999
Ni       5.17225201       1.49864271       4.24982883        5       1.00000000      -0.04477218       0.09480362      -0.37550849
Ni       7.77994840       1.49915556       4.26154587        6       1.00000000       0.07121839       0.02195309      -0.29344331
Ni       1.28777223       3.69608346       4.31935919        6       1.00000000      -0.02050052      -0.02912023      -0.08498725
Ni       3.85933310       3.75060288       4.24562099        5       1.00000000      -0.01539015       0.10968130      -0.31342392
Pt       6.47922981       3.72267396       4.17881982        5       0.00000000      -0.05164897       0.00070498       0.03349847
Ni       9.05290953       3.67108542       4.26653466        6       1.00000000       0.00333060      -0.15026555      -0.36434611
Ni       2.59307428       5.85649777       4.28294062        6       1.00000000       0.05157770      -0.16681597      -0.17844701
Ni       5.14263622       5.88522759       4.22958202        5       1.00000000      -0.07682252      -0.06821365      -0.41576243
Ni       7.76519600       5.87419134       4.25522475        6       1.00000000       0.01295294      -0.04040096      -0.35955769
Pt      10.32952943       5.81116955       4.35466412        7       0.00000000       0.04203866      -0.01120940      -0.07746884
Pt       3.87357821       8.11840211       4.21212950        5       0.00000000       0.00532437      -0.04731900       0.01608089
Pt       6.43751934       8.11872053       4.15368992        5       0.00000000      -0.08564714       0.00484945      -0.19563827
Pt       9.01984311       8.13281287       4.23957332        5       0.00000000      -0.07054513       0.04224544      -0.02099524
Pt      11.64552199       8.15250011       4.22701830        5       0.00000000       0.04593688      -0.01505261      -0.01842678
Pt       0.02277725       0.03222762       6.50776051        9       0.00000000       0.00540474       0.06889214       0.20908394
Pt       2.58607726      -0.01188645       6.54091939        9       0.00000000       0.03769474       0.00892553       0.34215793
Pt       5.16483742      -0.10501250       6.52537150        9       0.00000000      -0.05208034       0.16729849       0.46790618
Pt       7.75363693      -0.03683571       6.53385316        9       0.00000000       0.03710675       0.21008477       0.39059801
Ni       1.28433086       2.28383592       6.44352060        8       1.00000000      -0.01309536       0.10075020      -0.26792640
Pt       3.80936239       2.26521406       6.39674788        8       0.00000000       0.14524966      -0.08143514       0.48800774
Pt       6.48923449       2.22583405       6.38553558        8       0.00000000      -0.05251113      -0.10688517       0.55317404
Pt       9.11884648       2.32218973       6.43901942        8       0.00000000      -0.03584171       0.01399000       0.00948312
Ni       2.50051226       4.43588026       6.42584588        8       1.00000000      -0.14633337      -0.01204811      -0.33109023
Pt       5.14946449       4.43825352       6.45415778        9       0.00000000      -0.04468935       0.04580683       0.11327287
Ni       7.81175426       4.45762429       6.36848779        8       1.00000000       0.12337474       0.08230124      -0.05924984
Ni      10.37220633       4.44820339       6.46153621        9       1.00000000       0.08176413      -0.01501213      -0.20638392
Pt       3.78830378       6.59762852       6.46811859        9       0.00000000       0.08562366      -0.08919932       0.03004600
Pt       6.52675876       6.60334696       6.38143120        8       0.00000000      -0.07619088      -0.07052638       0.40970241
Ni       9.07147785       6.58388504       6.45871190        9       1.00000000      -0.03600421      -0.12215061      -0.10538666
Ni      11.59937315       6.58339419       6.46628513        9       1.00000000       0.00664714      -0.05555545      -0.10574257
