64
Lattice="10.206366677086297 -0.00846341301032997 0.026235822555353117 5.095853807873484 8.80539610056912 -0.040963189328768565 0.0 0.0 21.59038952142768" Properties=species:S:1:pos:R:3:tags:I:1:initial_magmoms:R:1:forces:R:3 unique_id=3b21b08a10e44d7789846a65182dd07d stress="0.0038454819581881135 -7.341292389109008e-05 0.00027680580535564825 -7.341292389109008e-05 0.0038279631743327013 -0.00040570584886401816 0.00027680580535564825 -0.00040570584886401816 -0.002728317178643056" energy=-370.22230288312784 pbc="T T T"
Ni       0.01500867       0.03460279       0.19831482        2       1.00000000       0.20877539       0.10293861      -0.63167730
Ni       2.57418021       0.02739296       0.24961257        2       1.00000000       0.00363619       0.00146492      -0.28471229
Ni       5.08215411      -0.02485442       0.12167110        1       1.00000000      -0.03520156       0.07126996       0.21320059
Ni       7.66246918      -0.03161866       0.10517973        1       1.00000000      -0.04944745       0.07773681       0.02455126
Ni       1.27992063       2.20441223       0.22080414        2       1.00000000       0.00211493       0.07955486      -0.04742677
Ni       3.79427789       2.19658984       0.22619662        2       1.00000000       0.02984939       0.02798468      -0.12771604
Pt       6.37798909       2.23391522       0.17839172        2       0.00000000      -0.01099230       0.06498195      -0.85212754
Ni       8.96801808       2.22167475       0.11758024        1       1.00000000       0.03030020       0.10290555       0.17387743
Ni       2.56046178       4.38235391       0.09014303        1       1.00000000      -0.01129382      -0.11134537       0.26400670
Ni       5.04840467       4.39232274       0.09877594        1       1.00000000      -0.15223474      -0.02348195       0.11162761
Ni       7.71714722       4.38256666       0.09971016        1       1.00000000       0.21445780      -0.02944507       0.03934431
Ni      10.19632956       4.37430438       0.10875955        1       1.00000000       0.01101498      -0.03342846       0.24892726
Ni       3.79762636       6.57129496       0.04509803        0       1.00000000       0.02256365      -0.12584767      -0.02493400
Pt       6.41576732       6.59210753       0.00000000        0       0.00000000       0.15424943       0.11821861      -0.61444607
Ni       8.94359338       6.57726583       0.16018881        2       1.00000000      -0.03637724      -0.13189191      -0.25252593
Ni      11.47261077       6.57950644       0.06024896        1       1.00000000      -0.09056048      -0.13576949       0.06577895
Ni       1.32407683       0.76812368       2.19448695        3       1.00000000       0.02656703       0.08258701       0.13155874
Ni       3.79449951       0.74331324       2.21103846        3       1.00000000       0.00612370      -0.00165811       0.13037544
Pt       6.32543374       0.76342956       2.32814275        4       0.00000000      -0.08578138       0.09274097       0.18000813
Pt       8.97527518       0.82560807       2.23803483        3       0.00000000      -0.04830903      -0.01744913       0.09449608
Ni       2.57349867       2.90771799       2.19350180        3       1.00000000       0.00392536       0.03051678       0.04970656
Ni       5.02405870       2.93527108       2.24714421        3       1.00000000      -0.17818895       0.00983942       0.22062420
Ni       7.71668199       2.95558632       2.24686460        3       1.00000000       0.17373449       0.07175276       0.15933387
Ni      10.21215055       2.92599578       2.24680980        3       1.00000000       0.00615206      -0.02689039       0.19304906
Ni       3.82752256       5.05441371       2.21102648        3       1.00000000      -0.03028456      -0.12911181       0.07378270
Pt       6.41551755       5.06902482       2.20859976        3       0.00000000       0.03525168      -0.09222166      -0.03998796
Ni       8.92924334       5.07222622       2.22683518        3       1.00000000       0.03313842      -0.14530285       0.10690518
Pt      11.46996163       5.00807404       2.23909040        3       0.00000000       0.00331212      -0.03595912       0.04696237
Pt       5.12357924       7.31592943       2.17669506        3       0.00000000      -0.01471328      -0.07859370      -0.01969207
Ni       7.66792813       7.34203560       2.20169010        3       1.00000000      -0.04915425      -0.01394461       0.14723202
Pt      10.11116146       7.30216863       2.23300777        3       0.00000000      -0.07053410      -0.08184516       0.14632027
Pt      12.73674567       7.27170835       2.17613078        3       0.00000000      -0.05067004      -0.04793165      -0.02184115
Ni      -0.01687780       1.50725270       4.36805564        6       1.00000000       0.04341977       0.12196652      -0.06757427
Pt       2.58349941       1.50496591       4.26919013        5       0.00000000      -0.01770775       0.14222051       0.03973930
Ni       5.11034665       1.41089494       4.38775087        6       1.00000000      -0.15942077       0.02066402       0.02669377
Ni       7.69471394       1.44809217       4.39334683        6       1.00000000       0.13329466       0.13598018      -0.04444010
Ni       1.26123473       3.68987811       4.36914309        6       1.00000000      -0.04082131       0.00592199      -0.02586134
Ni       3.82028806       3.70322902       4.35222621        6       1.00000000      -0.07519181       0.10226230      -0.11765218
Pt       6.39171187       3.65456824       4.36705918        6       0.00000000      -0.00860830      -0.02547891      -0.00651217
Ni       8.97386088       3.64597451       4.39192560        6       1.00000000       0.08673947       0.04674808      -0.06785512
Ni       2.53390538       5.79679959       4.40266627        6       1.00000000      -0.12718737      -0.09842043      -0.07817204
Ni       5.06391163       5.80721526       4.39895596        6       1.00000000      -0.12265156      -0.02962780      -0.13947798
Ni       7.71492226       5.81603544       4.36225910        6       1.00000000       0.24635093      -0.06394289      -0.23837867
Ni      10.22898365       5.81178907       4.38351405        6       1.00000000       0.01291893      -0.09747547      -0.08238983
Pt       3.74320491       8.01738394       4.38857996        6       0.00000000      -0.02022575      -0.05093503       0.06803473
Pt       6.42883217       7.99416946       4.32580765        5       0.00000000       0.07436089       0.07585938       0.00511963
Ni       8.98362601       8.02692778       4.35541357        6       1.00000000      -0.02022614       0.04572759      -0.03692553
Ni      11.43898255       8.02728225       4.42313049        6       1.00000000      -0.16263340      -0.07329056       0.04557928
Pt      -0.06734966      -0.04999005       6.59038952        9       0.00000000      -0.01181229       0.05688000       0.47929518
Pt       2.60591441      -0.06069513       6.58615860        9       0.00000000       0.00923864      -0.00509439       0.36421516
Ni       5.16758945      -0.07340879       6.50350720        8       1.00000000      -0.00987883       0.00055453      -0.08586976
Ni       7.61940228      -0.08385172       6.53777460        8       1.00000000      -0.04327184      -0.08248857       0.03082233
Pt       1.22381400       2.27517461       6.53156943        8       0.00000000       0.03470278      -0.05346749       0.08060063
Pt       3.87387025       2.25311431       6.53793526        8       0.00000000       0.13199819       0.20870292       0.15786189
Pt       6.46555984       2.12742962       6.45642663        8       0.00000000      -0.08228924      -0.03341445       0.96036801
Ni       8.92851989       2.20126169       6.50135654        8       1.00000000       0.02993965       0.08366010      -0.17591655
Ni       2.55870626       4.44894816       6.46749132        8       1.00000000      -0.02358198       0.03532831      -0.29326929
Ni       5.10515740       4.43925082       6.49061051        8       1.00000000      -0.00068371      -0.01230516      -0.15411470
Ni       7.68113343       4.36637231       6.49855840        8       1.00000000       0.03294443      -0.06104008      -0.16827781
Ni      10.21490933       4.38073356       6.48520753        8       1.00000000       0.02745110       0.03360519      -0.27552222
Ni       3.80137647       6.51400436       6.47308856        8       1.00000000       0.01214959      -0.02764388      -0.16957428
Ni       6.35997249       6.49815569       6.37513416        7       1.00000000       0.04332942      -0.09520621       0.40093895
Pt       8.99547300       6.49162512       6.47962629        8       0.00000000      -0.06800551       0.06597642      -0.00621342
Ni      11.52833304       6.55920664       6.47276745        8       1.00000000       0.02393544      -0.04460151      -0.32985320
