64
Lattice="10.307684971445827 -0.011032113801294914 0.014803281821202822 5.144288394913547 8.830304617581715 -0.012931643835369865 0.0 0.0 21.520532008516813" Properties=species:S:1:pos:R:3:tags:I:1:initial_magmoms:R:1:forces:R:3 unique_id=36646298f15447fbb015e3e8365f5869 energy=-374.3735212978184 stress="0.005426001827168359 -0.00012971277090485282 5.473018919301925e-06 -0.00012971277090485282 0.0049666918716699 1.4483697370690271e-05 5.473018919301925e-06 1.4483697370690271e-05 -0.002621483494257705" pbc="T T T"
Ni       0.00312338       0.02502925       0.14625697        1       1.00000000       0.09516693       0.03309531      -0.29661284
Ni       2.57220889       0.00699017       0.17541453        2       1.00000000      -0.03036130       0.08070098      -0.14151612
Ni       5.15447445      -0.01865691       0.12155083        1       1.00000000      -0.03539549       0.15188718      -0.31375206
Ni       7.73695842      -0.05042605       0.14601032        1       1.00000000      -0.09604128      -0.13405602      -0.22857713
Ni       1.25848173       2.21349590       0.14429999        1       1.00000000      -0.03640268       0.02780717       0.08359372
Pt       3.80279125       2.21678772       0.14204545        1       0.00000000      -0.08901744      -0.04004911      -0.38471500
Pt       6.45814422       2.14404719       0.07242344        1       0.00000000       0.02493761      -0.14302887      -0.11566665
Ni       9.06229818       2.19799744       0.11855867        1       1.00000000       0.04133344       0.14882954      -0.15370739
Ni       2.55651335       4.43958194       0.00912320        0       1.00000000      -0.07868420      -0.04414024       0.12794353
Ni       5.13218827       4.42698232       0.02867762        0       1.00000000       0.08013674      -0.07443777      -0.01632128
Pt       7.76346047       4.40738232       0.00000000        0       0.00000000       0.02762159      -0.02366222      -0.27105073
Ni      10.34277355       4.39722146       0.03491105        0       1.00000000       0.04219598      -0.08263464       0.19957642
Ni       3.82630582       6.63714450       0.03034294        0       1.00000000      -0.08426810       0.14321915       0.20036122
Pt       6.39769591       6.67363119       0.05841172        1       0.00000000       0.04737869       0.07764703      -0.11384119
Ni       9.03486321       6.64476180       0.10998567        1       1.00000000      -0.09299643      -0.01162181      -0.28021738
Ni      11.61186751       6.61696782       0.02450748        0       1.00000000       0.09568298       0.01393290       0.20149642
Ni       1.31516709       0.76308290       2.14519648        3       1.00000000       0.07348377       0.12657723       0.14553197
Ni       3.84506511       0.75733777       2.19338351        4       1.00000000      -0.03045605       0.10859879       0.26536296
Ni       6.44284431       0.74704769       2.21480096        4       1.00000000      -0.00390511       0.14189224       0.35365002
Pt       9.02618396       0.76089344       2.15286003        4       0.00000000       0.01503770       0.11708278       0.11614293
Ni       2.54985956       2.89241440       2.21651223        4       1.00000000      -0.02348879      -0.10232818       0.28764627
Ni       5.16226391       2.90707166       2.20522531        4       1.00000000      -0.00610544      -0.12690509       0.18171313
Ni       7.72089371       2.91303407       2.19711445        4       1.00000000      -0.01985381       0.01961728       0.16618691
Ni      10.33104363       2.90062844       2.18035142        4       1.00000000       0.04905050      -0.01441433       0.21915621
Pt       3.89670285       5.12560329       2.11323530        3       0.00000000       0.04252497      -0.12551812      -0.11635953
Ni       6.43640169       5.13613629       2.16828909        4       1.00000000       0.04160199      -0.05024731       0.08958585
Pt       8.98228725       5.10858670       2.23911931        4       0.00000000      -0.04653079      -0.07240127       0.10636454
Pt      11.61011630       5.08636921       2.17705722        4       0.00000000       0.04489627      -0.11103597       0.07508661
Ni       5.15032353       7.36493862       2.13425492        3       1.00000000      -0.05166609      -0.00739705       0.04809224
Ni       7.70794308       7.37391919       2.13698282        3       1.00000000       0.02583898       0.03312453       0.10112677
Pt      10.34993680       7.40368274       2.11629158        3       0.00000000       0.09444439       0.01779201       0.02927680
Ni      12.88274023       7.35288490       2.13729015        3       1.00000000       0.06346017      -0.04374432      -0.01351153
Ni       0.01131068       1.52448192       4.27740620        6       1.00000000       0.03680879       0.13392615      -0.16894649
Ni       2.57890460       1.51938676       4.25210713        6       1.00000000      -0.03415971       0.10329494      -0.26071299
Ni       5.17868694       1.46378407       4.25989519        6       1.00000000      -0.00395135      -0.08185135      -0.32453879
Ni       7.71612777       1.45805430       4.29452448        6       1.00000000       0.01410472      -0.09086642      -0.20059547
Ni       1.29208312       3.68508994       4.29873867        6       1.00000000       0.00923843      -0.06381739      -0.10657146
Ni       3.81973279       3.66287907       4.27032322        6       1.00000000      -0.14761484      -0.10029836      -0.28447781
Pt       6.47351376       3.60925805       4.28887510        6       0.00000000      -0.03294024      -0.04500252      -0.16742270
Ni       9.05954208       3.66924091       4.31306742        6       1.00000000       0.16902506      -0.08129770      -0.08610506
Ni       2.52543535       5.84338903       4.35158271        7       1.00000000      -0.10711756      -0.11337646      -0.04184800
Pt       5.13128851       5.82676192       4.34738232        6       0.00000000      -0.05371878      -0.05450683      -0.07189205
Ni       7.74587931       5.84262783       4.31637435        6       1.00000000      -0.02127803       0.02563563      -0.16845624
Ni      10.34783364       5.82566827       4.34497159        6       1.00000000       0.08124927      -0.03133847      -0.04171104
Pt       3.78504781       8.07360701       4.24128728        5       0.00000000      -0.06998416      -0.01420561       0.05721840
Pt       6.44772659       8.11986674       4.20113560        5       0.00000000      -0.05062956       0.20055848      -0.06778075
Pt       9.05362564       8.09708528       4.23945081        5       0.00000000      -0.01530530       0.08242134       0.00790693
Ni      11.59370580       8.06363893       4.28632290        6       1.00000000      -0.05859507      -0.03581338      -0.16876282
Pt      -0.01083194      -0.07897500       6.51650725        9       0.00000000      -0.01601308       0.10773308       0.32497552
Pt       2.58390198      -0.03785883       6.52053201        9       0.00000000       0.06055860       0.10223881       0.37535460
Pt       5.19343417      -0.02796302       6.48025724        9       0.00000000       0.02772160       0.07719066       0.35369679
Pt       7.71540161      -0.07458808       6.50706693        9       0.00000000      -0.04378659       0.03843595       0.31687701
Pt       1.29171119       2.29616026       6.43387528        8       0.00000000       0.03163288      -0.07199120       0.00211103
Pt       3.92155821       2.29631901       6.35300605        8       0.00000000      -0.01296323       0.03362723       0.39471455
Ni       6.44837340       2.21971179       6.38555533        8       1.00000000      -0.01078760      -0.04513741       0.23618049
Pt       8.97230921       2.27212406       6.43650232        8       0.00000000      -0.01162896      -0.04202954       0.02678053
Ni       2.58033682       4.47155297       6.41808526        8       1.00000000       0.07669258      -0.00983401      -0.33088646
Ni       5.16576662       4.42884285       6.46164643        9       1.00000000       0.05900936       0.00647014      -0.10298806
Ni       7.69363568       4.39938469       6.35355802        8       1.00000000      -0.09804766       0.02623068       0.27624013
Ni      10.34480625       4.41955055       6.42826651        8       1.00000000       0.06119299      -0.02401963      -0.25927502
Ni       3.83853895       6.53351673       6.45545347        9       1.00000000      -0.06096384      -0.02393914      -0.12719465
Ni       6.43297358       6.54304273       6.38261669        8       1.00000000       0.11233836      -0.02537845       0.21967826
Pt       9.03472253       6.47599829       6.46184048        9       0.00000000      -0.07356157      -0.03731435       0.12108221
Ni      11.62359401       6.52946047       6.42948152        8       1.00000000       0.00385479       0.02007331      -0.28469629
