64
Lattice="10.49953258839615 -0.01067864435986065 0.06163446477303849 5.240518316904456 9.117660732740672 0.00830189683822847 0.05032432975449603 -0.02122766192918247 9.07240118400871" Properties=species:S:1:pos:R:3:tags:I:1:initial_magmoms:R:1:forces:R:3 unique_id=a3cdde9029b6403aad2d83c0336a1fb0 stress="0.001046469212538502 1.963801065527891e-06 1.0065225364356062e-06 1.963801065527891e-06 0.0010564696588136538 5.18662418335528e-06 1.0065225364356062e-06 5.18662418335528e-06 0.000876255654118821" energy=-410.4468215781846 pbc="T T T"
Pt      -0.08918401      -0.02893605       0.15663572        4       0.00000000      -0.27005498      -0.03371676       0.13917143
Ni       2.65204399      -0.03221771       0.08169736        4       1.00000000       0.10193335      -0.12179975       0.21945891
Ni       5.26495688      -0.04268636       0.15956709        4       1.00000000       0.13024374      -0.11346686       0.27196846
Ni       7.86639694      -0.03626793       0.14364456        4       1.00000000      -0.13801116      -0.17720445       0.34340584
Pt       1.27849940       2.27859565       0.11239983        4       0.00000000      -0.00046724      -0.03704744       0.14990054
Pt       3.97407612       2.24198994       0.13405513        4       0.00000000       0.06339707      -0.00982329       0.19273302
Pt       6.59793807       2.20610117       0.18403333        4       0.00000000       0.19530643      -0.15478088       0.02732385
Ni       9.17623894       2.26555219       0.18000601        4       1.00000000      -0.08933912      -0.03470111       0.36241560
Pt       2.62449489       4.63726628       0.10908841        4       0.00000000       0.04559194       0.11776880       0.08095587
Ni       5.25866277       4.56204818       0.15744650        4       1.00000000       0.22216975      -0.07361079       0.30627579
Pt       7.93162420       4.57089753       0.18977330        4       0.00000000       0.14246727      -0.07431651       0.07336962
Ni      10.48548854       4.57980603       0.11109689        4       1.00000000       0.00974646       0.15955960       0.17255467
Ni       3.91910445       6.85786804       0.15836916        4       1.00000000      -0.06055776       0.11563369       0.33074592
Pt       6.57640518       6.84156345       0.22198858        4       0.00000000       0.05762609       0.01054535       0.20619256
Ni       9.20558017       6.84255111       0.11216512        4       1.00000000       0.07643551       0.01690932       0.18246529
Ni      11.80019471       6.85783254       0.18492937        4       1.00000000       0.06956552       0.15161676       0.23171892
Pt       1.31178605       0.66519030       2.28120001        3       0.00000000       0.01443750      -0.04288821      -0.21479693
Pt       4.02046105       0.72244110       2.30055982        3       0.00000000       0.10824170       0.09963828       0.06469450
Ni       6.60544619       0.73719309       2.32654478        3       1.00000000       0.13918559      -0.06424771       0.07099938
Ni       9.14461156       0.72200568       2.32112119        3       1.00000000      -0.28489788      -0.00201645      -0.01357828
Pt       2.65992146       3.04741067       2.31349056        3       0.00000000      -0.05471654       0.08547565      -0.08306341
Ni       5.29335577       3.03373126       2.32067718        3       1.00000000       0.09858906      -0.02489987       0.03187965
Pt       7.82621906       3.01933700       2.42417693        3       0.00000000      -0.18711410       0.00763643       0.15732517
Pt      10.41952481       3.05112276       2.31561237        3       0.00000000      -0.16137429       0.08040240      -0.15259082
Pt       4.03697321       5.38046341       2.24199106        3       0.00000000       0.04587727       0.06072690      -0.09505196
Ni       6.60013617       5.31483942       2.31846001        3       1.00000000       0.27483218      -0.03121659       0.10012097
Ni       9.16386034       5.33252249       2.34930293        3       1.00000000      -0.18927028       0.12565327       0.22743709
Pt      11.76251796       5.36081981       2.31602893        3       0.00000000      -0.04035540       0.01783480      -0.03314067
Ni       5.24228209       7.58560158       2.27902003        3       1.00000000      -0.02373142       0.05411808       0.03707803
Ni       7.88721116       7.54400500       2.30468896        3       1.00000000       0.12221186      -0.22831505       0.08120201
Pt      10.49128035       7.57875497       2.24097660        3       0.00000000      -0.04852134      -0.04422523      -0.04984143
Ni      13.14433681       7.63179878       2.29495030        3       1.00000000      -0.00343887       0.17981392      -0.15916706
Pt      -0.07454091       1.54740181       4.45463732        2       0.00000000      -0.21389724       0.06492276      -0.11615807
Pt       2.67809217       1.47248883       4.51336936        2       0.00000000       0.00436253      -0.02140894      -0.00543192
Ni       5.32027712       1.51155227       4.51097041        2       1.00000000       0.15088007       0.01547584      -0.27597976
Ni       7.86918465       1.52850285       4.52826836        2       1.00000000      -0.11784499       0.06601446      -0.17387213
Pt       1.23092456       3.84635624       4.51697962        2       0.00000000      -0.14607499       0.09407588      -0.00859056
Pt       4.05388651       3.75059404       4.47163306        2       0.00000000       0.15080830      -0.04148175      -0.04767183
Ni       6.62406137       3.76572452       4.52326725        2       1.00000000       0.13368944      -0.00478383      -0.03573380
Ni       9.16980921       3.81966582       4.54439462        2       1.00000000      -0.18359010       0.17057480      -0.19854355
Pt       2.60945756       6.09935345       4.46938020        2       0.00000000      -0.01597470       0.08887579      -0.09355625
Pt       5.35910937       6.02981834       4.45373108        2       0.00000000       0.22337210      -0.04812544      -0.00438428
Ni       7.93912972       6.02243024       4.51128652        2       1.00000000       0.17123426      -0.20282819      -0.34181111
Ni      10.46086655       6.04380241       4.58061687        2       1.00000000      -0.20069381      -0.04724616      -0.03894933
Pt       3.92116861       8.38039893       4.42573951        2       0.00000000       0.04540218      -0.03227823      -0.24694518
Pt       6.60856164       8.30335575       4.47747369        2       0.00000000      -0.03287576      -0.13745655      -0.05311048
Pt       9.21590623       8.25552962       4.56155457        2       0.00000000      -0.00178560      -0.22109179      -0.04815347
Pt      11.81961052       8.41516820       4.51094390        2       0.00000000      -0.03474023       0.11866718      -0.14685671
Pt       0.03014488      -0.01125813       6.71550693        1       0.00000000      -0.03533159      -0.00939290      -0.17046975
Ni       2.67604902      -0.03750480       6.77276315        1       1.00000000      -0.00028346      -0.02523895      -0.16625798
Pt       5.25060531      -0.05885485       6.81722365        1       0.00000000      -0.09741220      -0.07827567       0.14630584
Ni       7.89802143      -0.02284560       6.79336749        1       1.00000000      -0.08371946      -0.03101380      -0.20181403
Pt       1.32828726       2.26062521       6.70314415        1       0.00000000      -0.03660832      -0.00936685      -0.23527067
Pt       3.97323503       2.21583656       6.71052097        1       0.00000000      -0.03369364       0.00912326      -0.24522586
Pt       6.61414249       2.21950196       6.65985885        1       0.00000000      -0.01398155      -0.04983340      -0.12177424
Pt       9.20672329       2.27139213       6.80361285        1       0.00000000      -0.00986418       0.00999913       0.10192088
Pt       2.61394330       4.55131671       6.70442059        1       0.00000000       0.00625920       0.00551838      -0.30131620
Pt       5.30856539       4.54337559       6.78027496        1       0.00000000       0.09106784       0.08493156       0.05607932
Pt       7.98693821       4.58371015       6.66071057        1       0.00000000       0.08256253       0.08587545      -0.07953402
Ni      10.50728294       4.55955463       6.78810700        1       1.00000000      -0.07327766       0.06055989      -0.19053785
Pt       3.93684743       6.85989874       6.79743027        1       0.00000000      -0.08045771       0.05538438       0.07644042
Pt       6.68109538       6.85212405       6.73121069        1       0.00000000       0.10943081       0.10514503       0.02882188
Ni       9.22201887       6.81397205       6.77599230        1       1.00000000       0.01473944      -0.02258972      -0.18291944
Pt      11.75922852       6.80656005       6.83521989        1       0.00000000      -0.13770945      -0.06778793       0.06113758
