64
Lattice="10.431156722523774 0.01330961635835664 0.016596845139938202 5.227104827142853 9.021364279699023 -0.01081753285531317 0.0 0.0 21.64718626574478" Properties=species:S:1:pos:R:3:tags:I:1:initial_magmoms:R:1:forces:R:3 unique_id=0be217c4571a4b04a75506ab21c67a64 energy=-381.4871420222571 stress="0.004204938993718887 0.0002974656302691146 0.0003283353524450674 0.0002974656302691146 0.004263463424096401 -6.425866381989591e-05 0.0003283353524450674 -6.425866381989591e-05 -0.003837261379893063" pbc="T T T"
Ni      -0.05342307      -0.00431530       0.11885667        1       1.00000000      -0.15378472      -0.09513221      -0.18201279
Ni       2.62951440      -0.01570657       0.11350731        1       1.00000000       0.09219503      -0.07678110      -0.28398955
Ni       5.23552826      -0.02777861       0.10481320        1       1.00000000       0.10699265       0.07160054      -0.32446247
Ni       7.85028696      -0.03673686       0.07019646        1       1.00000000      -0.01482398      -0.04265494       0.48186076
Ni       1.29698444       2.26441135       0.09739859        1       1.00000000       0.08570633       0.06093176      -0.33791484
Pt       3.85918514       2.30721201       0.09170971        1       0.00000000       0.01018943       0.15780118      -0.74727662
Pt       6.53474618       2.17843652       0.09953172        1       0.00000000      -0.14158504      -0.13348043      -0.58557245
Ni       9.14685437       2.22316036       0.10311590        1       1.00000000      -0.02231558      -0.13628818      -0.13414865
Ni       2.60412263       4.52748468       0.08506433        1       1.00000000      -0.01963342      -0.02268973      -0.20183108
Ni       5.22719502       4.51818594       0.10850841        1       1.00000000       0.15467348      -0.05171841      -0.16720309
Pt       7.90645902       4.54113813       0.01041650        0       0.00000000      -0.04166145       0.03880174       0.10429808
Ni      10.46521029       4.54254893       0.00000000        0       1.00000000       0.05212731       0.06792867       0.27337312
Ni       3.89283038       6.79320957       0.11594698        1       1.00000000      -0.04672869       0.11043439      -0.02121746
Pt       6.50913062       6.81384697       0.14280573        1       0.00000000      -0.04728724       0.03311865      -0.43653291
Ni       9.16318654       6.77923583       0.01768813        0       1.00000000      -0.03279446      -0.01716290       0.31596948
Ni      11.76279166       6.78653822       0.00656401        0       1.00000000       0.12240257       0.03789389       0.33519138
Pt       1.27790176       0.69888056       2.09287698        2       0.00000000      -0.00591223      -0.03262781       0.11987770
Pt       3.97817338       0.76985638       2.18545926        3       0.00000000       0.10759558      -0.06607380       0.22272611
Ni       6.56657083       0.72636893       2.21476279        3       1.00000000       0.12040737      -0.05799501       0.18952346
Ni       9.08314072       0.71552500       2.14514383        2       1.00000000      -0.10082180      -0.06712800       0.02158821
Ni       2.62251772       3.03008467       2.18356218        3       1.00000000       0.00650260       0.04627303       0.28175876
Ni       5.21652984       3.01761494       2.21706606        3       1.00000000       0.05052300       0.04968044       0.32489903
Pt       7.82700520       2.98448776       2.23102610        3       0.00000000      -0.01352556       0.03316344       0.19782330
Pt      10.42324053       3.04333990       2.11632045        2       0.00000000       0.01016106       0.11210719       0.04489966
Pt       3.94975318       5.25142283       2.13107856        2       0.00000000       0.09824805       0.00321782       0.12088021
Ni       6.55980421       5.27466051       2.19038079        3       1.00000000       0.09294943      -0.07939690       0.25722044
Ni       9.11007814       5.29174243       2.22344198        3       1.00000000      -0.10221929      -0.00282956       0.16212185
Pt      11.75734630       5.30307211       2.13781163        2       0.00000000       0.02435791       0.02031003       0.05581542
Ni       5.18705852       7.51627712       2.14805820        2       1.00000000      -0.09454837      -0.02373632       0.15225836
Ni       7.85113554       7.46336556       2.18006415        3       1.00000000       0.08577397      -0.12153017       0.17279704
Pt      10.44521944       7.49328172       2.09632637        2       0.00000000      -0.06720052       0.03232033       0.00708456
Ni      13.06885044       7.55932678       2.13838211        2       1.00000000      -0.02071422       0.06035271      -0.04902699
Pt      -0.07546127       1.54438867       4.32173142        4       0.00000000      -0.03944252       0.06123741      -0.13923881
Pt       2.64793202       1.55524822       4.31475898        4       0.00000000      -0.10532829      -0.03243384      -0.15455365
Ni       5.25865738       1.50573493       4.33856676        4       1.00000000       0.01368237      -0.00393875      -0.33806380
Ni       7.80976261       1.49337899       4.34958934        4       1.00000000      -0.05067448      -0.05111346      -0.25558429
Pt       1.28633032       3.84891176       4.35768852        5       0.00000000      -0.06540296       0.05926442      -0.03147334
Ni       3.93125905       3.76105448       4.33386731        4       1.00000000       0.00682042       0.00136372      -0.29613243
Pt       6.55550869       3.74509416       4.33737330        4       0.00000000      -0.00377813       0.04963535      -0.09880176
Ni       9.12924540       3.83213259       4.39627960        5       1.00000000       0.00151941       0.07676444      -0.20476890
Ni       2.60002859       6.00671617       4.36140236        5       1.00000000       0.00728881       0.01731002      -0.16575908
Pt       5.20944117       5.96813698       4.30265866        4       0.00000000      -0.09883698      -0.05387833      -0.10835296
Ni       7.90137480       5.95369131       4.34805176        4       1.00000000       0.06064485      -0.08475530      -0.26001863
Ni      10.41689864       5.99206305       4.42030228        5       1.00000000      -0.00121097       0.03337909      -0.09166349
Pt       3.88362874       8.26073994       4.26464431        4       0.00000000       0.00564142       0.01439449      -0.12300638
Pt       6.55123722       8.21853751       4.29035710        4       0.00000000      -0.05366711       0.10312992      -0.19502844
Pt       9.16094795       8.17254642       4.36504691        5       0.00000000      -0.01258021      -0.00920694      -0.09090176
Pt      11.76475882       8.25418016       4.34719925        4       0.00000000      -0.04828940      -0.05453010      -0.03193707
Pt      -0.04158939      -0.00635679       6.64587037        7       0.00000000       0.12462461       0.05321676       0.15660994
Pt       2.64645533      -0.04862901       6.64718627        7       0.00000000      -0.02558093      -0.03785982       0.38299040
Pt       5.28213590      -0.11559790       6.64167612        7       0.00000000      -0.05536844       0.16349982       0.13910272
Ni       7.82279042      -0.00303899       6.57696688        7       1.00000000       0.02465865       0.08130703      -0.23135238
Pt       1.28046229       2.29246453       6.63564380        7       0.00000000      -0.01023012      -0.03877681       0.27125750
Pt       3.94370953       2.25491845       6.48605091        6       0.00000000       0.17856060       0.03706567       0.79339393
Pt       6.56619481       2.20254189       6.48384644        6       0.00000000      -0.05369812      -0.14440789       0.67633401
Pt       9.11244135       2.34353724       6.60396387        7       0.00000000      -0.10427220       0.14396185       0.01701399
Pt       2.53934727       4.57168713       6.59703762        7       0.00000000       0.17357822       0.03170701       0.11250163
Pt       5.24978196       4.50853527       6.60613571        7       0.00000000      -0.06829283      -0.02724661       0.27303943
Ni       7.89880253       4.53125997       6.46545808        6       1.00000000       0.02963837       0.04305310       0.06969681
Ni      10.39219925       4.58325445       6.54871521        6       1.00000000      -0.09910515       0.03034428      -0.30202863
Pt       3.83141451       6.80322667       6.61734663        7       0.00000000       0.05429823      -0.13970557      -0.00699005
Pt       6.62521662       6.69914168       6.51791450        6       0.00000000       0.01806644      -0.06549604       0.42439962
Ni       9.19110228       6.68408076       6.54651368        6       1.00000000      -0.03760429      -0.05854883      -0.27074423
Ni      11.70498354       6.74132683       6.55810252        7       1.00000000      -0.06090847      -0.10744640      -0.29071791
