64
Lattice="10.509174365114108 -0.004349224530722391 0.04280847939088964 5.250820643626685 9.125204171564524 0.0025502039743647356 0.03495297705737644 -0.017775755348145482 9.084725092887394" Properties=species:S:1:pos:R:3:tags:I:1:initial_magmoms:R:1:forces:R:3 unique_id=2afd8569bd4f4c7eac00254365ec6c3d stress="-0.0009356477607475253 -4.164430617185406e-06 -3.4554975134083224e-06 -4.164430617185406e-06 -0.0009440903515007884 6.527945668570998e-06 -3.4554975134083224e-06 6.527945668570998e-06 -0.0007210630740286383" energy=-411.4680271332665 pbc="T T T"
Pt      -0.10084611      -0.02434540       0.15789836        4       0.00000000      -0.23361794      -0.02826823       0.11204849
Ni       2.65658315      -0.02956591       0.08109264        4       1.00000000       0.10799297      -0.07165917       0.18379868
Ni       5.26970089      -0.04766953       0.15642553        4       1.00000000       0.10936717      -0.11930631       0.22841170
Ni       7.87330500      -0.03972396       0.13641197        4       1.00000000      -0.13788643      -0.21227450       0.28947739
Pt       1.27031446       2.27654516       0.11311646        4       0.00000000      -0.02183876      -0.04539751       0.10361250
Pt       3.96200644       2.21031868       0.12534572        4       0.00000000       0.03621203      -0.06771257       0.17135535
Pt       6.62305983       2.17448077       0.17120245        4       0.00000000       0.15845501      -0.16238827       0.03325308
Ni       9.18667033       2.27015456       0.17073334        4       1.00000000      -0.07859362      -0.04280039       0.29491512
Pt       2.58381042       4.64490552       0.10714834        4       0.00000000       0.03943446       0.11253311       0.08051267
Pt       5.28622879       4.56781142       0.16414566        4       0.00000000       0.18000358      -0.07352101       0.20670464
Pt       7.98333253       4.57847141       0.17688963        4       0.00000000       0.16730898      -0.05909042       0.08401635
Ni      10.50011088       4.59176453       0.09671192        4       1.00000000       0.04389942       0.15596720       0.13049614
Ni       3.91365395       6.87653014       0.16198552        4       1.00000000      -0.07495406       0.05874423       0.28203104
Pt       6.61949552       6.88808489       0.21462972        4       0.00000000       0.10293453       0.03330190       0.19100879
Ni       9.22428026       6.85512434       0.10257457        4       1.00000000       0.11155772       0.03277997       0.13782363
Ni      11.81080234       6.87527716       0.17255141        4       1.00000000       0.05137047       0.15301090       0.18553749
Pt       1.30996132       0.66598655       2.28159275        3       0.00000000      -0.00826971      -0.02455963      -0.22117666
Pt       4.02028084       0.72224628       2.30825493        3       0.00000000       0.07370306       0.11129699       0.05600625
Ni       6.61115119       0.73789903       2.32458183        3       1.00000000       0.11369936      -0.06050383       0.06560940
Ni       9.14496190       0.72869647       2.30736435        3       1.00000000      -0.24382283       0.02254548      -0.01784308
Pt       2.65849944       3.05047856       2.31064964        3       0.00000000      -0.05539682       0.06713989      -0.13100817
Ni       5.29893948       3.02641086       2.33108614        3       1.00000000       0.06553787      -0.04578939       0.02432246
Pt       7.82926731       3.02429132       2.42265250        3       0.00000000      -0.14881363       0.00810507       0.03263177
Pt      10.42298283       3.06096181       2.29919545        3       0.00000000      -0.14864001       0.05675439      -0.13747972
Pt       3.99816818       5.41210479       2.28918002        3       0.00000000      -0.03592067       0.06468375      -0.15685895
Ni       6.61997683       5.32846214       2.32788819        3       1.00000000       0.22348391       0.00378197       0.06999454
Ni       9.17006404       5.34487869       2.34791493        3       1.00000000      -0.16783118       0.10793790       0.22602562
Pt      11.76032269       5.37106896       2.30725487        3       0.00000000      -0.08126405      -0.00015015      -0.00832868
Ni       5.24683855       7.59616023       2.27628185        3       1.00000000      -0.00442669       0.05378000      -0.00582186
Ni       7.89995868       7.55220325       2.30513919        3       1.00000000       0.12351770      -0.17860695       0.11992912
Pt      10.50029514       7.59000704       2.22800901        3       0.00000000      -0.03579065      -0.02981408       0.00962455
Ni      13.15462345       7.65236562       2.27435924        3       1.00000000      -0.04701913       0.18942553      -0.13780258
Pt      -0.08575089       1.55192468       4.45738724        2       0.00000000      -0.17632272       0.05941099      -0.06961101
Pt       2.67147661       1.47391422       4.51256362        2       0.00000000      -0.01074678      -0.00133696       0.02631455
Ni       5.32051805       1.51863525       4.50083294        2       1.00000000       0.12364203       0.02723745      -0.23419696
Ni       7.86745794       1.53723021       4.51681402        2       1.00000000      -0.09845140       0.04235325      -0.12541171
Pt       1.22174488       3.85180153       4.51978734        2       0.00000000      -0.10583840       0.05651253       0.01404657
Pt       4.04778975       3.74978448       4.46436811        2       0.00000000       0.12269843      -0.00426370       0.00686679
Ni       6.63101827       3.77022007       4.51292594        2       1.00000000       0.09979613       0.00722949      -0.00796773
Ni       9.16970677       3.83176509       4.53087918        2       1.00000000      -0.15282044       0.14508257      -0.16632718
Pt       2.60503326       6.10976042       4.47642220        2       0.00000000      -0.05644819       0.08989415       0.03135475
Pt       5.36808552       6.04599878       4.44793052        2       0.00000000       0.18283178      -0.06413533       0.06211131
Ni       7.94449430       6.02803601       4.49676926        2       1.00000000       0.13146697      -0.18321513      -0.29699086
Ni      10.46331453       6.05487847       4.57102940        2       1.00000000      -0.16404215      -0.04653899      -0.01701466
Pt       3.92251312       8.39001198       4.41992433        2       0.00000000       0.04209051      -0.02385306      -0.18212900
Pt       6.61263731       8.31411425       4.47187925        2       0.00000000      -0.02334922      -0.09161374      -0.00253973
Pt       9.22298751       8.26097041       4.55369137        2       0.00000000      -0.01001378      -0.16123297      -0.00554472
Pt      11.82682506       8.43194367       4.49732733        2       0.00000000      -0.02779901       0.08538453      -0.07452976
Pt       0.01992601      -0.00906947       6.72313713        1       0.00000000      -0.02733107      -0.00809841      -0.17209792
Ni       2.66889884      -0.03441184       6.77456767        1       1.00000000       0.00552255      -0.01420029      -0.13578319
Pt       5.24414316      -0.05531558       6.81885592        1       0.00000000      -0.07240544      -0.06520999       0.13797939
Ni       7.89365749      -0.01696839       6.78556428        1       1.00000000      -0.06501621      -0.03637353      -0.16898908
Pt       1.32087574       2.26386848       6.70893491        1       0.00000000      -0.01363932      -0.00185569      -0.21320138
Pt       3.96857092       2.21849427       6.70797764        1       0.00000000      -0.01875246       0.01929087      -0.24951548
Pt       6.61333391       2.22132697       6.65319254        1       0.00000000      -0.00297046      -0.05714115      -0.12449474
Pt       9.20687259       2.28025662       6.79676721        1       0.00000000       0.00740873      -0.00148629       0.09675573
Pt       2.60838016       4.55776114       6.70429297        1       0.00000000       0.03948912      -0.01425513      -0.25614506
Pt       5.31337686       4.55023626       6.70642807        1       0.00000000       0.08681726       0.07297844      -0.14071104
Pt       7.99318064       4.59503072       6.65299589        1       0.00000000       0.07507453       0.06332798      -0.08066858
Ni      10.50806743       4.57214402       6.77656219        1       1.00000000      -0.04027378       0.04045494      -0.15842216
Pt       3.93120212       6.87096831       6.79832421        1       0.00000000      -0.05689407       0.04534804       0.08984691
Pt       6.68684303       6.86506269       6.73009453        1       0.00000000       0.08894274       0.09639721      -0.00462818
Ni       9.22475486       6.82427791       6.76683322        1       1.00000000       0.02203897      -0.02309617      -0.15416450
Pt      11.76129791       6.81768031       6.82688286        1       0.00000000      -0.08909690      -0.06294177       0.07298154
