64
Lattice="10.308958446884194 -0.012646081935606767 0.023784316115968915 5.143527395227518 8.826063043039484 0.018062153006425854 0.01941981278839279 0.005817127023906172 8.777098362455481" Properties=species:S:1:pos:R:3:tags:I:1:initial_magmoms:R:1:forces:R:3 unique_id=f064bbfef383431c83fc8194f862b7e6 stress="0.00017880934640965296 2.6789021104422182e-06 -1.3251376508735826e-05 2.6789021104422182e-06 0.00018605369449008896 8.11226889047276e-06 -1.3251376508735826e-05 8.11226889047276e-06 0.0001840350718353978" energy=-396.2349909441123 pbc="T T T"
Ni       0.00181907       0.02759420       0.18094688        4       1.00000000       0.05150262       0.10118437       0.27046438
Ni       2.57570521       0.00852331       0.21121652        4       1.00000000       0.01592947       0.03712499       0.39481358
Ni       5.15346858      -0.01548429       0.16910782        4       1.00000000      -0.03900680       0.11997008       0.24764801
Ni       7.73868542      -0.04832587       0.20311292        4       1.00000000      -0.01906403      -0.10307105       0.37115935
Ni       1.25552761       2.21495580       0.10847068        4       1.00000000      -0.11545890       0.03089425       0.17946510
Pt       3.79670714       2.21325468       0.11203530        4       0.00000000      -0.07579429       0.08227536      -0.15995260
Pt       6.46445207       2.15361258       0.12301131        4       0.00000000       0.08124183      -0.04454368      -0.08874569
Ni       9.06349627       2.20157513       0.16510524        4       1.00000000       0.13483702       0.04976495       0.12031820
Ni       2.54968747       4.43394974       0.05717663        4       1.00000000      -0.05762144       0.03875333      -0.11351305
Ni       5.14399478       4.42011158       0.17451304        4       1.00000000       0.19317156      -0.06113569       0.22717577
Pt       7.80692463       4.42106359       0.12238424        4       0.00000000       0.15045418       0.01749894      -0.13294892
Ni      10.33519752       4.39844545       0.09807324        4       1.00000000       0.10000768      -0.04611755       0.07579161
Ni       3.82250766       6.64136831       0.10016705        4       1.00000000      -0.06786361       0.10440140       0.09840093
Pt       6.41275783       6.66970353       0.21499036        4       0.00000000      -0.05666984       0.03000739       0.19775224
Ni       9.03767149       6.63190734       0.10293383        4       1.00000000       0.00650160       0.05271298       0.02106926
Ni      11.60749131       6.61389467       0.09070485        4       1.00000000       0.08672125       0.00010672      -0.00307223
Ni       1.31781918       0.77834326       2.17833863        3       1.00000000       0.03432468       0.21636726      -0.02168897
Ni       3.84352151       0.77246849       2.22318933        3       1.00000000      -0.04202152       0.14090845       0.11022151
Ni       6.43959626       0.76016801       2.23868822        3       1.00000000      -0.03845925       0.12977290       0.13841712
Pt       9.03217781       0.77441268       2.19982920        3       0.00000000      -0.01525432       0.12552815       0.16437598
Ni       2.55922990       2.89151791       2.25411889        3       1.00000000      -0.06390948      -0.09215783       0.14687456
Ni       5.15467813       2.90563051       2.24823324        3       1.00000000      -0.07645071      -0.12443657       0.03714398
Ni       7.74825985       2.94890358       2.25390159        3       1.00000000       0.09852062       0.05110710      -0.04678711
Ni      10.31462122       2.92147233       2.23463460        3       1.00000000       0.03250277       0.00821250       0.06903543
Pt       3.87517385       5.12212281       2.17097730        3       0.00000000      -0.06001509      -0.10817058      -0.01348095
Ni       6.48028370       5.12870084       2.23969997        3       1.00000000       0.11244439      -0.01383852      -0.02966735
Ni       8.99228948       5.11944370       2.25698384        3       1.00000000      -0.03659578      -0.07943862       0.14320435
Pt      11.57720061       5.06934607       2.19918350        3       0.00000000      -0.01624806      -0.12047386       0.03412144
Ni       5.14263261       7.37552022       2.21300159        3       1.00000000      -0.10272469       0.00843236      -0.03459746
Ni       7.72842982       7.35647806       2.22345860        3       1.00000000       0.01462475      -0.05827094      -0.00657705
Pt      10.27739600       7.36470877       2.14263990        3       0.00000000       0.00539139      -0.09865968      -0.04699560
Ni      12.88875839       7.34532739       2.19770047        3       1.00000000      -0.01102785      -0.09692228      -0.00797717
Ni       0.03433322       1.55891795       4.34267966        2       1.00000000       0.09419049       0.18249824      -0.09628874
Ni       2.58242500       1.55749458       4.34519673        2       1.00000000      -0.04193807       0.05798445      -0.15236884
Ni       5.13216916       1.51185501       4.35479080        2       1.00000000      -0.10970165       0.02808197      -0.14503465
Ni       7.75491231       1.49246172       4.36260821        2       1.00000000       0.09057671      -0.04984211      -0.06306909
Ni       1.31948234       3.63139203       4.39216555        2       1.00000000       0.03827741      -0.06288233      -0.11033443
Ni       3.81357247       3.62780047       4.36836825        2       1.00000000      -0.08688602      -0.04336608      -0.20120231
Pt       6.49400321       3.61316342       4.32319148        2       0.00000000      -0.03476472      -0.04254415      -0.02922843
Ni       9.03961011       3.64712132       4.34557644        2       1.00000000       0.06653969      -0.13938180      -0.29590787
Ni       2.56277390       5.82810729       4.41642702        2       1.00000000      -0.03857715      -0.15460480      -0.03652323
Pt       5.13332384       5.83292138       4.33278397        2       0.00000000       0.04721230      -0.06214530       0.07403437
Ni       7.76091484       5.84065816       4.35247258        2       1.00000000       0.01548278      -0.02857388      -0.21462028
Pt      10.30299853       5.77328863       4.45621598        2       0.00000000      -0.00067111      -0.07047131      -0.02577019
Pt       3.85506174       8.10649731       4.33778300        2       0.00000000      -0.06356714      -0.03555175       0.13993813
Pt       6.45110086       8.16566751       4.25659944        2       0.00000000       0.00143478       0.13035751       0.03838525
Pt       9.00233416       8.12496142       4.33653854        2       0.00000000      -0.11439715       0.09353951       0.10828931
Pt      11.60307796       8.10662492       4.33238549        2       0.00000000       0.06704874       0.03751444       0.05301096
Pt       0.01937337       0.02652227       6.57023845        1       0.00000000      -0.01574213       0.02847368       0.12945158
Pt       2.59952709       0.07883676       6.57810109        1       0.00000000      -0.03173751       0.11530409       0.20402800
Pt       5.16454093       0.00671893       6.57413683        1       0.00000000      -0.02245501      -0.02278194       0.05672882
Pt       7.72863455      -0.03606951       6.60886334        1       0.00000000      -0.01679652      -0.07756601       0.19224429
Ni       1.32200192       2.28712654       6.48488226        1       1.00000000       0.02070067       0.20825435      -0.19385243
Ni       3.84125027       2.23459142       6.41772920        1       1.00000000      -0.16338311       0.01498182      -0.33707004
Ni       6.45330449       2.20814483       6.44648938        1       1.00000000       0.02932495      -0.04134702      -0.26565182
Pt       9.04524295       2.30325070       6.50872919        1       0.00000000       0.02468776       0.07755614      -0.00028379
Ni       2.54106664       4.40795923       6.49041258        1       1.00000000      -0.13849870      -0.04360071      -0.27782524
Pt       5.08938273       4.33403963       6.56633835        1       0.00000000      -0.10315081      -0.06076907       0.09256278
Ni       7.77133982       4.41539936       6.44560744        1       1.00000000       0.05322124       0.04856158      -0.32300565
Ni      10.35121617       4.41393266       6.54910492        1       1.00000000       0.14029435      -0.00462963      -0.03053158
Ni       3.82064315       6.57461922       6.53160033        1       1.00000000      -0.10378437      -0.15246782      -0.14058965
Pt       6.50142900       6.56428486       6.49115962        1       0.00000000       0.05260468      -0.02950586      -0.25365979
Ni       9.05755235       6.56244103       6.54569165        1       1.00000000       0.07255835      -0.07747620      -0.11434091
Ni      11.61308385       6.54442486       6.55352802        1       1.00000000       0.04790609      -0.12138666      -0.12296315
