64
Lattice="10.286940398897599 -0.0050174727045473756 0.00780487528293314 5.1391249406238675 8.841271259948886 -0.05605998168891155 0.0 0.0 21.55968889704558" Properties=species:S:1:pos:R:3:tags:I:1:initial_magmoms:R:1:forces:R:3 unique_id=bd22813271c44277af8a98baaf2578c2 stress="0.005394233113387176 4.222689092677516e-05 0.00011022830047366758 4.222689092677516e-05 0.004709886734970111 -0.0001405016034790936 0.00011022830047366758 -0.0001405016034790936 -0.0016267085564884414" energy=-373.6706388810689 pbc="T T T"
Ni       0.03620588      -0.04453035       0.14638946        1       1.00000000       0.14031807      -0.01734346      -0.07692349
Ni       2.51679214      -0.03236028       0.16437350        2       1.00000000      -0.03765387      -0.00442047      -0.00843436
Pt       5.13456915      -0.05123566       0.10949208        1       0.00000000      -0.11133599       0.12141051      -1.12452650
Ni       7.73592638      -0.05725054       0.15546552        2       1.00000000      -0.05308973      -0.02182505      -0.28190520
Ni       1.27905418       2.21254802       0.05956887        1       1.00000000      -0.02587907       0.00989415       0.40665657
Pt       3.75442508       2.22267875       0.14117005        1       0.00000000       0.05113506       0.00324039      -0.47760621
Pt       6.46120167       2.22671239       0.05835201        1       0.00000000      -0.03027872      -0.00118122      -0.18676103
Pt       9.08063004       2.24702538       0.08007556        1       0.00000000       0.07357680       0.07897638      -0.51552151
Ni       2.53914416       4.44789293       0.00000000        0       1.00000000       0.03414991       0.02778263       0.22624387
Pt       5.13324811       4.52934983       0.03242275        0       0.00000000      -0.07913885       0.07174575       0.03248863
Ni       7.72180685       4.46410862       0.01221083        0       1.00000000      -0.00281296       0.04436964       0.13689361
Ni      10.31580541       4.43863857       0.00235357        0       1.00000000       0.08180103       0.04578105       0.25467187
Ni       3.83446108       6.66206388       0.02540921        0       1.00000000       0.00640154       0.08346616       0.37150920
Ni       6.43785153       6.66661579       0.03810975        0       1.00000000      -0.00402713       0.09309293       0.37396594
Ni       8.96235361       6.59317817       0.07589470        1       1.00000000      -0.13459978       0.03298252      -0.21795900
Ni      11.60644447       6.58882677       0.00000730        0       1.00000000       0.04851761       0.02307111       0.22834108
Ni       1.31498392       0.72815204       2.18413503        4       1.00000000       0.01941237       0.06934529       0.22028565
Ni       3.79135254       0.73644115       2.19053614        4       1.00000000      -0.21783589      -0.03215060       0.14221973
Ni       6.45224723       0.74671371       2.19006882        4       1.00000000       0.05542915       0.03324824       0.16760276
Pt       9.03093257       0.71768468       2.19541301        4       0.00000000       0.10793722       0.09364722       0.00189137
Ni       2.55381761       2.90469353       2.22990675        4       1.00000000       0.01949712      -0.15444415       0.28549021
Ni       5.12864521       2.96547736       2.18011750        4       1.00000000      -0.05756314       0.13990994       0.11846097
Ni       7.69923621       2.92552242       2.19969226        4       1.00000000      -0.05602226      -0.12219516       0.12910449
Ni      10.33710831       2.90733731       2.21728691        4       1.00000000       0.14237425      -0.13697113       0.27449308
Ni       3.86888719       5.14466784       2.15805222        4       1.00000000       0.03250641      -0.06199121       0.12535064
Ni       6.41519562       5.16682043       2.13931243        3       1.00000000      -0.01415720       0.02801845       0.04244736
Pt       8.93359936       5.08334218       2.16004163        4       0.00000000      -0.04278219      -0.23423802       0.04262070
Pt      11.64527974       5.07537702       2.16355051        4       0.00000000       0.07834308      -0.17486128       0.10931398
Ni       5.17547641       7.32670852       2.09046253        3       1.00000000       0.04458981      -0.08139076      -0.01340874
Ni       7.63600729       7.36642916       2.09777764        3       1.00000000      -0.18833136      -0.01304534       0.08961784
Pt      10.28220151       7.31594173       2.13143310        3       0.00000000       0.02510511      -0.06384228      -0.13996264
Ni      12.89786311       7.32003447       2.08580099        3       1.00000000       0.12994727      -0.09896300       0.01506173
Ni       0.06204255       1.49329333       4.29899029        6       1.00000000       0.16861737       0.07106000      -0.18221401
Ni       2.50230836       1.48935174       4.27815017        6       1.00000000      -0.11613525       0.05337996      -0.20403431
Pt       5.12084058       1.48762356       4.21688769        5       0.00000000      -0.12415472      -0.00607718      -0.20934182
Ni       7.73942775       1.46540572       4.30825679        6       1.00000000       0.04340870      -0.07591693      -0.26800601
Ni       1.28914540       3.64282922       4.33717523        6       1.00000000       0.02416501      -0.07147999      -0.02961726
Ni       3.79276977       3.69129295       4.27155963        6       1.00000000      -0.14888546       0.01418854      -0.29956314
Pt       6.51139067       3.66977964       4.30096478        6       0.00000000       0.08969643      -0.06589204      -0.14250630
Ni       9.05245824       3.67551395       4.29255792        6       1.00000000       0.19975979       0.00253653      -0.16350661
Ni       2.56429315       5.79772402       4.33400109        6       1.00000000       0.02377788      -0.15393249      -0.04542324
Pt       5.14745324       5.85201089       4.29111347        6       0.00000000       0.06645685      -0.02421018      -0.10425626
Ni       7.71315916       5.84841604       4.30273965        6       1.00000000      -0.01978730       0.01637197      -0.13212700
Ni      10.30441350       5.78294325       4.33449947        6       1.00000000       0.04979588      -0.12693522      -0.04608818
Pt       3.90397455       8.07848508       4.23747790        5       0.00000000       0.04590557       0.08420400      -0.02436757
Ni       6.42293161       8.08982606       4.23274367        5       1.00000000      -0.08504058       0.09131224      -0.29144424
Pt       8.88970876       8.04400305       4.21355724        5       0.00000000      -0.13736948       0.04827101      -0.09049826
Pt      11.60726716       7.99865634       4.24151196        5       0.00000000       0.00529350      -0.10471709      -0.01466307
Pt       0.01926689      -0.07148851       6.52973834        8       0.00000000       0.01123909       0.12747728       0.24267047
Pt       2.54709796      -0.03362826       6.52319196        8       0.00000000       0.03840160       0.12196740       0.23116931
Pt       5.15057417      -0.04215737       6.45180476        8       0.00000000      -0.07847035       0.08196538       1.16090532
Pt       7.72654643      -0.07753108       6.55968890        9       0.00000000      -0.03388832       0.18338734       0.42576021
Ni       1.28257704       2.23402735       6.43896790        7       1.00000000       0.00592278       0.10354250      -0.29540384
Pt       3.81853450       2.30235655       6.40763536        7       0.00000000      -0.08991441       0.11199529       0.43644186
Ni       6.43884929       2.21222984       6.40551466        7       1.00000000      -0.01054029      -0.00694085       0.16981087
Pt       9.02450470       2.26999847       6.35894736        7       0.00000000      -0.01472788      -0.09880557       0.48868231
Ni       2.53669452       4.42791317       6.42571646        7       1.00000000       0.01587412       0.02137792      -0.37489803
Ni       5.15394120       4.41726596       6.39378907        7       1.00000000      -0.06406235       0.00267999       0.08550187
Ni       7.68218975       4.38046328       6.45806681        8       1.00000000      -0.07385625      -0.03430095      -0.12964194
Ni      10.35127237       4.37877816       6.43390614        7       1.00000000       0.13288653      -0.02418448      -0.32989642
Ni       3.84522868       6.52413344       6.45522584        8       1.00000000      -0.05896697      -0.11390928      -0.25541588
Ni       6.41680612       6.53836247       6.45045000        8       1.00000000       0.02003514      -0.00000558      -0.21070632
Pt       9.00124083       6.45522729       6.46749531        8       0.00000000       0.09442968      -0.02165074       0.06145654
Ni      11.60334914       6.50966983       6.44680503        7       1.00000000      -0.01540000       0.01212200      -0.21050163
