64
Lattice="10.336728521371198 -0.01496240483887938 0.016992671802918736 5.155406437993423 8.891352507382722 -0.05854632858245081 0.013874458427910123 -0.06320843024718278 8.85738551395692" Properties=species:S:1:pos:R:3:tags:I:1:initial_magmoms:R:1:forces:R:3 unique_id=58a60604cef8404ba31f3f76daa6fc27 stress="0.002688007525393145 5.659275059392209e-06 -1.2605766278466527e-05 5.659275059392209e-06 0.002668109930744525 -1.4062348686322242e-05 -1.2605766278466527e-05 -1.4062348686322242e-05 0.0022690014688849236" energy=-399.0207932915606 pbc="T T T"
Ni       0.05101648       0.00120858       0.19432481        4       1.00000000       0.04725510       0.02608665       0.18938816
Ni       2.53245055       0.00696251       0.23142847        4       1.00000000      -0.05264343       0.03517326       0.24148199
Pt       5.08745397      -0.05876583       0.14236301        4       0.00000000      -0.03456983       0.03929096      -0.15028243
Pt       7.80273867      -0.14023509       0.18852000        4       0.00000000       0.00787253      -0.07777809      -0.01013339
Ni       1.29717990       2.22778928       0.10567135        4       1.00000000       0.00262405       0.03063963       0.16203040
Pt       3.77328906       2.28050376       0.08937225        4       0.00000000      -0.00145141       0.00241377      -0.13266688
Pt       6.43409473       2.27214462       0.15663756        4       0.00000000      -0.00054304       0.04318797      -0.04418707
Pt       9.15056396       2.23042407       0.14316760        4       0.00000000       0.02137206       0.01004387      -0.05046387
Ni       2.57620605       4.47210547       0.02372983        4       1.00000000       0.03160268       0.00361826      -0.09586253
Ni       5.10857089       4.47842594       0.09362636        4       1.00000000      -0.02691495       0.01702223       0.10480808
Pt       7.79216566       4.50138295       0.08034168        4       0.00000000       0.04389235      -0.00247756      -0.13546349
Ni      10.39100917       4.45133276       0.06668645        4       1.00000000       0.05902871      -0.02646743       0.06941068
Ni       3.85279645       6.58780384       0.07409199        4       1.00000000      -0.03831730      -0.12462021       0.11775974
Pt       6.39899574       6.70563876       0.14189644        4       0.00000000      -0.03785408      -0.00885159      -0.12565556
Ni       9.03187163       6.62953110       0.14562468        4       1.00000000      -0.08608038      -0.01980201       0.14499085
Ni      11.63431047       6.57723927       0.04514427        4       1.00000000       0.02703709      -0.07621790      -0.00304180
Ni       1.33132757       0.72301136       2.22045502        3       1.00000000       0.00268639       0.01465830       0.12748166
Ni       3.81843417       0.75866187       2.24098635        3       1.00000000      -0.00341082       0.03482895       0.04107086
Pt       6.43738177       0.80894124       2.32949875        3       0.00000000      -0.03656172       0.04239047       0.11510535
Pt       9.14616086       0.73661784       2.31253334        3       0.00000000      -0.00874595      -0.00953316       0.14598681
Ni       2.58545304       2.93647521       2.23391227        3       1.00000000       0.03789277      -0.02815112       0.02314413
Ni       5.09368846       3.01631020       2.25109024        3       1.00000000      -0.14119148       0.05950821      -0.00775689
Ni       7.79122472       3.00299500       2.26542796        3       1.00000000       0.06323660       0.03181248      -0.03827287
Ni      10.38184196       2.94396126       2.28809838        3       1.00000000       0.09902647      -0.02795850       0.10210550
Ni       3.91527807       5.16049736       2.20347998        3       1.00000000       0.05604053      -0.02511756       0.05156170
Ni       6.43319725       5.18462121       2.22554326        3       1.00000000      -0.01570738       0.02368222      -0.06246071
Ni       9.00446595       5.11298322       2.24022045        3       1.00000000      -0.00032587      -0.06956242       0.06361078
Pt      11.70278882       5.07063154       2.17323036        3       0.00000000       0.05772388      -0.02020805       0.04407059
Ni       5.17860202       7.35049090       2.21136507        3       1.00000000      -0.00945046      -0.03653021       0.05220649
Ni       7.68073138       7.38487931       2.20253725        3       1.00000000      -0.07081697      -0.04558209       0.05076935
Pt      10.28772629       7.30347000       2.15933300        3       0.00000000       0.05991473      -0.07201504       0.11957951
Ni      12.96933761       7.29711440       2.19453037        3       1.00000000       0.10130509      -0.13218007       0.08701971
Ni       0.03352312       1.49989170       4.36775859        2       1.00000000       0.04725992       0.01900261       0.00334498
Pt       2.54889275       1.54265303       4.33837157        2       0.00000000      -0.01231036      -0.04811273       0.03242276
Ni       5.12592047       1.50600802       4.37574576        2       1.00000000      -0.10575111       0.07953955      -0.06711893
Ni       7.78625849       1.48421676       4.39660154        2       1.00000000       0.01447265      -0.00807421      -0.00854680
Ni       1.30677741       3.66490022       4.40234343        2       1.00000000       0.03339761      -0.00683714      -0.03351648
Ni       3.86223078       3.72393890       4.37857190        2       1.00000000      -0.04392301       0.03756650      -0.12441932
Pt       6.44152530       3.72386340       4.28898098        2       0.00000000      -0.02264342       0.00448545      -0.12965884
Ni       9.04127225       3.64322011       4.31903809        2       1.00000000      -0.02695111      -0.06207472      -0.18624599
Ni       2.63197418       5.81708430       4.38905222        2       1.00000000       0.02172922      -0.10220759      -0.07291975
Ni       5.13890842       5.85018701       4.30446187        2       1.00000000       0.00250770      -0.07379127      -0.16181479
Ni       7.72585771       5.86983536       4.30341482        2       1.00000000      -0.03665059      -0.00356881      -0.15360693
Pt      10.34312822       5.75279750       4.38897334        2       0.00000000      -0.05991152      -0.01903727      -0.01681928
Pt       3.95535431       8.02969000       4.30431213        2       0.00000000       0.05320430      -0.03514857       0.04457606
Ni       6.44611651       8.09546691       4.28607341        2       1.00000000      -0.02655152      -0.00286179      -0.06544663
Pt       8.94233734       8.10414815       4.28109126        2       0.00000000      -0.02301266      -0.05133577       0.00568897
Pt      11.65944974       8.05794748       4.31566943        2       0.00000000       0.01930581      -0.10131080      -0.11758483
Pt       0.02494311      -0.02097032       6.60094249        1       0.00000000       0.00127782       0.07728447       0.14612451
Pt       2.58047712       0.03610117       6.64421650        1       0.00000000       0.02231052       0.07525270       0.22697314
Pt       5.16528031      -0.03095915       6.49603815        1       0.00000000      -0.01924350       0.07052071       0.04212514
Pt       7.77698400      -0.11033649       6.53862911        1       0.00000000       0.00638610       0.07197719       0.15030039
Ni       1.33037178       2.27716587       6.53319546        1       1.00000000       0.05835687       0.13211545      -0.02217382
Ni       3.84523798       2.27515920       6.46154468        1       1.00000000      -0.05197010       0.15270342      -0.14055178
Pt       6.41672889       2.27222486       6.46942931        1       0.00000000      -0.04255725       0.05982633       0.06365681
Pt       9.11479169       2.28559376       6.44128522        1       0.00000000       0.03422877       0.10372123      -0.00081252
Ni       2.59094168       4.41289384       6.49624123        1       1.00000000       0.00297351       0.01464841      -0.17098197
Ni       5.07994075       4.40768685       6.51346175        1       1.00000000      -0.18529446       0.04881197      -0.09138677
Ni       7.75650386       4.40045729       6.44270331        1       1.00000000       0.00434710       0.06178973      -0.22091956
Ni      10.43155400       4.38487480       6.54470515        1       1.00000000       0.18102441       0.02333065      -0.01797566
Ni       3.83852486       6.53630825       6.50269963        1       1.00000000      -0.04594730      -0.07529406      -0.04908052
Pt       6.39838452       6.52780297       6.41451885        1       0.00000000      -0.03726774       0.01318550      -0.13823617
Pt       9.07462064       6.51701008       6.59406851        1       0.00000000       0.00581657      -0.00010789       0.14357075
Ni      11.67868628       6.52975443       6.53677076        1       1.00000000       0.07746077      -0.06730344      -0.06630097
