64
Lattice="10.36617683974694 -0.0010515726154176593 0.02874761067680301 5.182177731274595 8.899318119337758 -0.0026829717858480344 0.023472325827451148 -0.016081283692992412 8.859946076615401" Properties=species:S:1:pos:R:3:tags:I:1:initial_magmoms:R:1:forces:R:3 unique_id=53842d85c1ac44a2b9b5074f37f93d7e stress="0.00034839435997664064 -2.541215029241885e-06 3.900630436424134e-06 -2.541215029241885e-06 0.00035053797512508283 1.615250473572925e-05 3.900630436424134e-06 1.615250473572925e-05 0.000322342258961425" energy=-400.65180675299285 pbc="T T T"
Ni       0.01202830      -0.00024972       0.18260428        4       1.00000000       0.05286794       0.04140365       0.37019433
Ni       2.59233060       0.00420149       0.11523607        4       1.00000000       0.01101681       0.01545895       0.26730377
Ni       5.17757957      -0.02610246       0.16197311        4       1.00000000      -0.02615036       0.03166875       0.23295820
Ni       7.77515186      -0.06239328       0.20273554        4       1.00000000       0.01038005      -0.13474837       0.40925190
Ni       1.30294678       2.22194323       0.17258881        4       1.00000000       0.03229088      -0.00028714       0.29884925
Pt       3.80167184       2.17027324       0.11880593        4       0.00000000      -0.03076773      -0.00297430      -0.08949652
Pt       6.47903183       2.13439318       0.12112123        4       0.00000000       0.06110104      -0.13050868      -0.06036662
Pt       9.16322174       2.21932919       0.14308066        4       0.00000000       0.14824854      -0.00975189       0.07601354
Ni       2.55825460       4.46608975       0.12661761        4       1.00000000      -0.00488516      -0.03101140       0.13168416
Pt       5.14732578       4.46858848       0.14593204        4       0.00000000      -0.05057887       0.01294563       0.26655419
Pt       7.82631296       4.48994756       0.04737268        4       0.00000000       0.13146728       0.08365896      -0.18539431
Ni      10.41436532       4.47581214       0.08738730        4       1.00000000       0.13118435       0.07638110       0.11451311
Ni       3.84143372       6.71602965       0.09489440        4       1.00000000      -0.07002192       0.07546155       0.22097443
Pt       6.48760232       6.77761574       0.19969982        4       0.00000000      -0.00309379       0.03292821       0.18188356
Ni       9.10428790       6.70914484       0.07861909        4       1.00000000       0.05739006       0.07626819       0.07539877
Ni      11.67885167       6.67832561       0.08482341        4       1.00000000       0.11216891      -0.02087616       0.06364434
Ni       1.33386916       0.76297326       2.20661546        3       1.00000000       0.09820970       0.13151284      -0.05125927
Ni       3.86190541       0.76980939       2.25410689        3       1.00000000      -0.08595698       0.10693642       0.14124640
Ni       6.47934411       0.76505572       2.26354106        3       1.00000000      -0.04031647       0.11334432       0.15834172
Pt       9.08339040       0.73835273       2.27903099        3       0.00000000       0.02072450       0.21355475      -0.03153772
Ni       2.58458957       2.90908508       2.26676296        3       1.00000000      -0.01821032      -0.09991973       0.18409795
Ni       5.17778826       2.91419364       2.28507408        3       1.00000000      -0.16092704      -0.13507505       0.03095697
Ni       7.76207736       2.94094325       2.27421347        3       1.00000000       0.05684476      -0.09444616      -0.16024563
Ni      10.41452281       2.93229385       2.29302585        3       1.00000000       0.09109593      -0.10521060       0.15828179
Pt       3.87535092       5.18755856       2.26853939        3       0.00000000      -0.01319360      -0.14199481      -0.07649170
Ni       6.49297878       5.18604263       2.25768201        3       1.00000000       0.00290043       0.00802728      -0.06740857
Pt       9.03143645       5.15679351       2.28923598        3       0.00000000      -0.16408113      -0.09994596      -0.08310483
Pt      11.66840297       5.13147259       2.22820671        3       0.00000000      -0.06451244      -0.07361933       0.08481822
Ni       5.18816739       7.42845273       2.21828685        3       1.00000000      -0.06412651       0.00343487       0.02893251
Ni       7.77413824       7.45528774       2.23730661        3       1.00000000       0.06109471       0.10836172       0.00668137
Pt      10.36752448       7.46937642       2.15210608        3       0.00000000       0.00138180      -0.03502158      -0.02241566
Ni      12.96783921       7.41655188       2.21316286        3       1.00000000      -0.03613232      -0.04494174       0.01692847
Ni       0.03241234       1.54088291       4.36236361        2       1.00000000       0.09438850       0.17443288      -0.13744833
Ni       2.61930036       1.53593341       4.37625758        2       1.00000000       0.02926789       0.12372445      -0.23384734
Ni       5.16710796       1.51451229       4.39515823        2       1.00000000      -0.10290674       0.04386074      -0.17211706
Ni       7.78525503       1.49520384       4.39461165        2       1.00000000       0.03474316      -0.07224244      -0.12782824
Ni       1.31985817       3.65530169       4.37358160        2       1.00000000       0.05564470      -0.11939773      -0.17261090
Ni       3.85718965       3.64044810       4.38603425        2       1.00000000      -0.07844990      -0.09961158      -0.15029965
Pt       6.54149793       3.62813810       4.34083643        2       0.00000000      -0.03914189      -0.01575879      -0.10903532
Ni       9.09357280       3.67946640       4.39280723        2       1.00000000       0.08503537      -0.16412153      -0.24933024
Ni       2.59231650       5.89612111       4.41452424        2       1.00000000      -0.04414666      -0.02489073      -0.05066928
Pt       5.19293979       5.89828686       4.36662908        2       0.00000000       0.16522270      -0.05168975       0.15115741
Ni       7.80110666       5.89400836       4.41080334        2       1.00000000      -0.00706263       0.02082348      -0.11123173
Pt      10.37894717       5.84352463       4.51886876        2       0.00000000       0.04630902      -0.02198003       0.07411588
Pt       3.88923251       8.15956442       4.37151097        2       0.00000000      -0.08521505      -0.02361160       0.19133306
Pt       6.50806929       8.23305064       4.30487496        2       0.00000000      -0.03430321       0.16661199       0.00090463
Pt       9.05452808       8.19789578       4.39291513        2       0.00000000      -0.07749019       0.06712223      -0.02279543
Pt      11.67114013       8.18365569       4.36800449        2       0.00000000       0.04299176       0.10131064       0.03194401
Pt       0.03450090      -0.02863255       6.63373630        1       0.00000000       0.00476198      -0.04508701       0.21387070
Ni       2.62390140      -0.00989140       6.59232040        1       1.00000000      -0.05436866       0.02264845      -0.10863037
Pt       5.13131425       0.00144623       6.64185631        1       0.00000000      -0.13535477       0.03697385       0.11170568
Pt       7.75322144      -0.04570124       6.66679462        1       0.00000000      -0.10891526      -0.04583981       0.24169484
Pt       1.36041480       2.21508961       6.54003816        1       0.00000000       0.03036999       0.02891210       0.05536982
Ni       3.90048716       2.19850033       6.48439891        1       1.00000000      -0.07249179       0.01103891      -0.30126428
Ni       6.48827618       2.20395197       6.50642428        1       1.00000000      -0.01596635      -0.11103396      -0.28736124
Pt       9.05012747       2.29513729       6.47240874        1       0.00000000      -0.04445223       0.01114751      -0.29607030
Pt       2.56699100       4.49981200       6.54935117        1       0.00000000      -0.08766470       0.09805747       0.00523087
Pt       5.19907233       4.36118155       6.52133844        1       0.00000000       0.02821076      -0.12203946      -0.31169307
Ni       7.82003824       4.44843268       6.48291507        1       1.00000000       0.07692705       0.02368684      -0.48230478
Ni      10.36011735       4.46303738       6.59961852        1       1.00000000      -0.06761812      -0.02714155      -0.02916509
Ni       3.88289076       6.65196587       6.57918760        1       1.00000000       0.04178584      -0.00362729      -0.11118647
Pt       6.58784812       6.64032954       6.53640264        1       0.00000000       0.11154122       0.01580592      -0.13780176
Ni       9.10548811       6.62854494       6.59814845        1       1.00000000       0.08359438      -0.06744929      -0.08146471
Ni      11.65767024       6.64332873       6.60841490        1       1.00000000      -0.12265920       0.09835075      -0.08495946
