64
Lattice="10.112749509664463 0.035387570115405935 -0.07506459966530428 5.087021289530375 8.778242922623019 -0.009019960496030028 -0.061289988975429324 0.026881691323223145 8.647696889843989" Properties=species:S:1:pos:R:3:tags:I:1:initial_magmoms:R:1:forces:R:3 unique_id=7dc24e880938476d8e15753f377381b6 stress="0.00028641686411160633 -4.734735487677867e-06 2.1942938315198348e-05 -4.734735487677867e-06 0.00027848714931041907 -7.871965150964295e-06 2.1942938315198348e-05 -7.871965150964295e-06 0.0002637773423969231" energy=-391.1674318830206 pbc="T T T"
Ni      -0.06163942      -0.06015136       0.16512811        4       1.00000000      -0.14511171      -0.12937686       0.30805976
Pt       2.45632413      -0.03095776      -0.01293054        4       0.00000000      -0.19634369      -0.02116012      -0.19662825
Pt       5.10248331      -0.06392137       0.00327174        4       0.00000000       0.02324355      -0.08542145      -0.00351404
Ni       7.62675647       0.01146154       0.12004862        4       1.00000000      -0.00121233       0.04627569       0.28313731
Ni       1.28647905       2.25033081       0.07100250        4       1.00000000       0.03009636       0.12722778      -0.00495634
Ni       3.77145069       2.26288192       0.13065704        4       1.00000000      -0.05286767       0.06220373       0.23632884
Pt       6.29736768       2.30051265       0.04626806        4       0.00000000      -0.09685470       0.13866198      -0.00792617
Pt       8.91404013       2.24675638       0.02801681        4       0.00000000       0.06674012       0.09517605      -0.05013928
Ni       2.54485736       4.43037597       0.07367131        4       1.00000000       0.00430549       0.08063657       0.03342683
Ni       5.04077888       4.46633178       0.08887707        4       1.00000000      -0.09995727       0.04707936       0.05318496
Ni       7.59691373       4.47908519       0.08196936        4       1.00000000      -0.01870521       0.02916322       0.11291502
Ni      10.14027466       4.45844178       0.14026119        4       1.00000000       0.00928039       0.00312382       0.25962410
Ni       3.83483410       6.55621392       0.07410728        4       1.00000000      -0.05628616      -0.01058538      -0.02467203
Ni       6.30624662       6.53633163       0.08714253        4       1.00000000      -0.08969412      -0.00245597       0.04041425
Ni       8.85862602       6.52737587       0.07467382        4       1.00000000      -0.05904742      -0.02769268       0.09221944
Ni      11.40650834       6.53246623       0.11817485        4       1.00000000      -0.00816581      -0.08045605       0.24815328
Pt       1.16531065       0.72524206       2.24059991        3       0.00000000      -0.13750230      -0.05352451      -0.22079855
Pt       3.82648674       0.72748262       2.23592349        3       0.00000000       0.15644861      -0.13967753      -0.24570061
Ni       6.36130886       0.81098737       2.15701972        3       1.00000000      -0.04940124       0.13386422      -0.10655072
Ni       8.79656345       0.78678488       2.16847432        3       1.00000000       0.05646063       0.09424483       0.05818268
Pt       2.50481327       3.03093572       2.19787673        3       0.00000000      -0.01385632       0.12675123      -0.02232948
Ni       5.06749972       3.00063723       2.16189684        3       1.00000000      -0.03177750      -0.01111047      -0.07338551
Ni       7.60473031       2.98465668       2.17150517        3       1.00000000       0.02896352       0.03248327      -0.13735936
Ni      10.06924847       3.01970648       2.17623754        3       1.00000000      -0.04531274       0.00120440       0.04580787
Ni       3.85235669       5.13823286       2.16955585        3       1.00000000       0.06557684      -0.08330087       0.08300627
Ni       6.31785781       5.14534318       2.10570158        3       1.00000000       0.03644356      -0.02954754      -0.00816204
Ni       8.85113383       5.13732099       2.11968628        3       1.00000000      -0.07309451      -0.04779940       0.08525180
Ni      11.32883796       5.16987538       2.13568805        3       1.00000000       0.01170363      -0.04237413       0.21890658
Ni       5.08974673       7.26371032       2.17437323        3       1.00000000       0.13256714      -0.02675887       0.09546796
Ni       7.58817966       7.26792643       2.12807695        3       1.00000000      -0.03047425       0.04038043      -0.11431840
Ni      10.08744070       7.24963090       2.13159141        3       1.00000000      -0.09296802      -0.02573125      -0.04623176
Pt      12.70414633       7.30665407       2.09997171        3       0.00000000       0.02942122      -0.01128811      -0.05753907
Ni      -0.04098466       1.50978575       4.30759996        2       1.00000000      -0.01487325      -0.00381935       0.04287366
Ni       2.47106307       1.48844172       4.31052563        2       1.00000000       0.01655681       0.08471708       0.04270197
Ni       5.01971258       1.50952578       4.27344736        2       1.00000000      -0.01323176       0.11764300      -0.03066098
Ni       7.60906126       1.51756121       4.19878684        2       1.00000000      -0.02127118      -0.02881325      -0.04475966
Ni       1.24554775       3.67039086       4.30396074        2       1.00000000      -0.06649494       0.06161264       0.11140621
Ni       3.75187827       3.72170705       4.28517760        2       1.00000000       0.03619990       0.01776673       0.05292990
Pt       6.27946528       3.67505036       4.23988871        2       0.00000000      -0.04226390      -0.04728106       0.04462539
Ni       8.85468933       3.66382450       4.19072403        2       1.00000000       0.03016031       0.08279567      -0.00684108
Ni       2.55047014       5.81087949       4.30087249        2       1.00000000      -0.04444442      -0.01073770       0.03143284
Ni       5.00337574       5.89380497       4.28332622        2       1.00000000      -0.00489980       0.03691407      -0.05662058
Pt       7.58966016       5.91230853       4.24890954        2       0.00000000       0.07918719       0.04049910       0.03278653
Ni      10.11286826       5.85130965       4.18532496        2       1.00000000       0.03776569      -0.09231015       0.05609192
Ni       3.83270467       8.04529323       4.27260182        2       1.00000000       0.07868513       0.05719796       0.09655921
Ni       6.30733807       8.05834337       4.26841639        2       1.00000000      -0.09336858      -0.06248289      -0.00758608
Ni       8.81670929       8.07865099       4.28735710        2       1.00000000      -0.01598260      -0.09584592      -0.16582974
Pt      11.33909407       8.09624814       4.17168023        2       0.00000000       0.01737314      -0.01269174       0.13805675
Pt       0.03611650       0.00423258       6.39941321        1       0.00000000       0.16561794      -0.05142563       0.07316373
Ni       2.52017636      -0.00361027       6.24110452        1       1.00000000       0.07215390      -0.04528305      -0.27982695
Ni       4.97222177       0.03637165       6.25641393        1       1.00000000       0.02957532      -0.01673758      -0.27232605
Pt       7.54526676       0.10460552       6.38051422        1       0.00000000       0.00584449      -0.03163107      -0.01345413
Ni       1.24703385       2.20505104       6.35545937        1       1.00000000       0.05869290      -0.03255172      -0.13275140
Pt       3.75645832       2.23671941       6.37507851        1       0.00000000       0.08785978       0.00307243       0.03671910
Ni       6.29183861       2.25787225       6.28272413        1       1.00000000       0.04717285       0.02641775      -0.26174056
Ni       8.79636389       2.25532713       6.22844237        1       1.00000000      -0.02864498      -0.02015786      -0.29038224
Ni       2.54263194       4.40377501       6.36996648        1       1.00000000       0.03309927       0.00458458      -0.11518149
Ni       5.03182190       4.45861075       6.37876471        1       1.00000000       0.04812369       0.01052856      -0.03350615
Ni       7.52280314       4.42699877       6.37892540        1       1.00000000      -0.02955977      -0.03091429       0.03885476
Pt      10.04646788       4.36937235       6.35207541        1       0.00000000      -0.02070867      -0.05346295       0.11708974
Ni       3.81820420       6.54740554       6.36915660        1       1.00000000       0.06201206      -0.00352107      -0.13834756
Ni       6.30784848       6.57181551       6.37952596        1       1.00000000       0.06227198      -0.07350400      -0.03026975
Ni       8.79095514       6.64514199       6.36604884        1       1.00000000       0.03381231      -0.03812515      -0.00015934
Pt      11.36479964       6.59378692       6.38388425        1       0.00000000       0.04096115      -0.02266856       0.03107669
