64
Lattice="10.438046174537693 -0.016716124211019805 0.05851702246422751 5.204546499049288 8.937326624977613 -0.010746278246093973 0.0 0.0 21.63401390117845" Properties=species:S:1:pos:R:3:tags:I:1:initial_magmoms:R:1:forces:R:3 unique_id=631cace3a0d94282a0b6fe0ecc71a461 stress="0.005954275596915009 -0.0001530975384721857 0.0006109756387098428 -0.0001530975384721857 0.00528610253611032 -0.00019943657539073627 0.0006109756387098428 -0.00019943657539073627 -0.0036057694661156044" energy=-381.31536027775553 pbc="T T T"
Ni      -0.00888144      -0.02181361       0.10358920        1       1.00000000       0.04508001       0.03354218      -0.16908242
Ni       2.64553285      -0.02093784       0.04278062        0       1.00000000       0.02843365       0.02470071       0.35879049
Ni       5.22338253      -0.04291780       0.09808514        1       1.00000000       0.01437656       0.05816053      -0.36026354
Ni       7.82599482      -0.09116164       0.15430816        2       1.00000000      -0.08579930      -0.03548734      -0.15277020
Pt       1.31544753       2.23466060       0.08574620        1       0.00000000      -0.00656877      -0.01079977      -0.24458181
Pt       3.89907671       2.16566826       0.01825637        0       0.00000000       0.01952898       0.05435561       0.12116471
Pt       6.52863307       2.12292710       0.02882751        0       0.00000000       0.07472612       0.03626034      -0.01199986
Pt       9.16294460       2.20658819       0.06696998        1       0.00000000       0.03266355       0.08911583      -0.50662541
Ni       2.59360225       4.50641882       0.02727654        0       1.00000000      -0.00456432      -0.02637479      -0.11415590
Pt       5.17986365       4.49072095       0.05624382        1       0.00000000       0.25194726      -0.07277289      -0.80925893
Pt       7.86798065       4.50901947       0.05364442        1       0.00000000      -0.22465834      -0.07291289      -0.78081287
Ni      10.46884843       4.50610619       0.01990885        0       1.00000000       0.02291967      -0.04453903       0.15881629
Ni       3.86070223       6.74655544       0.00544025        0       1.00000000       0.01761969       0.01520096       0.37426244
Pt       6.52417362       6.80575715       0.11114834        1       0.00000000       0.00187697      -0.10240241      -0.47873687
Ni       9.16078106       6.73215966       0.00000000        0       1.00000000      -0.05210051       0.01919081       0.22336494
Ni      11.76098845       6.69161444       0.00428665        0       1.00000000       0.09330922       0.03236607       0.36499694
Ni       1.35218462       0.74608791       2.14028476        3       1.00000000       0.04919770      -0.02170201       0.14768530
Ni       3.87464406       0.74781416       2.15577238        4       1.00000000      -0.08679469       0.02791965       0.12564907
Ni       6.54356323       0.74317346       2.17859082        4       1.00000000       0.00537022       0.06615851       0.16078104
Pt       9.15027368       0.72701577       2.21024736        4       0.00000000       0.04029561      -0.06645717       0.19335955
Ni       2.62375106       2.91989067       2.20756748        4       1.00000000       0.06507213      -0.05632004       0.24860690
Ni       5.21319876       2.93930344       2.16797977        4       1.00000000      -0.01774527      -0.02223178       0.16822669
Ni       7.82853600       2.92675359       2.18342530        4       1.00000000      -0.04732793      -0.04209321       0.15600176
Ni      10.46479939       2.93112412       2.25896353        5       1.00000000       0.03736009      -0.02907480       0.25536108
Pt       3.89801944       5.20668815       2.16909293        4       0.00000000      -0.02029617       0.02301555       0.14076114
Ni       6.53045913       5.21842635       2.16061833        4       1.00000000      -0.02036466       0.01445388       0.25000495
Pt       9.09638733       5.16688406       2.22755846        4       0.00000000       0.10637995      -0.02040655       0.16068032
Pt      11.74754518       5.13579628       2.15812840        4       0.00000000      -0.07285287      -0.06616605       0.10606640
Ni       5.21122637       7.45540139       2.12508288        3       1.00000000      -0.07941956       0.02474969       0.21007306
Ni       7.82924267       7.47640651       2.14577942        3       1.00000000       0.02386396       0.09479338       0.12928964
Pt      10.43795247       7.47986428       2.06668705        3       0.00000000       0.02283894      -0.05265819       0.10147437
Ni      13.05323355       7.42529053       2.13477433        3       1.00000000       0.02268984      -0.01570118       0.12995407
Ni       0.04829573       1.53843087       4.24287975        6       1.00000000       0.04414158      -0.00073407      -0.29030158
Ni       2.62290663       1.52575204       4.25577844        7       1.00000000       0.00861208       0.03367645      -0.24113567
Pt       5.19205939       1.51610944       4.27961800        7       0.00000000      -0.03499905       0.06053245      -0.15512250
Ni       7.85614320       1.47820069       4.31797515        7       1.00000000      -0.03373231      -0.01748691      -0.23811591
Ni       1.33916308       3.66179078       4.25378540        7       1.00000000       0.00957523      -0.03857832      -0.25091431
Ni       3.85233716       3.68193336       4.28719888        7       1.00000000      -0.10012801      -0.02547645      -0.23643635
Pt       6.61655728       3.68110184       4.21690699        6       0.00000000       0.08106032      -0.05837891      -0.35236832
Ni       9.19521256       3.63688320       4.28685021        7       1.00000000       0.10395994      -0.12741326      -0.31324917
Ni       2.61380500       5.90828745       4.31747048        7       1.00000000       0.01547722      -0.06535351      -0.09888303
Pt       5.22882522       5.92106080       4.28799095        7       0.00000000      -0.10022417       0.04861475      -0.14905261
Ni       7.84310739       5.93574564       4.29826567        7       1.00000000      -0.03258759       0.04443678      -0.24221665
Pt      10.46160487       5.83186896       4.45527421        8       0.00000000      -0.04319321      -0.05710826       0.03638922
Pt       3.91283151       8.18689604       4.28656052        7       0.00000000       0.07272763       0.11186758      -0.02971010
Pt       6.54008121       8.26755342       4.21209862        6       0.00000000      -0.10096510       0.25836721      -0.12028273
Pt       9.09675282       8.16265290       4.31727943        7       0.00000000       0.01259070       0.00848010      -0.05848493
Pt      11.76879180       8.15589197       4.29884898        7       0.00000000      -0.10219065      -0.02258593      -0.08648397
Pt       0.04336548      -0.04407922       6.57193614       11       0.00000000      -0.05357376       0.25097073       0.17007921
Ni       2.65234838      -0.02211445       6.51242203       10       1.00000000      -0.04910594       0.05969589      -0.16090368
Pt       5.17177416      -0.03910057       6.61017458       11       0.00000000       0.08894317       0.09709172       0.10378193
Pt       7.80877566      -0.09043282       6.63401390       11       0.00000000      -0.10094660       0.20657934       0.15108113
Pt       1.39028918       2.20851751       6.36977225        9       0.00000000      -0.04852388      -0.00469423       0.21258945
Ni       3.92275854       2.19075701       6.41341607        9       1.00000000      -0.08129364       0.01777673       0.01268350
Ni       6.54333659       2.18075719       6.42989120        9       1.00000000       0.05011585      -0.09751336       0.01139757
Pt       9.16115678       2.21180042       6.38937355        9       0.00000000       0.02265123      -0.17861722       0.51046557
Pt       2.58325127       4.51549716       6.46574220       10       0.00000000       0.07597041      -0.17904291      -0.14348077
Pt       5.21226948       4.36310841       6.42438187        9       0.00000000       0.00477280      -0.02383909       0.69668023
Pt       7.92852071       4.46434692       6.40556939        9       0.00000000      -0.03765045       0.08115076       0.57713583
Ni      10.47557720       4.44539427       6.53386807       10       1.00000000       0.01113984      -0.12515059      -0.08410229
Ni       3.90775528       6.66889431       6.48860828       10       1.00000000       0.02812558      -0.01975115      -0.15121135
Pt       6.60744712       6.70006076       6.45235011       10       0.00000000       0.12251618      -0.24372379       0.48896135
Ni       9.18891020       6.66290750       6.52902059       10       1.00000000      -0.03972507       0.01789322      -0.07768957
Ni      11.73700610       6.64499365       6.54195383       10       1.00000000      -0.05059805       0.13243062      -0.14818284
