64
Lattice="10.056855418564334 0.002141049464388006 0.0311929975101844 5.030281912509087 8.701538334375249 -0.021135841268811448 0.025468975815952737 -0.03463158229300326 8.60724453175324" Properties=species:S:1:pos:R:3:tags:I:1:initial_magmoms:R:1:forces:R:3 unique_id=0cf996f17e0b4fca858016e7b559b8d3 stress="-0.0029354102998573536 1.1722939641851627e-05 -4.1714765764146586e-07 1.1722939641851627e-05 -0.002905925877837355 -1.2124350891253673e-05 -4.1714765764146586e-07 -1.2124350891253673e-05 -0.002503652545081697" energy=-387.0043698235332 pbc="T T T"
Ni       0.03096452      -0.04996701       0.09316496        4       1.00000000       0.04838310      -0.06533592       0.02650592
Ni       2.47002293       0.00114493       0.16640999        4       1.00000000       0.00530700       0.08895873       0.01471007
Pt       5.06202271      -0.06185654       0.21248326        4       0.00000000       0.01446490      -0.04658583      -0.04888553
Ni       7.57256245      -0.05282168       0.20755472        4       1.00000000       0.04798997      -0.09494893       0.16430010
Ni       1.25480888       2.19077999       0.11802804        4       1.00000000      -0.00553044       0.07108256       0.10225313
Pt       3.74565190       2.23567091       0.18944183        4       0.00000000      -0.00074643       0.01787604      -0.11685083
Ni       6.29447292       2.21783934       0.14320467        4       1.00000000      -0.00272444       0.04316669       0.18181194
Pt       8.81183298       2.21385050       0.16210635        4       0.00000000       0.01999825       0.02556751      -0.13264991
Ni       2.49444562       4.39484911       0.10030688        4       1.00000000       0.01779546       0.02704810       0.06065865
Ni       5.05205384       4.39790259       0.11036621        4       1.00000000      -0.01057268       0.04040451       0.06278262
Ni       7.51949967       4.38546133       0.12557153        4       1.00000000       0.00356244       0.03220596       0.12354440
Ni      10.09591036       4.38638142       0.12957747        4       1.00000000       0.08460033      -0.00047989       0.06670514
Ni       3.77726093       6.50469002       0.09146359        4       1.00000000       0.01003307      -0.04348627       0.03824405
Ni       6.25982932       6.50224179       0.07414771        4       1.00000000      -0.01179674      -0.02499502      -0.02710138
Ni       8.81663852       6.45422083       0.19818591        4       1.00000000       0.11317318      -0.11715319       0.18925568
Ni      11.35066949       6.47107478       0.13017489        4       1.00000000       0.06549554      -0.04505154       0.08061407
Ni       1.27729265       0.77016208       2.17773132        3       1.00000000       0.01989369       0.09743936       0.02005181
Ni       3.77425995       0.75209952       2.25041332        3       1.00000000      -0.01495472       0.05521737       0.00806244
Ni       6.28287063       0.73014932       2.24245939        3       1.00000000       0.01485020       0.00059656       0.06208892
Pt       8.82067782       0.67558552       2.26487731        3       0.00000000       0.04626886      -0.03542808       0.07588682
Ni       2.48610696       2.93000705       2.22977752        3       1.00000000      -0.02120554       0.07566524       0.03368958
Ni       5.03207211       2.91090503       2.19066564        3       1.00000000      -0.05711211       0.04274900       0.02811623
Ni       7.52958800       2.92562749       2.19687718        3       1.00000000       0.01304404       0.00463888       0.07866054
Ni      10.11144422       2.93750450       2.23127083        3       1.00000000       0.04741699       0.00981702       0.03983347
Ni       3.76305864       5.06622771       2.15677075        3       1.00000000      -0.03791191      -0.03109565      -0.00676278
Ni       6.25428195       5.04957626       2.12304709        3       1.00000000      -0.03876750       0.00669289       0.06346998
Ni       8.84917044       5.02388003       2.15866708        3       1.00000000       0.03597023      -0.05560433       0.09316778
Ni      11.33325520       5.06473736       2.19433943        3       1.00000000       0.03199091      -0.03336402       0.09142675
Ni       5.00745316       7.18633220       2.15070883        3       1.00000000      -0.05638987      -0.10527816       0.01832476
Pt       7.53408676       7.26837512       2.13384350        3       0.00000000      -0.04721506       0.01946734       0.05045726
Ni      10.11326043       7.19319692       2.23359191        3       1.00000000       0.02716545      -0.08287306       0.10052977
Ni      12.56504839       7.18205995       2.18614496        3       1.00000000       0.03453133      -0.09558652       0.05244411
Ni       0.06907854       1.43560498       4.24896015        2       1.00000000       0.07819854       0.04098114      -0.06540452
Ni       2.49907718       1.45588041       4.21085563        2       1.00000000      -0.00853126       0.03121342      -0.07599558
Ni       5.02543128       1.40815447       4.19991031        2       1.00000000      -0.07171047      -0.01766601      -0.11377458
Ni       7.53381671       1.39951549       4.27505692        2       1.00000000      -0.06476700      -0.08025036       0.00582583
Ni       1.27828346       3.61861595       4.26159374        2       1.00000000       0.02104416       0.04128191      -0.05510266
Ni       3.72423198       3.66855033       4.20077443        2       1.00000000      -0.07668368       0.10376189      -0.16262902
Pt       6.24898756       3.56148437       4.27591715        2       0.00000000      -0.05817715      -0.01731063       0.00601150
Ni       8.87746071       3.62176585       4.22311124        2       1.00000000       0.04112040       0.02696523      -0.16070590
Ni       2.52904497       5.77781759       4.24718079        2       1.00000000      -0.01032224       0.00391776      -0.13145550
Ni       4.97735086       5.80427490       4.25828734        2       1.00000000      -0.02155857      -0.04523839      -0.15844292
Pt       7.55275441       5.78877438       4.26062701        2       0.00000000       0.01899673       0.00378643       0.03780326
Ni      10.14102999       5.76718655       4.25054180        2       1.00000000       0.02433196      -0.01318505      -0.03478820
Ni       3.80275040       7.90506209       4.24531805        2       1.00000000      -0.04509229      -0.10276613      -0.03447576
Ni       6.23072132       7.98511090       4.23374768        2       1.00000000      -0.08390310       0.00647203      -0.12873702
Ni       8.82981751       7.98735158       4.21280694        2       1.00000000      -0.01626022      -0.01777964      -0.05013650
Ni      11.35615435       7.91540965       4.19583450        2       1.00000000       0.07123878      -0.05704469      -0.06281666
Ni       0.00934157      -0.06157350       6.33830776        1       1.00000000      -0.04959134      -0.02140785      -0.14102145
Pt       2.42550309      -0.02101138       6.36138166        1       0.00000000      -0.00431967       0.02114606      -0.01394460
Pt       5.07080092      -0.01379930       6.27192142        1       0.00000000      -0.04728585       0.01898054      -0.00918132
Pt       7.62100711      -0.09410558       6.39440802        1       0.00000000       0.02261405      -0.03178105       0.15715452
Ni       1.26566397       2.20506457       6.33174247        1       1.00000000       0.03462188       0.07471348      -0.08574869
Pt       3.77258782       2.27840416       6.25754400        1       0.00000000       0.00232856       0.07427417      -0.05415805
Ni       6.31523547       2.18718211       6.38833425        1       1.00000000       0.00096956      -0.03011229       0.05386926
Pt       8.85350608       2.21571200       6.26452131        1       0.00000000      -0.00954098       0.04539229      -0.02154530
Ni       2.50967562       4.39194469       6.32770760        1       1.00000000       0.01760005       0.09380743      -0.10474457
Ni       5.04143940       4.39704247       6.37502444        1       1.00000000      -0.06433601       0.09461317      -0.01518904
Ni       7.50732895       4.32355356       6.40025568        1       1.00000000      -0.12175356      -0.00783216       0.03349084
Ni      10.14888113       4.32670732       6.35776189        1       1.00000000       0.10870922       0.01411029      -0.10876836
Ni       3.81058242       6.44571381       6.33319899        1       1.00000000      -0.02601714      -0.05912268      -0.09355085
Ni       6.22370296       6.47978156       6.36319430        1       1.00000000      -0.09262819       0.04095058      -0.10929472
Pt       8.84725366       6.40520602       6.43908636        1       0.00000000       0.01783760      -0.02913842       0.21339622
Ni      11.38260329       6.43903019       6.35240921        1       1.00000000       0.01585976       0.01294019      -0.11128521
