64
Lattice="10.47051138041902 0.004159123851041031 0.049482768312363284 5.238857597121999 9.090530297264236 -0.006350129119761607 0.0 0.0 21.722668240024824" Properties=species:S:1:pos:R:3:tags:I:1:initial_magmoms:R:1:forces:R:3 unique_id=b939667a4b1245eca989efb0d87bf409 stress="0.005965961387739981 -6.703747680399038e-05 0.00034674295021466187 -6.703747680399038e-05 0.005805033986964518 -0.00018276675455724257 0.00034674295021466187 -0.00018276675455724257 -0.0011483073175693592" energy=-384.7411173923217 pbc="T T T"
Ni      -0.04295343      -0.02489136       0.07959704        1       1.00000000      -0.25151625      -0.07061651       0.02714113
Ni       2.63780816      -0.03546075       0.00000000        0       1.00000000       0.11095358      -0.07001871       0.37071120
Ni       5.25871328      -0.04288074       0.08138186        1       1.00000000       0.15433731       0.03737633      -0.05960843
Ni       7.87623538      -0.03508406       0.06431037        1       1.00000000       0.04374256      -0.09440722       0.71172629
Pt       1.25327592       2.23057692       0.02340067        0       0.00000000       0.02686287       0.00049545      -1.00620288
Pt       3.96329388       2.23762222       0.04419206        0       0.00000000       0.08612572       0.08535872      -0.87850525
Pt       6.58910248       2.19789364       0.08926330        1       0.00000000       0.03963358      -0.16932064      -0.10392473
Ni       9.15522224       2.24503772       0.10056881        1       1.00000000      -0.03968665      -0.19158408       0.12590552
Pt       2.61854830       4.62985052       0.01500299        0       0.00000000       0.02702745      -0.00521825      -1.03336033
Ni       5.25890522       4.55192339       0.07634983        1       1.00000000       0.19612813      -0.07156587       0.01980259
Pt       7.91585456       4.57182767       0.09495561        1       0.00000000      -0.01420019       0.00562327       0.01314774
Ni      10.46397280       4.58206998       0.01515161        0       1.00000000       0.04078182       0.10446174       0.32596292
Ni       3.92342316       6.86889169       0.08084916        1       1.00000000      -0.06522593       0.23559621       0.10587113
Pt       6.53977225       6.86577668       0.12954410        1       0.00000000      -0.05292100       0.00020775      -0.15590452
Ni       9.19206479       6.83015443       0.01541153        0       1.00000000      -0.02399487      -0.01142099       0.49257173
Ni      11.77660224       6.85654688       0.01586803        0       1.00000000       0.13093636       0.10133642       0.43116445
Pt       1.27513637       0.63685571       2.14149591        2       0.00000000       0.00980355      -0.13718774       0.01720907
Pt       4.00307070       0.72294936       2.21040888        3       0.00000000       0.05226855      -0.01216600       0.15115347
Ni       6.59248461       0.73620438       2.23247113        3       1.00000000       0.13970913      -0.07318846       0.18476113
Ni       9.12173294       0.71641749       2.18853281        3       1.00000000      -0.19626742      -0.04821373      -0.06635148
Pt       2.64549676       3.03435476       2.21506150        3       0.00000000      -0.05956249       0.04219183       0.27461806
Ni       5.28363974       3.02609492       2.22695280        3       1.00000000       0.06275832       0.02248538       0.28076687
Pt       7.80268299       3.01400272       2.33236602        4       0.00000000      -0.13223129      -0.02685945       0.19724656
Pt      10.38723571       3.05202517       2.20793206        3       0.00000000      -0.22902314       0.13327139       0.00099832
Pt       4.03295402       5.37072882       2.14085106        2       0.00000000       0.11078021       0.06769747       0.03390417
Ni       6.59404161       5.30682116       2.21869577        3       1.00000000       0.20923347      -0.02973051       0.29954761
Ni       9.13822177       5.32765109       2.25250207        4       1.00000000      -0.17881231       0.10821434       0.27010779
Pt      11.73676737       5.35909678       2.21153041        3       0.00000000      -0.06466254       0.03797297       0.08035072
Ni       5.22313505       7.57818205       2.15963228        3       1.00000000      -0.13757098       0.06697096       0.15405738
Ni       7.87454654       7.51935307       2.20335713        3       1.00000000       0.12694629      -0.21139990       0.18353192
Pt      10.47506990       7.56142568       2.12749096        2       0.00000000      -0.01560496       0.02515031      -0.02114724
Ni      13.11899018       7.62677805       2.17769424        3       1.00000000      -0.02239961       0.15381021      -0.10598778
Pt      -0.07876488       1.53068240       4.35138625        6       0.00000000      -0.18565750       0.03476202      -0.24058091
Pt       2.66472560       1.46436839       4.40533103        6       0.00000000      -0.02883976      -0.05188473      -0.11832225
Ni       5.30865692       1.50584651       4.39652139        6       1.00000000       0.10788429       0.03691839      -0.41467775
Ni       7.83977894       1.52984359       4.41532133        6       1.00000000      -0.09097852       0.04996382      -0.24018778
Pt       1.21886427       3.83348761       4.41512975        6       0.00000000      -0.18034085       0.04416591      -0.11620676
Pt       4.04281171       3.74152557       4.36574944        6       0.00000000       0.12585257      -0.02681583      -0.19796369
Ni       6.61103144       3.75619774       4.41195099        6       1.00000000       0.08874640       0.00902348      -0.21222066
Ni       9.14009064       3.81871429       4.42715619        6       1.00000000      -0.15947885       0.10275476      -0.30431511
Pt       2.59033309       6.08665074       4.38585633        6       0.00000000      -0.01806093       0.05835315      -0.16070946
Pt       5.34916789       6.01117342       4.34903773        5       0.00000000       0.15293199      -0.07609081      -0.16306365
Ni       7.92560913       6.00070093       4.38819597        6       1.00000000       0.14527736      -0.17387727      -0.39144545
Ni      10.43600776       6.03506359       4.48468359        7       1.00000000      -0.10682232      -0.02301907      -0.00860336
Pt       3.92045309       8.35074793       4.31759505        5       0.00000000       0.01541937       0.01571664      -0.24403989
Pt       6.58986406       8.28353797       4.36279776        6       0.00000000      -0.06071308       0.00679933      -0.14274033
Pt       9.19666273       8.22302747       4.45014020        7       0.00000000      -0.01251431      -0.15616405      -0.09216930
Pt      11.79259699       8.38700122       4.41415902        6       0.00000000      -0.07328544       0.09433990      -0.15463108
Pt       0.02027347      -0.02040197       6.70710085       10       0.00000000       0.04596920       0.01854391       0.05281987
Ni       2.66410612      -0.03964365       6.66480870       10       1.00000000       0.01424908       0.01156688      -0.19646058
Pt       5.26188339      -0.12064783       6.72266824       10       0.00000000      -0.01950217       0.10422115      -0.04164496
Ni       7.86264202      -0.02644776       6.68014269       10       1.00000000      -0.02256378      -0.01378002      -0.33620520
Pt       1.32151627       2.25247196       6.59464806        9       0.00000000      -0.00787417      -0.00663664       0.84292749
Pt       3.96389572       2.19881866       6.59674890        9       0.00000000       0.11597789      -0.02745959       0.80334577
Pt       6.58931711       2.20516328       6.54410644        8       0.00000000      -0.09036348      -0.00944440       0.28149122
Pt       9.17722371       2.26794941       6.69482250       10       0.00000000      -0.04350528       0.12648693      -0.01830456
Pt       2.57127908       4.56945660       6.59153867        9       0.00000000       0.09240484      -0.06395002       0.83991878
Pt       5.28604723       4.53653875       6.67100641       10       0.00000000       0.06867766       0.05611466       0.22059568
Pt       7.96982666       4.57614767       6.54260630        8       0.00000000      -0.06840243       0.01589290       0.16374968
Ni      10.48348371       4.58596919       6.66079424       10       1.00000000      -0.01072844       0.12728411      -0.29515360
Pt       3.88170979       6.85046833       6.69742340       10       0.00000000       0.09723633      -0.04769871      -0.00227578
Pt       6.66645181       6.83473482       6.61926791        9       0.00000000       0.02241321      -0.05395732       0.28874452
Ni       9.23268977       6.78556707       6.64959251        9       1.00000000       0.10970647      -0.09021900      -0.34945497
Ni      11.76466339       6.79763671       6.68076895       10       1.00000000      -0.10746461      -0.09723316      -0.37348107
