64
Lattice="10.339691071190442 -0.014379023701344737 0.014598112389744556 5.157392935788237 8.901209756687825 0.0084258657900328 0.011919308854225055 0.001062366274458744 8.832264896935335" Properties=species:S:1:pos:R:3:tags:I:1:initial_magmoms:R:1:forces:R:3 unique_id=69195dd28e494cfe8eafe7016180be31 stress="0.00026057875097622307 2.9177744946119977e-06 -1.834361544516457e-05 2.9177744946119977e-06 0.0002581994288336012 1.6831182867271688e-06 -1.834361544516457e-05 1.6831182867271688e-06 0.00024833329418904454" energy=-399.21648544553943 pbc="T T T"
Ni      -0.01570803       0.02628967       0.19956414        4       1.00000000      -0.06095207       0.11295715       0.30040488
Ni       2.58492824       0.00227319       0.20739559        4       1.00000000       0.01728520      -0.00030870       0.39533771
Ni       5.16826289      -0.02611531       0.16742741        4       1.00000000      -0.05791910       0.10637410       0.22982933
Ni       7.78034395      -0.05145236       0.11889120        4       1.00000000       0.07723212      -0.11370642       0.19600920
Ni       1.27526915       2.21670168       0.08182066        4       1.00000000      -0.06636551      -0.08573884       0.07835137
Pt       3.80155154       2.22242312       0.11199730        4       0.00000000      -0.09614502       0.03665589      -0.13316360
Pt       6.46125741       2.14203269       0.15627952        4       0.00000000       0.04390875      -0.08436039       0.21965312
Ni       9.07517985       2.17596863       0.14866098        4       1.00000000       0.00855518      -0.17398805       0.10992911
Ni       2.56308692       4.46129952       0.06259965        4       1.00000000      -0.04190320       0.03964651       0.01131328
Ni       5.15577916       4.44970737       0.16570882        4       1.00000000       0.16982452      -0.08297910       0.25006315
Pt       7.82347312       4.47336581       0.07559438        4       0.00000000       0.13885300      -0.01409572      -0.13551750
Ni      10.36857173       4.44921088       0.06590594        4       1.00000000       0.12180823       0.01914153       0.01943979
Ni       3.83819071       6.70465753       0.18000358        4       1.00000000      -0.04919017       0.16509165       0.22647855
Pt       6.43242243       6.73174865       0.20996639        4       0.00000000      -0.06115468       0.06420535       0.14472296
Ni       9.06617763       6.68756991       0.08872830        4       1.00000000       0.01328507       0.06515444       0.00958082
Ni      11.63953236       6.67612534       0.07517913        4       1.00000000       0.10639273       0.08347733      -0.03717913
Ni       1.30236699       0.72376505       2.17455048        3       1.00000000       0.05782677      -0.01153650      -0.08749409
Ni       3.86938119       0.75589114       2.21649111        3       1.00000000       0.02779126       0.05115370       0.05720625
Ni       6.47019449       0.71247220       2.25039898        3       1.00000000       0.04041217      -0.01043073       0.11341537
Ni       9.04641207       0.68999868       2.19802370        3       1.00000000      -0.05132495      -0.03669881      -0.07219809
Ni       2.59529742       2.94314031       2.21950320        3       1.00000000      -0.00220031       0.03518549       0.00104702
Ni       5.13863346       2.93407045       2.25334520        3       1.00000000      -0.04837688      -0.15984999       0.07060687
Pt       7.76974099       2.92606782       2.28134693        3       0.00000000       0.04580283      -0.07113767      -0.17025522
Pt      10.36963865       2.88635583       2.20683297        3       0.00000000       0.11296117      -0.04605409       0.02151330
Pt       3.89137804       5.17454968       2.17485520        3       0.00000000      -0.02067672      -0.06683097       0.02272550
Ni       6.48381130       5.19759437       2.23857627        3       1.00000000       0.12964244       0.01334345      -0.00374232
Ni       9.02303562       5.20851148       2.26775967        3       1.00000000      -0.01472346      -0.00418306       0.13908653
Pt      11.62523257       5.19766089       2.19372845        3       0.00000000      -0.05465669       0.01465054      -0.00134470
Ni       5.14389239       7.46200387       2.20460680        3       1.00000000      -0.10601003       0.05773517      -0.06018976
Ni       7.74956184       7.41669505       2.22669296        3       1.00000000       0.02685292      -0.06111139       0.00409629
Pt      10.30388435       7.43351300       2.15021068        3       0.00000000      -0.01435145      -0.06058097       0.00524477
Ni      12.93526494       7.44439895       2.19574555        3       1.00000000      -0.04185853       0.03538471      -0.06697095
Ni      -0.01352630       1.52155978       4.37507122        2       1.00000000       0.00609473       0.09680047      -0.06690605
Pt       2.62509107       1.54667724       4.33861124        2       0.00000000      -0.00836131       0.00751067      -0.10574917
Ni       5.17194378       1.49085375       4.35739924        2       1.00000000       0.04611369      -0.04006322      -0.19653536
Ni       7.78073013       1.47902609       4.38123680        2       1.00000000       0.05346399       0.03116870      -0.07092387
Pt       1.26584537       3.76484825       4.47202364        2       0.00000000      -0.01348137       0.01332319      -0.04675103
Ni       3.87230679       3.70058467       4.39063226        2       1.00000000      -0.00908257       0.05693990      -0.15525120
Pt       6.48134878       3.69405759       4.35516650        2       0.00000000      -0.10492089      -0.02782898       0.08201928
Ni       9.05973186       3.73266764       4.41317278        2       1.00000000       0.04845446       0.09784006      -0.15969584
Ni       2.55323543       5.91900680       4.41177887        2       1.00000000      -0.03817085       0.03602929      -0.09218691
Pt       5.14136383       5.90852642       4.33331097        2       0.00000000      -0.02556206       0.10341160       0.09060631
Ni       7.81693021       5.88230543       4.37453152        2       1.00000000       0.07457269      -0.07019096      -0.19540985
Ni      10.31233128       5.89695659       4.44665163        2       1.00000000      -0.05730378       0.01365514      -0.07606722
Pt       3.84805720       8.21957093       4.31009986        2       0.00000000      -0.00168772       0.06001184      -0.01402311
Pt       6.45656412       8.18076384       4.27914785        2       0.00000000       0.00311940       0.04752071       0.02143555
Pt       9.04584289       8.09809929       4.36767033        2       0.00000000      -0.04571943       0.01167951       0.09474740
Pt      11.64410824       8.14242397       4.38692672        2       0.00000000      -0.01046392      -0.02131744      -0.03117019
Pt      -0.01308884       0.04051090       6.61005398        1       0.00000000      -0.04191471       0.01410040       0.18674823
Pt       2.61278857       0.05249656       6.63847067        1       0.00000000      -0.00185937       0.08599928       0.23945529
Pt       5.20867428      -0.07820306       6.62249770        1       0.00000000       0.02886423      -0.26309966       0.13750955
Ni       7.75450750      -0.01385558       6.57410968        1       1.00000000       0.05475911       0.03219792      -0.12082293
Ni       1.31208901       2.28173517       6.56743779        1       1.00000000       0.04301651       0.10570506      -0.08093415
Ni       3.84987149       2.24787488       6.48837151        1       1.00000000      -0.03614787      -0.01203661      -0.25916560
Pt       6.48012884       2.17862794       6.49118703        1       0.00000000      -0.00359834      -0.04541520      -0.27969771
Pt       9.09428401       2.30199861       6.54788488        1       0.00000000       0.16604314       0.14812800       0.03616101
Ni       2.53241627       4.43162038       6.56076460        1       1.00000000      -0.15816717      -0.02834975      -0.07691430
Pt       5.09648446       4.39567820       6.60080975        1       0.00000000      -0.14624158      -0.02807899       0.11199587
Ni       7.81001036       4.46063500       6.47071754        1       1.00000000       0.08409076       0.04835223      -0.31908226
Ni      10.34591042       4.48770753       6.56422317        1       1.00000000      -0.02468343       0.20087599      -0.08190833
Pt       3.74584400       6.66695675       6.61129819        1       0.00000000      -0.17941546       0.00732700       0.16192048
Pt       6.53468005       6.62233235       6.52428099        1       0.00000000       0.05032397      -0.03957476      -0.18813383
Ni       9.08781243       6.60140861       6.55862899        1       1.00000000       0.06250468      -0.19777035      -0.18931611
Ni      11.59528840       6.61032579       6.56807742        1       1.00000000      -0.16526511      -0.26141661      -0.21395375
