64
Lattice="10.451537462775757 0.005862148455046367 0.05002612334197975 5.230845500870706 9.09246337556328 -0.014197928652274755 0.04084615866579528 -0.03696847620616088 9.03066843998851" Properties=species:S:1:pos:R:3:tags:I:1:initial_magmoms:R:1:forces:R:3 unique_id=a4482f0960044ab0a108a3ab87a66d5f stress="-0.0033824811386928763 -2.482974370258049e-05 -8.632985455584025e-06 -2.482974370258049e-05 -0.003418516589899466 7.632060784408649e-06 -8.632985455584025e-06 7.632060784408649e-06 -0.0028228929340740963" energy=-408.3758792637459 pbc="T T T"
Ni      -0.05181459      -0.02657362       0.16750000        4       1.00000000      -0.20182816      -0.08615163       0.18634667
Ni       2.63891926      -0.04068857       0.08525362        4       1.00000000       0.13102066      -0.10449758       0.07938233
Ni       5.25164627      -0.04443049       0.17187125        4       1.00000000       0.13191536      -0.06339550       0.15585378
Ni       7.87170418      -0.03243979       0.15528902        4       1.00000000       0.07570744      -0.11770453       0.16557309
Pt       1.24620874       2.22628207       0.10313988        4       0.00000000       0.00724819      -0.06954632      -0.14207369
Pt       3.95941986       2.23531961       0.13040826        4       0.00000000       0.07492099      -0.01418902      -0.09151088
Pt       6.59028528       2.19406155       0.16747799        4       0.00000000       0.10219272      -0.14905273      -0.05059970
Ni       9.13964521       2.24082189       0.11383654        4       1.00000000      -0.02906092      -0.13520650       0.10412960
Pt       2.61844528       4.62529138       0.09716637        4       0.00000000       0.04962216       0.05716578      -0.16162892
Ni       5.25780028       4.55048031       0.16099974        4       1.00000000       0.20463462      -0.07869075       0.17085508
Pt       7.90676267       4.56315059       0.17343291        4       0.00000000       0.08180835      -0.04162047       0.01497109
Ni      10.44439557       4.57909966       0.09722414        4       1.00000000       0.02124693       0.09443615       0.06461530
Ni       3.92078009       6.87745406       0.16637232        4       1.00000000      -0.00036407       0.18546693       0.16998635
Pt       6.53039980       6.86607686       0.20997766        4       0.00000000       0.01943388      -0.01133223       0.06886954
Ni       9.17341967       6.83214866       0.09709173        4       1.00000000       0.03205641      -0.00910700       0.07197045
Ni      11.76620177       6.86113933       0.17234494        4       1.00000000       0.10862599       0.11328120       0.10058163
Pt       1.27055696       0.63665029       2.21825628        3       0.00000000       0.01841924      -0.04572918       0.00676864
Pt       3.99663820       0.72781724       2.29142000        3       0.00000000       0.02147015       0.02948212       0.08489869
Ni       6.58430165       0.73494833       2.30456012        3       1.00000000       0.07062468      -0.06007352       0.00756178
Ni       9.10094402       0.71940203       2.26332713        3       1.00000000      -0.14135858       0.00684492      -0.08095169
Pt       2.63709095       3.03181043       2.28447195        3       0.00000000      -0.07409321       0.03726512      -0.00337218
Ni       5.27654033       3.02356589       2.29820110        3       1.00000000       0.02437287      -0.01564873      -0.01407535
Pt       7.78385424       3.01316458       2.40851494        3       0.00000000      -0.08738413      -0.00303916       0.00556648
Pt      10.36008664       3.04192416       2.27914771        3       0.00000000      -0.12928941       0.01561222      -0.08846012
Pt       4.02888422       5.36934492       2.21005676        3       0.00000000       0.05419325       0.01796575       0.03401438
Ni       6.59306761       5.30645930       2.29135193        3       1.00000000       0.15007974       0.00862382       0.06051974
Ni       9.11665319       5.33168092       2.33108462        3       1.00000000      -0.09453676       0.05531011       0.12710764
Pt      11.71055511       5.35233423       2.28192486        3       0.00000000      -0.03841377      -0.00945196       0.00079534
Ni       5.21193287       7.58046921       2.23082947        3       1.00000000      -0.08975644       0.05221122       0.03467909
Ni       7.86196760       7.51299516       2.27870512        3       1.00000000       0.04887434      -0.11899242       0.09053427
Pt      10.44991056       7.56114256       2.20483476        3       0.00000000      -0.04193177      -0.01511088       0.06599813
Ni      13.09875981       7.63580843       2.24178900        3       1.00000000      -0.03252902       0.09471392      -0.07106116
Pt      -0.10995091       1.54448180       4.46268059        2       0.00000000      -0.13189486       0.03066530      -0.10887608
Pt       2.64846981       1.46450386       4.48753415        2       0.00000000      -0.07513799      -0.00505134      -0.07642131
Ni       5.30489247       1.50964831       4.46749134        2       1.00000000       0.08876622       0.03547977      -0.17518575
Ni       7.83079543       1.53416868       4.49256930        2       1.00000000      -0.06903610       0.00365235      -0.14192237
Pt       1.21477824       3.83051405       4.48488546        2       0.00000000      -0.09683870       0.05170135      -0.11712863
Pt       4.04574806       3.73257131       4.43320473        2       0.00000000       0.07827837       0.01301965      -0.09158221
Ni       6.60673093       3.75270981       4.49138352        2       1.00000000       0.06730430       0.01554731       0.03679423
Ni       9.11913357       3.81147121       4.49921895        2       1.00000000      -0.09699710       0.07390274      -0.17124946
Pt       2.60513526       6.07862577       4.43072348        2       0.00000000       0.00820526       0.06259318      -0.05622669
Pt       5.35541398       6.00611807       4.42073421        2       0.00000000       0.08641573      -0.05605494       0.02763808
Ni       7.91698694       5.99040015       4.45519589        2       1.00000000       0.06575516      -0.12691543      -0.18658361
Ni      10.40477054       6.02741640       4.53657467        2       1.00000000      -0.09649947      -0.03497792      -0.03065131
Pt       3.91844365       8.35045087       4.37977337        2       0.00000000       0.00542566      -0.02541151      -0.10055541
Pt       6.57166032       8.28603277       4.43910911        2       0.00000000      -0.04392412       0.02906427      -0.00770234
Pt       9.17641216       8.22109320       4.51590042        2       0.00000000      -0.04459388      -0.04585721       0.00409960
Pt      11.77365958       8.40475580       4.45715927        2       0.00000000      -0.02958678       0.02941303      -0.01032495
Pt      -0.01957704       0.01664688       6.78549911        1       0.00000000      -0.10011555       0.05645377       0.14410269
Ni       2.64534845      -0.03745114       6.73118043        1       1.00000000      -0.05806264       0.06528673      -0.09011398
Pt       5.22015223      -0.05443271       6.79286613        1       0.00000000      -0.06309561       0.00005605       0.13477760
Ni       7.86336845      -0.00712615       6.74886624        1       1.00000000      -0.05693102      -0.03417096      -0.10088487
Pt       1.26083803       2.26236955       6.65631123        1       0.00000000      -0.08339909       0.06058595      -0.02681432
Pt       3.95270220       2.20691672       6.65585294        1       0.00000000       0.03118233       0.01923264      -0.01344586
Pt       6.64634193       2.20397029       6.61307187        1       0.00000000       0.01988086      -0.03114466      -0.04141921
Ni       9.16859654       2.25924080       6.74013083        1       1.00000000      -0.02939327       0.04073179      -0.07746260
Pt       2.60505152       4.52538944       6.64602559        1       0.00000000       0.06843780       0.01509354      -0.07483885
Pt       5.30427898       4.52224887       6.74288801        1       0.00000000       0.09087805       0.03654612       0.11838803
Pt       7.98471768       4.52755125       6.61172602        1       0.00000000       0.04473029       0.03369527       0.00203810
Ni      10.45068499       4.53834000       6.72850049        1       1.00000000      -0.01070392       0.03643557      -0.08885495
Pt       3.92339576       6.84085594       6.76692284        1       0.00000000      -0.03401814       0.02465004       0.12145651
Pt       6.66251248       6.83403185       6.68378252        1       0.00000000       0.05743478       0.06895834       0.05949740
Ni       9.18246202       6.78732125       6.71136723        1       1.00000000      -0.00183470      -0.02493864      -0.09555380
Pt      11.70096339       6.78487658       6.78213547        1       0.00000000      -0.05855358      -0.03808127       0.06716092
