101
Lattice="14.06201159801613 3.1160625793574216e-06 -1.3301758008065295e-08 3.1160625793574216e-06 14.062011630348772 4.96101812785929e-07 0.0 0.0 35.966009058573086" Properties=species:S:1:pos:R:3:tags:I:1:initial_magmoms:R:1:forces:R:3 energy=-569.6635131835938 free_energy=-569.6635131835938 stress="0.014493907866228818 -2.4109345892011873e-06 7.149634843566328e-06 -2.4109345892011873e-06 0.014493909354320555 7.152233917855448e-06 7.149634843566328e-06 7.152233917855448e-06 0.00188791761953739" pbc="T T T"
Pt       1.40620147       1.40620147       0.00000001        0       0.00000000      -0.00802258      -0.00802546       0.25238326
Pt       4.21860379       1.40620210       0.00000001        0       0.00000000      -0.00236055       0.00219365       0.26768675
Pt       7.03100612       1.40620272       0.00000001        0       0.00000000      -0.00011898      -0.00733751       0.25380468
Pt       9.84340843       1.40620334       0.00000000        0       0.00000000       0.00231508       0.00242038       0.26804540
Pt      12.65581074       1.40620397       0.00000000        0       0.00000000       0.00826177      -0.00836872       0.25210288
Pt       1.40620210       4.21860380       0.00000011        0       0.00000000       0.00219194      -0.00236313       0.26766658
Pt       4.21860442       4.21860442       0.00000011        0       0.00000000       0.00232774       0.00232554       0.28089285
Pt       7.03100674       4.21860505       0.00000010        0       0.00000000       0.00002473      -0.00673045       0.26556692
Pt       9.84340905       4.21860567       0.00000010        0       0.00000000      -0.00243414       0.00255184       0.28193462
Pt      12.65581137       4.21860630       0.00000010        0       0.00000000      -0.00203135      -0.00272334       0.26743931
Pt       1.40620272       7.03100614       0.00000021        0       0.00000000      -0.00734108      -0.00012360       0.25378042
Pt       4.21860504       7.03100675       0.00000020        0       0.00000000      -0.00672788       0.00002515       0.26556647
Pt       7.03100736       7.03100738       0.00000020        0       0.00000000       0.00029035       0.00028777       0.25384107
Pt       9.84340967       7.03100800       0.00000020        0       0.00000000       0.00653885      -0.00017690       0.26650652
Pt      12.65581198       7.03100862       0.00000020        0       0.00000000       0.00693049      -0.00016560       0.25397387
Pt       1.40620334       9.84340845       0.00000031        0       0.00000000       0.00241971       0.00231798       0.26802880
Pt       4.21860567       9.84340907       0.00000030        0       0.00000000       0.00256705      -0.00240803       0.28193280
Pt       7.03100798       9.84340969       0.00000030        0       0.00000000      -0.00018214       0.00654565       0.26650760
Pt       9.84341030       9.84341032       0.00000030        0       0.00000000      -0.00286980      -0.00287167       0.28259510
Pt      12.65581261       9.84341095       0.00000030        0       0.00000000      -0.00210738       0.00245457       0.26760459
Pt       1.40620397      12.65581077       0.00000040        0       0.00000000      -0.00835987       0.00825537       0.25208625
Pt       4.21860629      12.65581139       0.00000040        0       0.00000000      -0.00272016      -0.00203595       0.26744029
Pt       7.03100861      12.65581201       0.00000040        0       0.00000000      -0.00018608       0.00691439       0.25397223
Pt       9.84341093      12.65581263       0.00000040        0       0.00000000       0.00245667      -0.00210551       0.26760459
Pt      12.65581324      12.65581327       0.00000039        0       0.00000000       0.00818844       0.00819348       0.25182787
Pt      -0.00000000       0.00000007       1.98866953        1       0.00000000       0.00036629       0.00037564      -0.27978155
Pt       2.81240232       0.00000069       1.98866953        1       0.00000000       0.02779985      -0.00087710      -0.26064038
Pt       5.62480464       0.00000131       1.98866952        1       0.00000000      -0.00068586      -0.00168382      -0.25004369
Pt       8.43720697       0.00000194       1.98866952        1       0.00000000       0.00149696       0.00039221      -0.24995971
Pt      11.24960929       0.00000256       1.98866952        1       0.00000000      -0.02787798       0.00128972      -0.26082098
Pt       0.00000061       2.81240239       1.98866963        1       0.00000000      -0.00088601       0.02779229      -0.26063749
Pt       2.81240294       2.81240302       1.98866962        1       0.00000000       0.04748300       0.04747516      -0.23020278
Pt       5.62480526       2.81240364       1.98866962        1       0.00000000      -0.03075567       0.03485660      -0.23391499
Pt       8.43720759       2.81240426       1.98866962        1       0.00000000       0.03143809       0.03847349      -0.23087521
Pt      11.24960990       2.81240488       1.98866962        1       0.00000000      -0.04849092       0.04933636      -0.23096181
Pt       0.00000124       5.62480473       1.98866973        1       0.00000000      -0.00168853      -0.00068551      -0.25003982
Pt       2.81240356       5.62480534       1.98866972        1       0.00000000       0.03486425      -0.03075681      -0.23390515
Pt       5.62480589       5.62480598       1.98866972        1       0.00000000      -0.05374549      -0.05374378      -0.35966623
Pt       8.43720821       5.62480659       1.98866972        1       0.00000000       0.05551406      -0.04836866      -0.35937482
Pt      11.24961052       5.62480722       1.98866971        1       0.00000000      -0.03929710      -0.02827558      -0.22942771
Pt       0.00000187       8.43720706       1.98866983        1       0.00000000       0.00038284       0.00150243      -0.24994779
Pt       2.81240418       8.43720768       1.98866982        1       0.00000000       0.03848056       0.03143857      -0.23085943
Pt       5.62480651       8.43720830       1.98866982        1       0.00000000      -0.04836798       0.05551238      -0.35937440
Pt       8.43720883       8.43720891       1.98866982        1       0.00000000       0.05257459       0.05257432      -0.35860962
Pt      11.24961114       8.43720955       1.98866981        1       0.00000000      -0.03856705       0.02938634      -0.22892843
Pt       0.00000249      11.24960939       1.98866992        1       0.00000000       0.00129188      -0.02788389      -0.26080981
Pt       2.81240480      11.24961001       1.98866992        1       0.00000000       0.04933774      -0.04848602      -0.23095115
Pt       5.62480714      11.24961062       1.98866992        1       0.00000000      -0.02827619      -0.03929444      -0.22943796
Pt       8.43720946      11.24961125       1.98866992        1       0.00000000       0.02938821      -0.03856804      -0.22892636
Pt      11.24961177      11.24961187       1.98866991        1       0.00000000      -0.04704911      -0.04704541      -0.23288339
Pt       1.40599213       1.40599257       3.93794644        2       0.00000000      -0.00065120      -0.00064938       0.00038549
Pt       4.21919104       1.41396953       3.93683625        2       0.00000000      -0.00028113      -0.00076246       0.00117187
Pt       7.03115448       1.41153900       3.94026927        2       0.00000000      -0.00008814       0.00045042       0.00182627
Pt       9.84286484       1.41541098       3.93693546        2       0.00000000       0.00035546      -0.00202105       0.00073771
Pt      12.65594525       1.40625205       3.93780434        2       0.00000000       0.00089702      -0.00063579       0.00069284
Pt       1.41396952       4.21919179       3.93683694        2       0.00000000      -0.00076512      -0.00027956       0.00116429
Pt       4.24387941       4.24387924       3.97443794        2       0.00000000      -0.00177092      -0.00177214      -0.00190751
Pt       7.03125835       4.22561148       3.95100159        2       0.00000000      -0.00005014      -0.00104895      -0.00361896
Pt       9.81697424       4.24626277       3.97580514        2       0.00000000       0.00367027      -0.00471448      -0.00384741
Pt      12.64718638       4.21948261       3.93690157        2       0.00000000       0.00267140      -0.00022308       0.00087547
Pt       1.41153874       7.03115445       3.94027026        2       0.00000000       0.00044960      -0.00008700       0.00183292
Pt       4.22561138       7.03125851       3.95100182        2       0.00000000      -0.00104704      -0.00004702      -0.00362471
Pt       7.03190874       7.03190833       3.89609160        2       0.00000000      -0.00037588      -0.00037399      -0.01498497
Pt       9.83565258       7.03183928       3.95389103        2       0.00000000       0.00341510      -0.00037092      -0.00620043
Pt      12.64981187       7.03119697       3.94057314        2       0.00000000       0.00097125       0.00016649       0.00134185
Pt       1.41541081       9.84286526       3.93693589        2       0.00000000      -0.00202018       0.00036453       0.00072674
Pt       4.24626237       9.81697424       3.97580514        2       0.00000000      -0.00471524       0.00366876      -0.00383863
Pt       7.03183928       9.83565211       3.95389043        2       0.00000000      -0.00036981       0.00341190      -0.00619301
Pt       9.81718696       9.81718655       3.97552993        2       0.00000000       0.00414038       0.00415106      -0.00540080
Pt      12.64815018       9.84303265       3.93653820        2       0.00000000       0.00165106       0.00050732       0.00191393
Pt       1.40625203      12.65594538       3.93780519        2       0.00000000      -0.00063609       0.00088528       0.00068620
Pt       4.21948194      12.64718647       3.93690234        2       0.00000000      -0.00022153       0.00267246       0.00086604
Pt       7.03119733      12.64981185       3.94057353        2       0.00000000       0.00016653       0.00096968       0.00133984
Pt       9.84303218      12.64814951       3.93653869        2       0.00000000       0.00051084       0.00165009       0.00192006
Pt      12.65619785      12.65619804       3.93773230        2       0.00000000       0.00086709       0.00085589       0.00037026
Pt      -0.00002331      -0.00002209       5.87944186        3       0.00000000       0.00046157       0.00047517       0.00397506
Pt       2.81748767      -0.00017218       5.87866869        3       0.00000000      -0.00059778       0.00029522       0.00240424
Pt       5.62519926       0.00029916       5.87898140        3       0.00000000      -0.00265446       0.00079337       0.00191972
Pt       8.43709741       0.00187425       5.87882449        3       0.00000000       0.00288658      -0.00074138       0.00159714
Pt      11.24464332       0.00055721       5.87857316        3       0.00000000       0.00070142       0.00044136       0.00238931
Pt      -0.00017229       2.81748833       5.87866805        3       0.00000000       0.00026711      -0.00059639       0.00241804
Pt       2.80301811       2.80301851       5.88317123        3       0.00000000      -0.00090098      -0.00092110       0.00041980
Pt       5.61723733       2.80590801       5.88911874        3       0.00000000      -0.00060874      -0.00152921      -0.00083911
Pt       8.44501256       2.80833147       5.88930669        3       0.00000000       0.00084968      -0.00344052      -0.00097644
Pt      11.25942631       2.80331041       5.88358989        3       0.00000000       0.00075257      -0.00074193      -0.00039059
Pt       0.00029877       5.62519928       5.87898281        3       0.00000000       0.00083793      -0.00264011       0.00189602
Pt       2.80590896       5.61723765       5.88911895        3       0.00000000      -0.00154510      -0.00060060      -0.00083748
Pt       5.65464845       5.65464877       5.95550822        3       0.00000000       0.00073630       0.00072768      -0.00276385
Pt       8.40206985       5.65627581       5.96319737        3       0.00000000       0.00865069      -0.00390688      -0.00846770
Pt      11.25640234       5.61730801       5.89017338        3       0.00000000       0.00412958       0.00032673      -0.00213587
Pt       0.00187332       8.43709839       5.87882338        3       0.00000000      -0.00075556       0.00286236       0.00161946
Pt       2.80833159       8.44501268       5.88930686        3       0.00000000      -0.00342052       0.00084368      -0.00098020
Pt       5.65627586       8.40206945       5.96319729        3       0.00000000      -0.00391081       0.00866166      -0.00846838
Pt       8.40941822       8.40941795       5.96850533        3       0.00000000       0.00354835       0.00354818      -0.01312545
Pt      11.25858825       8.44690405       5.88995451        3       0.00000000       0.00205604      -0.00086113      -0.00133029
Pt       0.00055977      11.24464478       5.87857583        3       0.00000000       0.00043574       0.00072302       0.00237259
Pt       2.80331132      11.25942664       5.88359020        3       0.00000000      -0.00073148       0.00075584      -0.00038776
Pt       5.61730817      11.25640183       5.89017326        3       0.00000000       0.00032117       0.00410397      -0.00213611
Pt       8.44690415      11.25858840       5.88995463        3       0.00000000      -0.00084414       0.00206402      -0.00132948
Pt      11.26028882      11.26028778       5.88339653        3       0.00000000       0.00158435       0.00160492       0.00008908
O        7.06252226       7.06252204       7.00939594        0       0.00000000      -0.02280406      -0.02280260      -0.02497813
