101
Lattice="14.06201159801613 3.1160625793574216e-06 -1.3301758008065295e-08 3.1160625793574216e-06 14.062011630348772 4.96101812785929e-07 0.0 0.0 35.966009058573086" Properties=species:S:1:pos:R:3:tags:I:1:initial_magmoms:R:1:forces:R:3 energy=-569.0402221679688 free_energy=-569.0402221679688 stress="0.014083076987502639 -3.2142590790023907e-07 2.5312547625071095e-06 -3.2142590790023907e-07 0.014083078475594377 2.535389158007554e-06 2.5312547625071095e-06 2.535389158007554e-06 0.0017662880693709382" pbc="T T T"
Pt       1.40620147       1.40620147       0.00000001        0       0.00000000      -0.00581916      -0.00581781       0.25357983
Pt       4.21860379       1.40620210       0.00000001        0       0.00000000      -0.00267582       0.00107161       0.26249099
Pt       7.03100612       1.40620272       0.00000001        0       0.00000000       0.00255969       0.00136573       0.26300448
Pt       9.84340843       1.40620334       0.00000000        0       0.00000000       0.00592478      -0.00601648       0.25320688
Pt      12.65581074       1.40620397       0.00000000        0       0.00000000      -0.00011134       0.00090173       0.26397306
Pt       1.40620210       4.21860380       0.00000011        0       0.00000000       0.00107225      -0.00267724       0.26246685
Pt       4.21860442       4.21860442       0.00000011        0       0.00000000       0.00535167       0.00534860       0.27861196
Pt       7.03100674       4.21860505       0.00000010        0       0.00000000      -0.00545305       0.00550165       0.27920258
Pt       9.84340905       4.21860567       0.00000010        0       0.00000000      -0.00115973      -0.00280573       0.26223463
Pt      12.65581137       4.21860630       0.00000010        0       0.00000000       0.00004107      -0.00073987       0.26477176
Pt       1.40620272       7.03100614       0.00000021        0       0.00000000       0.00136088       0.00255864       0.26298174
Pt       4.21860504       7.03100675       0.00000020        0       0.00000000       0.00550360      -0.00545840       0.27920413
Pt       7.03100736       7.03100738       0.00000020        0       0.00000000      -0.00557514      -0.00557728       0.27970755
Pt       9.84340967       7.03100800       0.00000020        0       0.00000000      -0.00145796       0.00264749       0.26276278
Pt      12.65581198       7.03100862       0.00000020        0       0.00000000       0.00005891       0.00074481       0.26494965
Pt       1.40620334       9.84340845       0.00000031        0       0.00000000      -0.00602088       0.00592982       0.25318587
Pt       4.21860567       9.84340907       0.00000030        0       0.00000000      -0.00279566      -0.00113545       0.26223445
Pt       7.03100798       9.84340969       0.00000030        0       0.00000000       0.00264470      -0.00145202       0.26276308
Pt       9.84341030       9.84341032       0.00000030        0       0.00000000       0.00613210       0.00613120       0.25283000
Pt      12.65581261       9.84341095       0.00000030        0       0.00000000      -0.00011984      -0.00083946       0.26378497
Pt       1.40620397      12.65581077       0.00000040        0       0.00000000       0.00091099      -0.00011707       0.26394814
Pt       4.21860629      12.65581139       0.00000040        0       0.00000000      -0.00073749       0.00003281       0.26477316
Pt       7.03100861      12.65581201       0.00000040        0       0.00000000       0.00072345       0.00004407       0.26495084
Pt       9.84341093      12.65581263       0.00000040        0       0.00000000      -0.00083571      -0.00011995       0.26378614
Pt      12.65581324      12.65581327       0.00000039        0       0.00000000      -0.00004555      -0.00004374       0.27174944
Pt      -0.00000000       0.00000007       1.98866953        1       0.00000000      -0.01156517      -0.01155381      -0.28944328
Pt       2.81240232       0.00000069       1.98866953        1       0.00000000       0.00477342      -0.00083466      -0.28785273
Pt       5.62480464       0.00000131       1.98866952        1       0.00000000       0.00045120       0.00216419      -0.28341112
Pt       8.43720697       0.00000194       1.98866952        1       0.00000000      -0.00553673      -0.00062737      -0.28756022
Pt      11.24960929       0.00000256       1.98866952        1       0.00000000       0.01188183      -0.01169748      -0.28966418
Pt       0.00000061       2.81240239       1.98866963        1       0.00000000      -0.00084825       0.00476316      -0.28785118
Pt       2.81240294       2.81240302       1.98866962        1       0.00000000       0.02461014       0.02459936      -0.27749664
Pt       5.62480526       2.81240364       1.98866962        1       0.00000000       0.00158712       0.06976625      -0.19392191
Pt       8.43720759       2.81240426       1.98866962        1       0.00000000      -0.02603768       0.02459067      -0.27679890
Pt      11.24960990       2.81240488       1.98866962        1       0.00000000       0.00146732       0.00455158      -0.28782496
Pt       0.00000124       5.62480473       1.98866973        1       0.00000000       0.00215675       0.00045047      -0.28340936
Pt       2.81240356       5.62480534       1.98866972        1       0.00000000       0.06977719       0.00158775      -0.19391093
Pt       5.62480589       5.62480598       1.98866972        1       0.00000000       0.00358234       0.00358352      -0.32293028
Pt       8.43720821       5.62480659       1.98866972        1       0.00000000      -0.07208028       0.00164226      -0.19010046
Pt      11.24961052       5.62480722       1.98866971        1       0.00000000      -0.00069289       0.00041166      -0.28417936
Pt       0.00000187       8.43720706       1.98866983        1       0.00000000      -0.00064292      -0.00553335      -0.28755105
Pt       2.81240418       8.43720768       1.98866982        1       0.00000000       0.02459997      -0.02603708      -0.27678391
Pt       5.62480651       8.43720830       1.98866982        1       0.00000000       0.00164008      -0.07207870      -0.19009896
Pt       8.43720883       8.43720891       1.98866982        1       0.00000000      -0.02583503      -0.02583773      -0.27632731
Pt      11.24961114       8.43720955       1.98866981        1       0.00000000       0.00134048      -0.00524562      -0.28758067
Pt       0.00000249      11.24960939       1.98866992        1       0.00000000      -0.01170562       0.01187301      -0.28965932
Pt       2.81240480      11.24961001       1.98866992        1       0.00000000       0.00456056       0.00146679      -0.28781557
Pt       5.62480714      11.24961062       1.98866992        1       0.00000000       0.00040080      -0.00068994      -0.28419152
Pt       8.43720946      11.24961125       1.98866992        1       0.00000000      -0.00523634       0.00133538      -0.28758997
Pt      11.24961177      11.24961187       1.98866991        1       0.00000000       0.01201746       0.01202259      -0.28987792
Pt       1.40006820       1.40006824       3.93574561        2       0.00000000       0.00050277       0.00049910       0.00361437
Pt       4.21501937       1.40891828       3.93324132        2       0.00000000       0.00404688       0.00223030       0.00853342
Pt       7.03441441       1.40919616       3.93333650        2       0.00000000      -0.00432346       0.00268102       0.00835273
Pt       9.84959671       1.39982423       3.93572225        2       0.00000000      -0.00051855       0.00039421       0.00353527
Pt      12.65585402       1.40459048       3.94127844        2       0.00000000       0.00001196      -0.00428544       0.00056738
Pt       1.40891802       4.21501949       3.93324075        2       0.00000000       0.00223431       0.00404877       0.00854380
Pt       4.23793254       4.23793283       3.96980621        2       0.00000000      -0.00145066      -0.00144924       0.00121056
Pt       7.01168571       4.23841189       3.97109323        2       0.00000000       0.00046575      -0.00165268       0.00064410
Pt       9.84113206       4.21450010       3.93279015        2       0.00000000      -0.00253878       0.00472970       0.00895055
Pt      12.65604332       4.21603827       3.93805984        2       0.00000000       0.00047220      -0.00160452      -0.00621353
Pt       1.40919589       7.03441439       3.93333598        2       0.00000000       0.00269968      -0.00432354       0.00835398
Pt       4.23841251       7.01168614       3.97109300        2       0.00000000      -0.00166022       0.00046545       0.00063878
Pt       7.01143982       7.01143998       3.97250102        2       0.00000000       0.00090922       0.00090588       0.00007325
Pt       9.84089943       7.03495917       3.93288743        2       0.00000000      -0.00293139      -0.00497219       0.00882085
Pt      12.65604496       7.03355526       3.93805529        2       0.00000000       0.00047147       0.00158918      -0.00637259
Pt       1.39982287       9.84959756       3.93572262        2       0.00000000       0.00039795      -0.00052412       0.00354490
Pt       4.21449941       9.84113169       3.93279086        2       0.00000000       0.00472647      -0.00254039       0.00895034
Pt       7.03495910       9.84089929       3.93288661        2       0.00000000      -0.00497332      -0.00294088       0.00883071
Pt       9.84984259       9.84984280       3.93571410        2       0.00000000      -0.00041625      -0.00041035       0.00345865
Pt      12.65585444       9.84501711       3.94129421        2       0.00000000       0.00001113       0.00428657       0.00059788
Pt       1.40459041      12.65585367       3.94127830        2       0.00000000      -0.00429075       0.00002334       0.00057292
Pt       4.21603584      12.65604363       3.93806116        2       0.00000000      -0.00158490       0.00045716      -0.00622344
Pt       7.03355641      12.65604237       3.93805187        2       0.00000000       0.00157070       0.00050005      -0.00634505
Pt       9.84501723      12.65585406       3.94129470        2       0.00000000       0.00429093       0.00000402       0.00059913
Pt      12.65581727      12.65581791       3.94168802        2       0.00000000      -0.00003438      -0.00003385       0.00195271
Pt      -0.00035816      -0.00035835       5.88635984        3       0.00000000      -0.00159686      -0.00158814       0.00631815
Pt       2.81228458      -0.00304092       5.88437939        3       0.00000000       0.00060894      -0.00107347      -0.00277340
Pt       5.62482317      -0.01639613       5.88261990        3       0.00000000       0.00021589       0.00993319      -0.00813118
Pt       8.43728905      -0.00308138       5.88438341        3       0.00000000      -0.00096368      -0.00103998      -0.00299609
Pt      11.24996843      -0.00038199       5.88640503        3       0.00000000       0.00165236      -0.00149865       0.00637510
Pt      -0.00304191       2.81228518       5.88437913        3       0.00000000      -0.00107212       0.00060942      -0.00277340
Pt       2.78968918       2.78969167       5.87370170        3       0.00000000       0.00586298       0.00585786       0.00516516
Pt       5.62404406       2.75812599       5.87432126        3       0.00000000      -0.00044572       0.03284738       0.01881856
Pt       8.45973434       2.78928860       5.87340511        3       0.00000000      -0.00561999       0.00602988       0.00441772
Pt      11.25290514       2.81221099       5.88437212        3       0.00000000       0.00114082       0.00082820      -0.00323537
Pt      -0.01639165       5.62482383       5.88262043        3       0.00000000       0.00988105       0.00015141      -0.00812471
Pt       2.75812777       5.62404377       5.87432253        3       0.00000000       0.03283354      -0.00045338       0.01881117
Pt       5.61779722       5.61779760       6.07508948        3       0.00000000       0.00222905       0.00222099       0.03514692
Pt       8.49562291       5.62404244       5.87191999        3       0.00000000      -0.03442197      -0.00040976       0.01980090
Pt      11.26748877       5.62481891       5.88271909        3       0.00000000      -0.00898911       0.00015637      -0.00934303
Pt      -0.00307996       8.43728938       5.88438378        3       0.00000000      -0.00105146      -0.00095114      -0.00299448
Pt       2.78928582       8.45973098       5.87340527        3       0.00000000       0.00608179      -0.00556774       0.00441164
Pt       5.62404195       8.49562230       5.87191985        3       0.00000000      -0.00041241      -0.03441294       0.01979697
Pt       8.46015823       8.46015860       5.87323536        3       0.00000000      -0.00572187      -0.00560068       0.00383660
Pt      11.25294347       8.43737517       5.88438814        3       0.00000000       0.00119168      -0.00117793      -0.00339663
Pt      -0.00038317      11.24997163       5.88640590        3       0.00000000      -0.00148644       0.00163014       0.00637445
Pt       2.81221114      11.25290332       5.88437220        3       0.00000000       0.00083527       0.00115152      -0.00323352
Pt       5.62482089      11.26748863       5.88271972        3       0.00000000       0.00020607      -0.00905214      -0.00934941
Pt       8.43737306      11.25294487       5.88438946        3       0.00000000      -0.00116105       0.00119795      -0.00340360
Pt      11.25000738      11.25000901       5.88645243        3       0.00000000       0.00152988       0.00154866       0.00644246
O        5.65672753       5.65672725       7.87864940        0       0.00000000      -0.00355789      -0.00356548       0.01552396
