64
Lattice="10.409707602516786 0.024816943814247733 -0.027708772115877536 5.226345905045879 8.991288040114288 0.006597395537140938 -0.022624117694319726 0.019282124604302977 8.918193515652908" Properties=species:S:1:pos:R:3:tags:I:1:initial_magmoms:R:1:forces:R:3 unique_id=9a82410c3ca54488a20bda9976e9af9c stress="0.00298386080324297 -2.9757497232343183e-06 -2.5619042340381367e-06 -2.9757497232343183e-06 0.0030239066722636057 1.3532809935238518e-05 -2.5619042340381367e-06 1.3532809935238518e-05 0.002546924161019627" energy=-403.4582489861539 pbc="T T T"
Ni      -0.04676912       0.00493983       0.20955356        4       1.00000000      -0.10122488      -0.00010635       0.17980093
Ni       2.62807378      -0.00906464       0.10703367        4       1.00000000       0.07728717      -0.00789313       0.13856541
Ni       5.20358517      -0.01239014       0.14113150        4       1.00000000       0.01335003       0.04630615       0.12166188
Ni       7.83618722      -0.03563976       0.09801499        4       1.00000000       0.03866791      -0.10074221       0.11503264
Pt       1.26883515       2.21296688       0.15632626        4       0.00000000      -0.01104365      -0.04619648      -0.10802756
Pt       3.88605413       2.19478602       0.10761199        4       0.00000000      -0.00470449       0.01124576      -0.09672067
Pt       6.54175757       2.13728112       0.12895238        4       0.00000000       0.01297176      -0.10648750      -0.11144335
Ni       9.11921691       2.22478551       0.13029701        4       1.00000000      -0.01857406      -0.11077500       0.07898998
Ni       2.59589840       4.52310261       0.15612216        4       1.00000000       0.04597099      -0.02649736       0.12160957
Pt       5.19876744       4.52160513       0.15748958        4       0.00000000       0.10386307      -0.04416036      -0.00021981
Pt       7.90916975       4.52722894      -0.00131736        4       0.00000000       0.08778855       0.01082156      -0.21078508
Ni      10.44325261       4.55560424       0.03946541        4       1.00000000       0.06306318       0.07668417       0.00409281
Ni       3.87301565       6.79909518       0.19864522        4       1.00000000      -0.01061925       0.04580335       0.17480438
Pt       6.53079710       6.85395260       0.20500370        4       0.00000000      -0.00293785       0.02404828       0.02297430
Ni       9.15710948       6.79522387       0.05596542        4       1.00000000       0.02364036       0.07021687       0.00643647
Ni      11.74291968       6.78974635       0.04797795        4       1.00000000       0.07205607       0.08770497      -0.02992326
Ni       1.30917849       0.70852691       2.21903519        3       1.00000000       0.02024995      -0.03750206      -0.04285645
Ni       3.88793523       0.77759934       2.23902634        3       1.00000000       0.01290534       0.01701109       0.00511686
Ni       6.51304472       0.74464688       2.26027864        3       1.00000000       0.03043375      -0.01597445       0.10213083
Ni       9.09877556       0.72370582       2.17930914        3       1.00000000      -0.03901967      -0.02339914      -0.02188857
Ni       2.63966316       2.98771293       2.24739501        3       1.00000000      -0.00082425       0.04525760      -0.03588995
Ni       5.16893757       2.95988779       2.28596782        3       1.00000000      -0.06128752      -0.09623244       0.03673528
Pt       7.78870129       2.93690005       2.26554735        3       0.00000000      -0.01218600       0.02761988      -0.03053647
Pt      10.40417542       2.94078044       2.26684394        3       0.00000000      -0.00470629      -0.00689117       0.06758780
Pt       3.90293766       5.26591544       2.27198422        3       0.00000000      -0.01640346       0.02238568       0.09849642
Ni       6.51597706       5.28025883       2.25578664        3       1.00000000       0.00138775       0.03105691       0.02748417
Pt       9.06632507       5.31534786       2.30149689        3       0.00000000      -0.06589249      -0.02212767      -0.00759618
Pt      11.72566914       5.30459331       2.17229629        3       0.00000000      -0.06707367       0.02943937       0.02034942
Ni       5.19693500       7.54806274       2.21871776        3       1.00000000      -0.06055706       0.02842614       0.03548280
Ni       7.81062301       7.56043155       2.24449273        3       1.00000000       0.02555009       0.08027341       0.02573313
Pt      10.42176597       7.58870711       2.14971259        3       0.00000000      -0.01871632      -0.01594505       0.03518650
Ni      13.04109987       7.57070684       2.18466617        3       1.00000000      -0.05163991       0.04509410       0.00729814
Ni      -0.04080311       1.52811343       4.42406726        2       1.00000000      -0.02471180       0.03603415       0.01271403
Pt       2.66092703       1.55552516       4.34571461        2       0.00000000       0.02656108       0.02684153      -0.13077329
Ni       5.20250914       1.53011101       4.36791804        2       1.00000000       0.02557921      -0.05082373      -0.17090195
Ni       7.81264300       1.52328405       4.39608449        2       1.00000000       0.02264962       0.02085245      -0.07698076
Pt       1.26612806       3.81839510       4.42544228        2       0.00000000       0.03875368       0.06750233      -0.01630189
Ni       3.90207554       3.74508308       4.40579961        2       1.00000000       0.00503178       0.05226823      -0.07362280
Pt       6.52759258       3.74446582       4.36739588        2       0.00000000      -0.02240197      -0.00775427      -0.10058133
Ni       9.11003227       3.79670082       4.44427765        2       1.00000000       0.01391085       0.00847528      -0.07077322
Ni       2.58401801       6.00753174       4.43969413        2       1.00000000       0.00507145       0.06043147      -0.02582586
Pt       5.20574177       6.01296623       4.37992357        2       0.00000000       0.00271100       0.08585713       0.03710063
Ni       7.85623803       5.97947104       4.43074324        2       1.00000000      -0.00756354      -0.00444275      -0.04033350
Ni      10.39430969       6.01044392       4.47875335        2       1.00000000       0.00321202       0.01873624      -0.01685117
Pt       3.88711766       8.31389050       4.34234312        2       0.00000000       0.00520690       0.02637881       0.00535859
Pt       6.52051245       8.29323669       4.33619287        2       0.00000000      -0.02693113       0.08418355       0.01523151
Pt       9.11705531       8.20303998       4.41480186        2       0.00000000      -0.01472754       0.00605076      -0.00772867
Pt      11.73044550       8.27125832       4.41873247        2       0.00000000      -0.02195520       0.01064438       0.03170867
Pt      -0.01885257       0.01357480       6.67587234        1       0.00000000       0.01584645      -0.00915870       0.17248030
Ni       2.61625609       0.01056161       6.61712229        1       1.00000000       0.00971330      -0.02354705      -0.06317017
Pt       5.14752442      -0.04776041       6.66984199        1       0.00000000      -0.04880722      -0.11559912       0.13190069
Ni       7.77233704       0.02556852       6.60143922        1       1.00000000      -0.01733606       0.00958984      -0.04140285
Pt       1.32674101       2.24122264       6.56035240        1       0.00000000       0.05240676      -0.06133984      -0.00515331
Ni       3.89112337       2.24117615       6.52884051        1       1.00000000       0.03627804      -0.04152941      -0.15094702
Pt       6.48997547       2.20219020       6.51341483        1       0.00000000      -0.04953054      -0.10981345      -0.05244200
Pt       9.09130229       2.34298667       6.57541544        1       0.00000000       0.03269512       0.02175103       0.06119840
Pt       2.53057712       4.53784047       6.65019252        1       0.00000000      -0.05409972       0.04724804       0.13607528
Pt       5.19333391       4.47619660       6.55346924        1       0.00000000      -0.05366039      -0.00588972       0.07240171
Ni       7.85830067       4.53464866       6.48203803        1       1.00000000       0.03332463      -0.01579896      -0.23428337
Ni      10.35818076       4.59195197       6.57450037        1       1.00000000      -0.06520164       0.04146048      -0.10709659
Pt       3.81348418       6.80120069       6.67769317        1       0.00000000      -0.06047303       0.02185718       0.15824255
Pt       6.63374256       6.74928218       6.57274659        1       0.00000000       0.08417526      -0.00588723       0.05404916
Ni       9.15035506       6.70954090       6.59356428        1       1.00000000       0.06747664      -0.16149188      -0.10226596
Ni      11.65714954       6.75373662       6.59114310        1       1.00000000      -0.09497914      -0.07155171      -0.13070819
