64
Lattice="10.29893119800241 0.003978287680309092 0.02567159192936326 5.152910897195911 8.870664488945536 -0.02000566630520684 0.0 0.0 21.554259590994683" Properties=species:S:1:pos:R:3:tags:I:1:initial_magmoms:R:1:forces:R:3 unique_id=5a9fb3e8ffdb41d5bbb84022a1385ec7 stress="0.005922735240897503 3.1712434589354335e-05 0.00011443712701739579 3.1712434589354335e-05 0.005832053817043938 -0.00019600228470552936 0.00011443712701739579 -0.00019600228470552936 -0.0013849591578633282" energy=-375.5859789338434 pbc="T T T"
Ni       0.01343172      -0.00278199       0.13497176        1       1.00000000       0.09715762       0.05031317      -0.05701339
Ni       2.54547242       0.01361982       0.16288666        2       1.00000000      -0.06761254       0.07908801       0.00897434
Pt       5.14571612      -0.04755376       0.10628185        1       0.00000000      -0.04775422       0.13961743      -0.94647981
Ni       7.75130505      -0.05734310       0.16232596        2       1.00000000      -0.06335607      -0.06622924      -0.17072383
Ni       1.29016825       2.22102389       0.06251538        1       1.00000000      -0.00790488       0.01366469       0.40231256
Pt       3.75577033       2.21924731       0.14046321        1       0.00000000       0.04169689      -0.00150536      -0.31854685
Pt       6.45837848       2.19083298       0.07514702        1       0.00000000       0.01063673      -0.02911905      -0.12356355
Pt       9.11583516       2.21044025       0.09749707        1       0.00000000       0.01226829       0.14345687      -0.47184396
Ni       2.53508380       4.46183057       0.00971026        0       1.00000000      -0.01870613      -0.01885771       0.23442916
Pt       5.06796726       4.49388190       0.05689539        1       0.00000000      -0.03166299       0.09516186       0.01575677
Pt       7.77232337       4.47682036       0.00000000        0       0.00000000      -0.09093120       0.03267911      -0.25050579
Ni      10.36448065       4.45595015       0.03521228        0       1.00000000       0.07512434      -0.01433647       0.27675899
Ni       3.80979289       6.68244328       0.04858279        0       1.00000000      -0.01857616       0.05093818       0.38040488
Pt       6.42875883       6.74845148       0.13135037        1       0.00000000      -0.02950678       0.00164378      -0.36867603
Ni       9.03927888       6.64955876       0.10833833        1       1.00000000      -0.05606526      -0.01586485      -0.21229822
Ni      11.62990701       6.62079373       0.03684522        0       1.00000000       0.06630043       0.03677690       0.26427895
Ni       1.32187545       0.74226965       2.19177328        4       1.00000000       0.05630018       0.05870266       0.23785169
Ni       3.82626740       0.76873006       2.22415931        4       1.00000000      -0.06153145       0.11891737       0.29851803
Ni       6.44572914       0.77071327       2.23018417        4       1.00000000      -0.04660009       0.15204040       0.30095624
Pt       9.03794887       0.72383930       2.23564934        4       0.00000000       0.06890863       0.10673344       0.05308206
Ni       2.57216114       2.92257265       2.24017963        4       1.00000000       0.04364402      -0.12041385       0.29259361
Ni       5.13326215       2.95187851       2.22895770        4       1.00000000      -0.11500710      -0.02495767       0.17541741
Ni       7.71003857       2.93688646       2.23011273        4       1.00000000      -0.04859947      -0.05274061       0.17024126
Ni      10.35523784       2.92824459       2.23637733        4       1.00000000       0.15094511      -0.13373179       0.29723541
Ni       3.88915642       5.17305756       2.21126184        4       1.00000000       0.12053433      -0.06678750       0.23411023
Ni       6.40594627       5.17779755       2.21796158        4       1.00000000      -0.05332543       0.00830361       0.15858975
Pt       8.98455544       5.12288771       2.26079452        5       0.00000000      -0.10865580      -0.23431309      -0.03166295
Pt      11.67823283       5.10882817       2.19781130        4       0.00000000       0.13647844      -0.17996413       0.10700786
Ni       5.16230284       7.36023149       2.18766156        4       1.00000000       0.05307552      -0.12958733       0.15741632
Ni       7.68515123       7.42106555       2.18842219        4       1.00000000      -0.13568610       0.04872629       0.22597760
Pt      10.31910016       7.36565622       2.17636877        4       0.00000000       0.06445242      -0.06705009      -0.13303884
Ni      12.92188716       7.35884278       2.13579721        3       1.00000000       0.12461015      -0.11433780       0.04841523
Ni       0.06762439       1.50597173       4.29296238        7       1.00000000       0.18797729       0.03636104      -0.16997850
Ni       2.54346371       1.51776311       4.27382196        7       1.00000000      -0.09448476       0.09740431      -0.25113860
Ni       5.15061703       1.50341183       4.27974488        7       1.00000000      -0.09927168       0.01174572      -0.43025506
Ni       7.73091323       1.49453115       4.32094412        7       1.00000000      -0.02222227      -0.02192128      -0.27393712
Ni       1.30671163       3.66645751       4.34471982        7       1.00000000       0.06426064      -0.08908142      -0.05184572
Ni       3.84000788       3.71696567       4.27625269        7       1.00000000      -0.12721742       0.03919433      -0.33540201
Pt       6.43543216       3.68827672       4.30085057        7       0.00000000      -0.04428205       0.00252828      -0.14921605
Ni       9.05703247       3.69865709       4.31783873        7       1.00000000       0.11925597      -0.05618190      -0.15015273
Ni       2.60462941       5.83031962       4.34697749        7       1.00000000       0.05034711      -0.18382151      -0.04767905
Ni       5.13606635       5.86026331       4.27431345        7       1.00000000      -0.02054667      -0.15758808      -0.31335991
Ni       7.72101768       5.87934616       4.30018719        7       1.00000000      -0.13951387       0.04373988      -0.25628957
Ni      10.34015470       5.83107641       4.36075998        8       1.00000000       0.12403357      -0.10163294      -0.00203449
Pt       3.94147200       8.04556376       4.27424588        7       0.00000000       0.11511758      -0.11205267       0.13297542
Ni       6.44440937       8.12303728       4.25112024        7       1.00000000      -0.05394976       0.04802920      -0.32551519
Pt       8.93368219       8.13764899       4.24910389        6       0.00000000      -0.09127160       0.11196308       0.00776701
Pt      11.63407327       8.09094034       4.27189491        7       0.00000000       0.02211540      -0.06983919       0.07727179
Pt       0.01499254       0.00199364       6.50448353       10       0.00000000       0.03130240       0.11758960       0.26435409
Pt       2.56377709       0.02221817       6.51124773       10       0.00000000       0.01045903       0.01900268       0.25297381
Pt       5.17114587       0.00821610       6.43439056        9       0.00000000      -0.04057940       0.22443666       0.98438577
Pt       7.73871315      -0.05464688       6.55425959       11       0.00000000       0.00004406       0.19585223       0.33776822
Ni       1.29954966       2.26871514       6.44028321        9       1.00000000       0.01186899       0.16580760      -0.34300439
Pt       3.85527119       2.32097335       6.36956272        9       0.00000000      -0.04703226       0.05836049       0.24662965
Ni       6.45306640       2.24161789       6.40045893        9       1.00000000      -0.02612054      -0.00978735       0.07273042
Pt       9.03828684       2.30040475       6.37108463        9       0.00000000      -0.00471099      -0.05897503       0.45876087
Ni       2.55826466       4.45594792       6.43272778        9       1.00000000      -0.00752966       0.00805668      -0.46653294
Ni       5.13763250       4.42246893       6.38777213        9       1.00000000      -0.14194210       0.07255671      -0.07071301
Ni       7.72442936       4.39521914       6.37688620        9       1.00000000      -0.03294706       0.01564086       0.12437729
Ni      10.38052791       4.41110884       6.45522673       10       1.00000000       0.15473838      -0.02901672      -0.36751902
Ni       3.84089392       6.55669830       6.45265887       10       1.00000000      -0.03632348      -0.17722468      -0.31901335
Pt       6.40412580       6.54499945       6.36742188        9       0.00000000       0.04224068       0.03200561       0.31737122
Pt       9.08158888       6.51311185       6.47689791       10       0.00000000      -0.03560871      -0.08483075       0.07217124
Ni      11.63681591       6.56097271       6.47815444       10       1.00000000       0.01114172      -0.01528866      -0.28192523
