64
Lattice="10.234499048675396 -0.0073901509373982995 -0.00927113174491535 5.1108494658881085 8.823482154456272 0.000910841084632076 0.0 0.0 21.4933079862231" Properties=species:S:1:pos:R:3:tags:I:1:initial_magmoms:R:1:forces:R:3 unique_id=b2ad93b5a5f64ef984eb54e0ab319764 stress="0.005122198162320225 -1.6169020090846044e-05 -0.0001770239098366049 -1.6169020090846044e-05 0.004783741888081176 9.423065255931851e-05 -0.0001770239098366049 9.423065255931851e-05 -0.0023237507641693817" energy=-372.1383454181352 pbc="T T T"
Ni       0.00261211       0.02426702       0.12577013        1       1.00000000       0.06575400      -0.00775892      -0.35349350
Ni       2.55251909       0.00481491       0.15697382        2       1.00000000      -0.01368286       0.03591461      -0.27963568
Ni       5.11560018      -0.01951805       0.09797617        1       1.00000000      -0.02339320       0.17726454      -0.33402319
Ni       7.67850102      -0.05318111       0.11036905        1       1.00000000      -0.10803861      -0.13370665      -0.27411027
Ni       1.24251364       2.21615076       0.05178798        1       1.00000000      -0.04566746       0.02663494       0.33710108
Pt       3.77342577       2.22228474       0.12544972        1       0.00000000      -0.00110448      -0.02085196      -0.59908445
Pt       6.41774557       2.15422214       0.04382638        0       0.00000000       0.02250084      -0.07712947      -0.06031057
Ni       9.00173280       2.20301187       0.07933469        1       1.00000000       0.01969276       0.13966605      -0.19094878
Ni       2.54935480       4.44251635       0.01414975        0       1.00000000       0.01002246       0.00120534       0.24844552
Ni       5.07811736       4.43549300       0.04292419        0       1.00000000      -0.02215381      -0.01701726       0.23314366
Pt       7.73851143       4.41997155       0.03522273        0       0.00000000       0.10282973       0.03482544      -0.05240191
Ni      10.27031654       4.39704778       0.01400566        0       1.00000000       0.03942391      -0.02525866       0.25020571
Ni       3.79661294       6.61107083       0.04704512        0       1.00000000      -0.07847449       0.02806677       0.30357794
Pt       6.34953194       6.66179010       0.04342557        0       0.00000000       0.00787224       0.07903541      -0.08977902
Ni       8.97107132       6.63094398       0.09657453        1       1.00000000      -0.11495034      -0.07323916      -0.30663371
Ni      11.53359238       6.60939175       0.00000000        0       1.00000000       0.07306578      -0.00280501       0.19568615
Ni       1.28801181       0.76269371       2.08658933        3       1.00000000       0.02226119       0.13822916      -0.00447101
Ni       3.83348740       0.74421329       2.13718848        3       1.00000000       0.08542154       0.01622006       0.16784590
Ni       6.38489268       0.74875082       2.17520767        4       1.00000000      -0.02883849       0.13904050       0.33760325
Pt       8.95336688       0.77202520       2.10570646        3       0.00000000      -0.02689681       0.13106031       0.08051020
Ni       2.54114340       2.95583148       2.14422658        3       1.00000000       0.00178029       0.06224004       0.00312845
Ni       5.10797154       2.95540970       2.17021904        4       1.00000000      -0.04302044       0.01279998       0.11853352
Ni       7.68637844       2.95532027       2.16416877        4       1.00000000       0.04248640       0.08500851       0.16914337
Ni      10.23270940       2.93877754       2.13201305        3       1.00000000       0.02766775       0.04295330       0.14192263
Ni       3.84900705       5.13419547       2.10437033        3       1.00000000       0.05406450      -0.10568717      -0.10017829
Ni       6.38708594       5.13911625       2.13967836        3       1.00000000       0.02351959      -0.02451635       0.04789027
Ni       8.93747436       5.12133233       2.17406880        4       1.00000000      -0.00431307      -0.09771839       0.24962697
Pt      11.53738867       5.09243518       2.13545874        3       0.00000000       0.03362852      -0.05717116       0.06303056
Ni       5.08784417       7.33105611       2.10961027        3       1.00000000      -0.12276576      -0.10598228      -0.00960231
Ni       7.65884026       7.33872410       2.11434124        3       1.00000000       0.02253160      -0.12511623       0.10990241
Pt      10.25605063       7.35762996       2.08442048        3       0.00000000       0.09191680      -0.04191350       0.09035049
Ni      12.80120715       7.32765947       2.09652487        3       1.00000000       0.07506601      -0.09462477       0.01291217
Ni      -0.02188755       1.54086840       4.26197760        6       1.00000000      -0.07938751       0.09304772      -0.12876760
Pt       2.52250655       1.57010943       4.18253634        5       0.00000000      -0.04629521       0.01276817       0.04255744
Ni       5.15258082       1.47362209       4.22724018        5       1.00000000       0.01752557      -0.09444117      -0.29044061
Ni       7.65844646       1.47571321       4.25025650        6       1.00000000       0.02975479      -0.08210577      -0.19216559
Ni       1.24555568       3.71815023       4.31073371        6       1.00000000      -0.06089612       0.02029486      -0.00977642
Ni       3.80006082       3.71457209       4.23113939        5       1.00000000      -0.14408372      -0.02752457      -0.32038600
Pt       6.42732617       3.62704235       4.24046085        5       0.00000000      -0.01703709      -0.03052289      -0.11510528
Ni       8.98958902       3.70190340       4.23456840        5       1.00000000       0.12182265       0.03196547      -0.26106241
Ni       2.49939729       5.84515823       4.31334919        6       1.00000000      -0.13156856      -0.09040236      -0.03348365
Pt       5.06218554       5.81926201       4.26239602        6       0.00000000      -0.02872805      -0.05309848      -0.16616675
Ni       7.70124728       5.83035078       4.24363308        5       1.00000000       0.08336169      -0.05798632      -0.33505994
Ni      10.25831985       5.82169742       4.28425869        6       1.00000000       0.00990291      -0.03407456      -0.11404543
Pt       3.74514537       8.07345648       4.22412835        5       0.00000000      -0.11333412      -0.03387666       0.05316556
Pt       6.38226728       8.07413027       4.17708874        5       0.00000000      -0.06852274       0.03978131      -0.17370617
Pt       8.99223593       8.06394108       4.21485644        5       0.00000000       0.01663656       0.01626207      -0.04661707
Ni      11.50580321       8.06589034       4.24439148        5       1.00000000      -0.06481646      -0.05563632      -0.16416460
Pt      -0.01145329      -0.02493160       6.47372605        9       0.00000000      -0.03209905       0.08135986       0.36644467
Pt       2.54228625       0.00394067       6.49330799        9       0.00000000       0.11574667       0.00581114       0.47051026
Pt       5.13661892       0.00089333       6.43324978        8       0.00000000      -0.02139996       0.13211013       0.43613122
Pt       7.65440094      -0.04267559       6.45070857        9       0.00000000       0.00271336       0.11278884       0.36953121
Ni       1.26544352       2.27764994       6.40345149        8       1.00000000       0.05996161       0.06411070      -0.18737873
Pt       3.84828778       2.33651603       6.35171541        8       0.00000000       0.09280908       0.06427505       0.58875437
Ni       6.39786919       2.24292778       6.33302448        7       1.00000000      -0.00087032      -0.02548717       0.30026621
Pt       8.95632508       2.30395516       6.38057638        8       0.00000000      -0.04232647      -0.04009252       0.03833348
Ni       2.52184902       4.46041982       6.38836798        8       1.00000000       0.03377891      -0.01780939      -0.33380702
Ni       5.11736232       4.45061476       6.42082830        8       1.00000000       0.04325139       0.00512691      -0.13291225
Ni       7.63062076       4.40965669       6.32278625        7       1.00000000      -0.06678163       0.01733811       0.16753981
Ni      10.28999570       4.40370319       6.37384986        8       1.00000000       0.11075971      -0.02503962      -0.26799391
Ni       3.80375028       6.54585171       6.42502314        8       1.00000000      -0.04182865      -0.07664800      -0.18626849
Ni       6.36668717       6.55909830       6.34311015        7       1.00000000       0.08780180      -0.01965818       0.19342265
Pt       8.96138911       6.48049195       6.42645080        8       0.00000000      -0.06287963      -0.08904609       0.16603427
Ni      11.53325480       6.54620913       6.38218648        8       1.00000000       0.00882250       0.01674170      -0.23927076
