64
Lattice="10.292524620308086 0.006903560997634696 -0.040656649632088794 5.152240969354571 8.875306399339525 -0.09175720498630467 -0.03319601541657708 -0.06734379405460296 8.792231593211847" Properties=species:S:1:pos:R:3:tags:I:1:initial_magmoms:R:1:forces:R:3 unique_id=b6aeec63dbb14ba986395fe0e8645171 stress="-0.00033371436916909 -2.0950545288673557e-06 1.1572355230708788e-05 -2.0950545288673557e-06 -0.0003252912372022354 1.4719043961757024e-05 1.1572355230708788e-05 1.4719043961757024e-05 -0.0002771708849018534" energy=-397.61248269062366 pbc="T T T"
Ni      -0.00426606       0.00586594       0.18441660        4       1.00000000       0.00318389       0.03290892       0.23907502
Ni       2.56913560      -0.00293571       0.20178170        4       1.00000000       0.02604541      -0.00696343       0.28820062
Ni       5.14665295      -0.01703412       0.14041486        4       1.00000000      -0.02495530       0.06932386       0.18243486
Ni       7.71797997      -0.04944669       0.04706514        4       1.00000000      -0.07533121      -0.16566991       0.03956740
Ni       1.26584313       2.20642479       0.14693451        4       1.00000000      -0.09246106      -0.07097575       0.20907285
Pt       3.80366464       2.21238864       0.07329389        4       0.00000000      -0.08298457      -0.00488461      -0.12726182
Pt       6.48056147       2.20385461       0.14638124        4       0.00000000       0.05672693      -0.06938029       0.32568376
Ni       9.02048013       2.22499407       0.08102207        4       1.00000000       0.02720823      -0.03322503       0.08642923
Ni       2.54622357       4.45016017       0.00458066        4       1.00000000      -0.14676608      -0.02316913      -0.06861771
Ni       5.13809734       4.43113652       0.09235669        4       1.00000000       0.03715123      -0.11256168       0.22856735
Ni       7.77469809       4.43348158       0.01281960        4       1.00000000       0.17637000      -0.05277747       0.05924070
Ni      10.28265173       4.44312381      -0.01394566        4       1.00000000      -0.04606275      -0.03535972       0.00090802
Ni       3.82623596       6.66961508       0.01069677        4       1.00000000      -0.07995999       0.02342803       0.06319806
Pt       6.43622074       6.68904886      -0.02451164        4       0.00000000      -0.04997462      -0.03605457      -0.20464647
Ni       9.01613914       6.63534305       0.06928946        4       1.00000000      -0.04863908      -0.10807821       0.15598448
Ni      11.60035933       6.66016296      -0.04270600        4       1.00000000       0.00865078      -0.04452287      -0.07674138
Ni       1.30012307       0.71292478       2.15798138        3       1.00000000      -0.02807142       0.01931831      -0.00810257
Ni       3.84926815       0.74563937       2.18362703        3       1.00000000       0.04701623       0.04406768       0.02600835
Ni       6.41110755       0.73321376       2.22430194        3       1.00000000      -0.03018448       0.07649825       0.15435517
Pt       8.95291911       0.70468491       2.13924047        3       0.00000000      -0.07901798      -0.00370979       0.00425701
Ni       2.57148308       2.92385439       2.18108869        3       1.00000000      -0.00889704       0.06803409      -0.04420236
Ni       5.11969373       2.89448549       2.20594532        3       1.00000000      -0.07035588      -0.11496253       0.04109931
Ni       7.73994140       2.94179460       2.18021565        3       1.00000000       0.07769665      -0.00999937       0.02234550
Pt      10.27959291       2.94192308       2.16618205        3       0.00000000       0.04018885      -0.02269133       0.09316585
Pt       3.84492123       5.15004267       2.11041487        3       0.00000000      -0.03090430      -0.04410156      -0.07200206
Pt       6.51053133       5.15390805       2.12066919        3       0.00000000       0.08390123       0.08831160      -0.13959594
Ni       9.00198540       5.16502292       2.13507372        3       1.00000000       0.08273342       0.03617008       0.07707406
Pt      11.56284051       5.17241112       2.12948027        3       0.00000000       0.04101465      -0.02822730      -0.03739119
Ni       5.13705203       7.39425676       2.09649317        3       1.00000000      -0.05212446      -0.05091288      -0.09140136
Ni       7.72367351       7.40877419       2.09557791        3       1.00000000       0.04352266       0.00655464      -0.03220295
Pt      10.30424523       7.42058809       2.05166134        3       0.00000000       0.00783772       0.04116865       0.02541936
Ni      12.85010860       7.39671810       2.06519745        3       1.00000000      -0.03660494      -0.04038326      -0.08279771
Ni      -0.03342479       1.48954523       4.34841778        2       1.00000000      -0.02278087       0.05644084       0.03681509
Pt       2.57960489       1.54214144       4.25889224        2       0.00000000      -0.04453292       0.08198705       0.03343616
Ni       5.15079418       1.44334260       4.28119779        2       1.00000000       0.06110789      -0.05006282      -0.11222183
Ni       7.69386993       1.43789007       4.29021359        2       1.00000000      -0.04641448       0.01805294      -0.03349448
Ni       1.25927694       3.72599077       4.35094162        2       1.00000000       0.02241545       0.05748612      -0.00280306
Ni       3.81718539       3.67706516       4.32289857        2       1.00000000      -0.02238524       0.06567063      -0.09762318
Pt       6.47233104       3.62310864       4.24940802        2       0.00000000      -0.02438216      -0.07438290       0.14315712
Ni       9.02776527       3.70252389       4.30317628        2       1.00000000       0.08233943       0.10078083      -0.04345468
Ni       2.49783845       5.85692871       4.36632338        2       1.00000000      -0.09858582      -0.01869331      -0.04283145
Pt       5.08461877       5.87437361       4.31785227        2       0.00000000       0.00452775      -0.02740833       0.04161618
Ni       7.75700604       5.84178490       4.28816869        2       1.00000000       0.12760770      -0.02897856      -0.09662161
Ni      10.31157130       5.83994030       4.30102655        2       1.00000000       0.00848678       0.01032046      -0.04250076
Pt       3.72988260       8.10567586       4.27766996        2       0.00000000      -0.03429174      -0.02884183       0.04113024
Pt       6.41696024       8.11715646       4.18896278        2       0.00000000      -0.08194481       0.08062434      -0.00334125
Pt       9.04737329       8.07367742       4.20737683        2       0.00000000      -0.02697395      -0.04707511       0.09873284
Ni      11.57086765       8.09776932       4.25429922        2       1.00000000      -0.08903765      -0.04923817      -0.09547149
Pt      -0.07751100      -0.10575948       6.59241898        1       0.00000000       0.01020524      -0.02470941       0.13806685
Pt       2.56493915      -0.04428774       6.59083734        1       0.00000000       0.03588825       0.04261655       0.20592269
Pt       5.19922414      -0.09233209       6.52991595        1       0.00000000       0.10981762      -0.12319822       0.08129141
Ni       7.68819764      -0.08795270       6.49239575        1       1.00000000       0.01098064      -0.01391468      -0.10942337
Pt       1.29933689       2.28955063       6.52066859        1       0.00000000       0.16854653       0.09055125       0.13143490
Ni       3.84348633       2.20847973       6.40798486        1       1.00000000       0.06367546       0.02850590      -0.27557655
Pt       6.41064492       2.16771697       6.42440595        1       0.00000000       0.00228572      -0.01531574      -0.21455517
Pt       8.98487316       2.24660692       6.44476677        1       0.00000000       0.03800083       0.11834347      -0.03171615
Ni       2.53125501       4.45300854       6.44117639        1       1.00000000      -0.03288228       0.17437064      -0.22968516
Pt       5.06028094       4.42681601       6.52093364        1       0.00000000      -0.08374312       0.15547956       0.06203311
Ni       7.69688823       4.40894283       6.44144523        1       1.00000000      -0.09780623       0.02381856      -0.16452653
Ni      10.30908572       4.42808355       6.41248337        1       1.00000000       0.18004474       0.08509547      -0.19865133
Ni       3.76809033       6.60153251       6.46035666        1       1.00000000      -0.17512587       0.03334864      -0.08154966
Ni       6.41901078       6.58513671       6.36231560        1       1.00000000       0.07845466      -0.01088801      -0.37030438
Pt       9.01142311       6.49442130       6.45132149        1       0.00000000       0.03858234      -0.07499869       0.09638489
Ni      11.61372248       6.57270969       6.39530440        1       1.00000000       0.06196739      -0.06296089      -0.20079285
