64
Lattice="10.165825708363647 0.010475748565604468 -0.008692105665009154 5.0919851185633505 8.748562451943306 -0.005408976968404779 0.0 0.0 21.439002055111732" Properties=species:S:1:pos:R:3:tags:I:1:initial_magmoms:R:1:forces:R:3 unique_id=7fd51fdb930d4ec59ba1750097f6c00f energy=-368.0187981607221 stress="0.004363242654251634 -3.477996486085859e-05 -5.575873374814007e-06 -3.477996486085859e-05 0.0036774816981646925 0.0002391543028548476 -5.575873374814007e-06 0.0002391543028548476 -0.002176578977979478" pbc="T T T"
Ni       0.03277539      -0.01443029       0.15199084        2       1.00000000       0.13794125      -0.06329011      -0.33164106
Ni       2.51151859      -0.02876396       0.17534245        2       1.00000000      -0.02300908      -0.00611763      -0.15086326
Ni       5.07994525      -0.00498227       0.12442531        1       1.00000000      -0.02551829       0.19887434      -0.46571925
Ni       7.63248955      -0.00381448       0.11288647        1       1.00000000      -0.01657534       0.10012592      -0.62403643
Ni       1.23280079       2.19416648       0.08176924        1       1.00000000      -0.01800584      -0.00153443       0.34292733
Pt       3.75691702       2.20601644       0.13813873        1       0.00000000      -0.00458099      -0.01202221      -0.54457011
Pt       6.40820982       2.21914241       0.06478040        1       0.00000000       0.00646393       0.03469030      -0.15335957
Ni       8.93862294       2.23708279       0.10624566        1       1.00000000       0.00031364       0.16076828      -0.25667574
Ni       2.53721020       4.40476729       0.03123035        0       1.00000000       0.05020169       0.01421114       0.15276858
Ni       5.09443550       4.43830708       0.06854975        1       1.00000000      -0.00213701      -0.00335988       0.25888267
Ni       7.64541963       4.42399894       0.07297081        1       1.00000000       0.04764698       0.06226225       0.25491181
Ni      10.15341411       4.37239022       0.03483148        0       1.00000000      -0.10924959       0.01459704       0.21529768
Ni       3.85093266       6.54181383       0.03425786        0       1.00000000       0.14437492      -0.02779245       0.08677589
Ni       6.35719162       6.55922805       0.07582405        1       1.00000000       0.02397908       0.03849619       0.31047693
Ni       8.86264008       6.54320968       0.11975240        1       1.00000000      -0.19212317      -0.12051154      -0.37005446
Ni      11.44142606       6.55292307       0.00000000        0       1.00000000      -0.05415317      -0.05730559      -0.05860078
Ni       1.30737162       0.73891622       2.15850937        4       1.00000000       0.06776320       0.06955125       0.21731995
Ni       3.77841101       0.76282486       2.17299440        4       1.00000000      -0.02139580       0.07957254       0.17385246
Ni       6.32911094       0.78003339       2.18586585        4       1.00000000      -0.06575956       0.13797647       0.31258732
Pt       8.93639412       0.81502706       2.13597794        3       0.00000000      -0.03273980       0.05388614       0.06666747
Ni       2.53425175       2.88569772       2.21075160        4       1.00000000       0.02625420      -0.10782732       0.17221205
Ni       5.07860633       2.94304845       2.18512253        4       1.00000000      -0.04824081       0.01013727       0.07709676
Ni       7.63659693       2.97825853       2.15994637        4       1.00000000       0.00918981       0.10411728       0.10712524
Ni      10.17190929       2.92566068       2.14799942        3       1.00000000       0.04513034      -0.02443326       0.19123160
Ni       3.87336795       5.06393683       2.14185998        3       1.00000000       0.10002638      -0.12821507       0.04107526
Ni       6.35921536       5.12405800       2.11596416        3       1.00000000      -0.00015754      -0.00183839      -0.00617923
Ni       8.84440178       5.07348915       2.14314115        3       1.00000000      -0.08045350      -0.06865769       0.14323022
Pt      11.43446267       5.01246150       2.14933433        3       0.00000000       0.04315200      -0.15082234       0.09471953
Ni       5.15613256       7.25231312       2.12245393        3       1.00000000       0.05163975      -0.09158974       0.07318548
Ni       7.56189449       7.27329732       2.12044673        3       1.00000000      -0.08570805      -0.08228203       0.13403375
Pt      10.12479734       7.29430883       2.10033849        3       0.00000000      -0.09487592      -0.02797526       0.08256612
Pt      12.74929673       7.25854752       2.09373069        3       0.00000000       0.14504045      -0.08975399      -0.01283644
Ni       0.04590059       1.50365375       4.25857723        6       1.00000000       0.10057625       0.04612798      -0.07509756
Ni       2.49550608       1.50517101       4.21256363        5       1.00000000      -0.07221357       0.02759174      -0.13622058
Ni       5.09057238       1.47696061       4.20943146        5       1.00000000      -0.04145052      -0.02914847      -0.27851594
Ni       7.61019094       1.47762065       4.24619129        5       1.00000000       0.01072272      -0.02664972      -0.15430161
Ni       1.27430209       3.63026984       4.30543591        6       1.00000000       0.02620585      -0.06853462      -0.01311779
Ni       3.78029136       3.69318571       4.20925699        5       1.00000000      -0.03745930       0.04778141      -0.25017902
Pt       6.35013245       3.67135697       4.24162937        5       0.00000000      -0.00360632      -0.00861124       0.01035900
Ni       8.92770678       3.68433464       4.22650902        5       1.00000000       0.05308901       0.04060871      -0.20857253
Ni       2.53725697       5.77712474       4.31620352        6       1.00000000      -0.01486026      -0.06241330      -0.07518776
Ni       5.09038381       5.81611632       4.27061491        6       1.00000000       0.05478325      -0.04830082      -0.18067779
Ni       7.60648106       5.82264261       4.23584199        5       1.00000000      -0.01937570       0.03193548      -0.22922494
Ni      10.19198972       5.78390719       4.27962152        6       1.00000000      -0.01114900      -0.03992497      -0.06999069
Pt       3.85175585       7.96523708       4.24756674        5       0.00000000       0.07858535      -0.01471180       0.19824869
Ni       6.35688759       7.99648977       4.20927826        5       1.00000000      -0.01430562      -0.03633395      -0.22524395
Pt       8.85463171       8.03152304       4.20129948        5       0.00000000      -0.09233449       0.05693727       0.05816398
Ni      11.44112001       8.00769618       4.24041162        5       1.00000000      -0.03489890      -0.04639247      -0.17386752
Pt       0.00627404      -0.04005442       6.43900206        8       0.00000000      -0.00606021       0.07225461       0.41896743
Pt       2.51239936       0.00767823       6.42462010        8       0.00000000       0.01515105       0.06431208       0.38508631
Pt       5.09810553       0.00261763       6.40056924        8       0.00000000       0.02945501       0.09482189       0.44988243
Pt       7.61252717      -0.03719550       6.41144031        8       0.00000000      -0.04196305       0.10199536       0.50330345
Ni       1.26627544       2.25275298       6.35749239        8       1.00000000       0.05091470       0.04181966      -0.16140489
Pt       3.80102692       2.30970815       6.27841528        7       0.00000000       0.01527895       0.06381370       0.49414549
Ni       6.35219596       2.23442111       6.30048142        7       1.00000000      -0.02223511      -0.01060730       0.30315696
Pt       8.90226021       2.29494246       6.36106746        8       0.00000000      -0.02783748      -0.07310249       0.08986558
Ni       2.51632461       4.42145506       6.35288646        8       1.00000000       0.05543122      -0.04261608      -0.26715090
Ni       5.08785123       4.43297818       6.37559795        8       1.00000000      -0.04803621      -0.01973178      -0.24428775
Ni       7.57158426       4.37985532       6.38104744        8       1.00000000      -0.11265223      -0.03596428      -0.11061019
Ni      10.23590707       4.37548450       6.35140095        8       1.00000000       0.09469132      -0.01488853      -0.20825496
Ni       3.81111926       6.46823203       6.37776372        8       1.00000000       0.00934310      -0.08346194      -0.16963259
Ni       6.32417653       6.49358840       6.36568529        8       1.00000000       0.00067287       0.00315682      -0.25433302
Pt       8.89900940       6.42970028       6.40532166        8       0.00000000       0.00075837      -0.09171564       0.16494109
Ni      11.47075406       6.49472642       6.34813126        7       1.00000000      -0.01965525       0.04601520      -0.12465619
