64
Lattice="10.181780283838407 -0.007623573117416928 -0.030276402948763135 5.084287933931912 8.77170995239925 -0.013516296878912992 0.0 0.0 21.53201720484777" Properties=species:S:1:pos:R:3:tags:I:1:initial_magmoms:R:1:forces:R:3 unique_id=e5adb6b12d944347826d34a734c1ead5 stress="0.004532341147812593 -6.465135982465738e-05 -8.77735199047868e-05 -6.465135982465738e-05 0.0036175841222521096 0.00019324890376452123 -8.77735199047868e-05 0.00019324890376452123 -0.0024599782326986033" energy=-369.7359776250611 pbc="T T T"
Ni       0.05085859      -0.04452034       0.17997286        2       1.00000000       0.13239359       0.00240326      -0.48793457
Ni       2.52394894      -0.04448647       0.20052800        2       1.00000000       0.03732444      -0.03103110      -0.23634909
Ni       5.05770365      -0.07326033       0.06760515        1       1.00000000      -0.15814284      -0.04526871       0.11262045
Ni       7.63570125      -0.05414423       0.13902646        1       1.00000000       0.04934163       0.03694599      -0.76700561
Ni       1.27215165       2.20550905       0.11577374        1       1.00000000       0.00466728      -0.02189275       0.28079769
Pt       3.73948121       2.19552451       0.18937277        2       0.00000000       0.04447362      -0.00986878      -0.59387512
Pt       6.35591849       2.24597668       0.01942376        0       0.00000000      -0.01296465       0.16396157      -0.41873509
Pt       8.98344666       2.25185511       0.00000000        0       0.00000000      -0.04815335       0.05528585      -0.24625952
Ni       2.50787999       4.42528037       0.10115414        1       1.00000000      -0.01912138       0.05690668       0.35174578
Ni       5.05816078       4.44404771       0.06234302        1       1.00000000      -0.13354736      -0.04643019       0.11013026
Ni       7.65595507       4.44801031       0.06060928        1       1.00000000       0.15164303       0.05938430       0.09302889
Ni      10.20930789       4.43280753       0.08129136        1       1.00000000      -0.02274371       0.12917717       0.27817437
Ni       3.83207705       6.55195935       0.06351595        1       1.00000000       0.04969669       0.00117308       0.20927420
Ni       6.35586265       6.59633060       0.06478974        1       1.00000000       0.05924913       0.13150492       0.16028257
Ni       8.89919746       6.56848589       0.16312429        2       1.00000000      -0.01854261       0.00505037      -0.00728571
Ni      11.41895546       6.54588855       0.03383297        0       1.00000000      -0.12662711      -0.04448086       0.23660425
Ni       1.32864610       0.75542186       2.17004678        4       1.00000000       0.07714084       0.17024442       0.07924469
Ni       3.74256895       0.68264268       2.20282440        4       1.00000000      -0.04777457      -0.08050679       0.18520993
Pt       6.28427462       0.69371874       2.15187732        4       0.00000000      -0.13529590       0.00247342      -0.03955686
Pt       8.99785696       0.74611674       2.16236978        4       0.00000000       0.09600705       0.07474266      -0.03742315
Ni       2.50333988       2.94475047       2.22587743        4       1.00000000      -0.00834450       0.00180616       0.08649396
Ni       5.03974324       2.96476297       2.21355394        4       1.00000000      -0.01588656       0.01095171       0.11476407
Ni       7.66642697       2.97410239       2.18380459        4       1.00000000       0.09246689       0.03732331       0.05159456
Ni      10.21276845       2.97053247       2.17097833        4       1.00000000      -0.03811916      -0.00857130       0.04448126
Ni       3.79651890       5.06136136       2.18023255        4       1.00000000      -0.02048598      -0.12862786       0.05606147
Pt       6.36561100       5.15400919       2.13205874        3       0.00000000       0.04897106       0.00502165      -0.05853221
Ni       8.93863678       5.12095841       2.17148811        4       1.00000000       0.03636755      -0.06226545       0.10682445
Ni      11.40572645       5.07122509       2.13790075        3       1.00000000      -0.09305585      -0.05890052       0.03586924
Ni       5.11055953       7.28909154       2.13168337        3       1.00000000      -0.01338335      -0.02717636      -0.00200865
Ni       7.66535416       7.31761376       2.14519984        3       1.00000000       0.04528040      -0.07839429       0.09680126
Ni      10.10803049       7.25042239       2.17198304        4       1.00000000      -0.03538519      -0.10140211       0.11997619
Pt      12.68629136       7.16902492       2.11519132        3       0.00000000      -0.01136895      -0.19599566       0.00599233
Ni       0.03201683       1.49456933       4.34864990        6       1.00000000       0.12687192      -0.06025093      -0.09057627
Ni       2.49974667       1.47642479       4.27895271        6       1.00000000      -0.05399537      -0.04847810      -0.16360724
Pt       5.00023840       1.41406964       4.29576827        6       0.00000000      -0.16076089      -0.07480344       0.08194375
Pt       7.67386265       1.50487415       4.32478331        6       0.00000000       0.06820159      -0.04609402      -0.05572577
Pt       1.25402464       3.67852356       4.32633988        6       0.00000000      -0.02859781      -0.00511329       0.06760040
Ni       3.78067884       3.71993670       4.28510264        6       1.00000000      -0.03511747       0.04351229      -0.16878048
Pt       6.33716430       3.73978280       4.35287851        7       0.00000000      -0.02856476       0.07012620      -0.02381475
Ni       8.92287742       3.71666233       4.30750975        6       1.00000000       0.00678542       0.15589573      -0.15159158
Ni       2.51194386       5.81080869       4.36403014        7       1.00000000      -0.06685408      -0.01001389      -0.05248530
Ni       5.04209346       5.82257486       4.34717375        6       1.00000000       0.00624129       0.01204104      -0.10206201
Ni       7.67669318       5.84254296       4.30143520        6       1.00000000       0.17185410       0.02153046      -0.16946065
Ni      10.16434321       5.85163348       4.27161917        6       1.00000000      -0.01505229      -0.00654963      -0.19729977
Pt       3.78611815       7.94396460       4.32266574        6       0.00000000      -0.04885676      -0.04041751       0.03037119
Pt       6.41134138       8.00794113       4.22531279        5       0.00000000       0.11824662      -0.04614338       0.00580861
Ni       8.92277331       7.98264913       4.26546230        6       1.00000000       0.00768005      -0.12261085      -0.20657774
Ni      11.38476885       7.95644674       4.31078538        6       1.00000000      -0.04682185      -0.10786221      -0.07821318
Pt      -0.02794911       0.01281252       6.53201720       10       0.00000000      -0.10367141       0.11074139       0.33990204
Pt       2.56792466       0.00192362       6.50550445       10       0.00000000       0.06277507       0.08737665       0.17068326
Ni       5.07953150      -0.02302667       6.44217690        9       1.00000000      -0.07514552      -0.01834746       0.00547867
Pt       7.53400295      -0.04617634       6.51568780       10       0.00000000       0.04182071       0.00239244       0.50012490
Ni       1.22629228       2.24627503       6.45891578       10       1.00000000       0.04089356      -0.05908436      -0.06724806
Pt       3.79068790       2.30991271       6.41884821        9       0.00000000      -0.07636108       0.15546215       0.71018340
Ni       6.35517197       2.22915021       6.37201629        9       1.00000000      -0.03739019       0.03578069       0.62737815
Ni       8.91230873       2.26376548       6.34413701        8       1.00000000       0.08875694       0.04551698       0.44023490
Ni       2.50957910       4.44714552       6.45673315       10       1.00000000       0.00422525       0.02571542      -0.21293232
Ni       5.07478781       4.44907627       6.45482375       10       1.00000000      -0.06148072      -0.00694553      -0.07119887
Ni       7.61743084       4.36712051       6.45078381       10       1.00000000       0.10443702      -0.02991696      -0.10920239
Ni      10.18097119       4.35214685       6.43552100        9       1.00000000      -0.02024598       0.00089855      -0.25297515
Ni       3.79521838       6.50084662       6.45995784       10       1.00000000      -0.03208859       0.02672355      -0.10738184
Ni       6.32188153       6.51196835       6.44310077        9       1.00000000       0.06731850       0.03665541      -0.23150967
Pt       8.93288586       6.49386503       6.44352687        9       0.00000000      -0.00715884      -0.05904639      -0.15101954
Ni      11.44912369       6.52038255       6.40629599        9       1.00000000       0.01597539      -0.09223479      -0.23705299
