64
Lattice="10.352071086263805 0.005834718877825984 0.020326463013476837 5.181088557904045 8.933376064519221 -0.0007173358835960217 0.0 0.0 21.559705753081726" Properties=species:S:1:pos:R:3:tags:I:1:initial_magmoms:R:1:forces:R:3 unique_id=6189751bbcf54e91b969e6f9d6820352 stress="0.0055870853104639665 0.00021878623827545335 0.000563216702978404 0.00021878623827545335 0.005646930580890626 8.362900415831448e-05 0.000563216702978404 8.362900415831448e-05 -0.0016775969756596242" energy=-377.9770970050488 pbc="T T T"
Ni      -0.03486443      -0.00580295       0.11941302        1       1.00000000      -0.11015428       0.00675747       0.03699099
Ni       2.61029274      -0.01726612       0.03328505        0       1.00000000       0.05426961      -0.01003152       0.36540482
Ni       5.17951884      -0.01683520       0.08927804        1       1.00000000       0.07963026       0.16218938      -0.30246574
Ni       7.78660191      -0.03403317       0.05057056        1       1.00000000       0.01017271      -0.07319363       0.46740984
Pt       1.26495083       2.20647346       0.08566344        1       0.00000000       0.08477667      -0.08028719      -0.68705575
Pt       3.88843810       2.22383423       0.04198648        0       0.00000000       0.04141517       0.01193106      -0.04296885
Pt       6.51389880       2.17387460       0.12638716        1       0.00000000       0.06881435      -0.10309647      -0.42832873
Ni       9.05645180       2.20503858       0.08763610        1       1.00000000      -0.04032499      -0.13771776       0.01926851
Ni       2.59431817       4.49163699       0.06236043        1       1.00000000      -0.00825307      -0.07803874      -0.30202632
Ni       5.17642667       4.47366390       0.08578631        1       1.00000000       0.21552783      -0.04921938      -0.22522158
Pt       7.83441991       4.48337276       0.03940134        0       0.00000000      -0.02848066      -0.02802105       0.08364346
Ni      10.36331762       4.50486173       0.00000000        0       1.00000000       0.06237530       0.04689701       0.19231883
Ni       3.85675213       6.72916581       0.09883463        1       1.00000000      -0.04171949       0.16318466      -0.07171443
Pt       6.45964339       6.75415833       0.12903924        1       0.00000000      -0.07185080      -0.00979459      -0.45607667
Ni       9.08487789       6.71946457       0.00444149        0       1.00000000      -0.04554971      -0.00997725       0.24649469
Ni      11.66199132       6.72086206       0.00078319        0       1.00000000       0.13344951       0.10101824       0.24743863
Ni       1.30104105       0.70452220       2.13148114        2       1.00000000      -0.00283434      -0.05963384       0.01663586
Ni       3.88117112       0.75740355       2.14358270        2       1.00000000       0.00952487       0.04959568       0.08687467
Ni       6.49946573       0.74853447       2.18693308        3       1.00000000       0.08903501       0.03067653       0.26131712
Ni       9.03338780       0.73060794       2.13342251        2       1.00000000      -0.16316912      -0.02428576      -0.01537038
Ni       2.62217498       2.96093150       2.15639446        3       1.00000000       0.02831442       0.01528354       0.20617203
Ni       5.18189163       2.95255413       2.18460704        3       1.00000000      -0.06021559      -0.14007103       0.27066197
Ni       7.76368346       2.96056120       2.18131084        3       1.00000000      -0.07331466      -0.10220044       0.15889779
Pt      10.25559885       2.94032957       2.20671939        3       0.00000000      -0.10880415       0.03213515      -0.00774005
Pt       3.91870678       5.19871565       2.10481986        2       0.00000000       0.04652928      -0.01769214       0.11372972
Ni       6.51459458       5.20086954       2.15808747        3       1.00000000       0.13798069      -0.03904567       0.18788042
Ni       9.02908990       5.22514334       2.19224413        3       1.00000000      -0.12986652       0.05660236       0.25998652
Pt      11.63990752       5.23850164       2.11360845        2       0.00000000      -0.08830744      -0.05173061       0.00947589
Ni       5.16798260       7.48446525       2.12365583        2       1.00000000      -0.09326795       0.09294785       0.09040105
Ni       7.77292728       7.44904770       2.14994164        2       1.00000000       0.05074305       0.00506697       0.06185739
Pt      10.32674602       7.47658148       2.07282037        2       0.00000000      -0.03624836       0.03817714      -0.04914612
Ni      12.96388999       7.48694329       2.12090532        2       1.00000000      -0.03955575       0.11142665      -0.01752938
Ni      -0.02662609       1.50661093       4.29085138        5       1.00000000      -0.03369307       0.03922958      -0.19502380
Pt       2.66477550       1.52609890       4.23940573        4       0.00000000       0.05215273       0.02916261      -0.14374987
Ni       5.19332715       1.50154845       4.28302833        5       1.00000000       0.09989099       0.02889191      -0.38467412
Ni       7.78998851       1.50049327       4.27965291        5       1.00000000       0.05652558       0.03812214      -0.37378155
Pt       1.25786592       3.77799654       4.29289319        5       0.00000000       0.00354351       0.01598801       0.04109740
Ni       3.90184058       3.70339799       4.30270017        5       1.00000000       0.09081225       0.02274001      -0.24566560
Pt       6.54057285       3.68411340       4.21657572        4       0.00000000      -0.00030828      -0.03768716      -0.02547671
Ni       9.06021596       3.74991640       4.33141287        5       1.00000000      -0.01449399       0.06296067      -0.13841394
Ni       2.57755702       5.95075477       4.31383200        5       1.00000000       0.01871640       0.04621023      -0.17756925
Pt       5.18122708       5.92457273       4.25894347        5       0.00000000      -0.00706536       0.00361488      -0.06010518
Ni       7.83662133       5.90369333       4.29833269        5       1.00000000       0.09465368      -0.11143635      -0.27423089
Ni      10.33172258       5.93420713       4.36949845        6       1.00000000      -0.04134077       0.03640550      -0.06692582
Pt       3.87033454       8.24421546       4.21804721        4       0.00000000      -0.01513488       0.06223143      -0.09745077
Pt       6.48858561       8.21077991       4.21860814        4       0.00000000      -0.03605049       0.14351178      -0.12941628
Pt       9.06872355       8.12387172       4.31495869        5       0.00000000      -0.07115904      -0.08079382      -0.04393958
Pt      11.66904005       8.18935289       4.31625673        5       0.00000000      -0.02436588       0.03998038      -0.04538638
Pt       0.00753750      -0.00219289       6.53803040        8       0.00000000       0.12272724       0.14379625       0.19912917
Ni       2.62815919      -0.00984081       6.50439051        8       1.00000000      -0.04672620      -0.01220181      -0.14680924
Pt       5.15013945      -0.06411973       6.55970575        9       0.00000000      -0.03049570       0.03994204       0.23692465
Ni       7.75445836      -0.00827166       6.51204639        8       1.00000000      -0.08843203       0.05306449      -0.15604938
Pt       1.33597489       2.21257895       6.44248885        7       0.00000000      -0.15324687      -0.08654103       0.71265589
Ni       3.89328802       2.20615158       6.41736467        7       1.00000000       0.07126789      -0.00949450       0.07922914
Pt       6.47916816       2.17734997       6.42681583        7       0.00000000      -0.06808762      -0.13966971       0.42026929
Pt       9.05931451       2.29480138       6.47512877        8       0.00000000       0.08121144       0.02687917      -0.04005062
Pt       2.54631312       4.48587324       6.50934720        8       0.00000000       0.05622170       0.04267121       0.23422038
Pt       5.19159925       4.42479638       6.52174950        8       0.00000000      -0.03034932       0.02474355       0.28522118
Ni       7.82804117       4.48076232       6.41170574        7       1.00000000       0.02389454       0.04178747      -0.06316884
Ni      10.32505410       4.52819799       6.48473511        8       1.00000000      -0.11760017       0.07546729      -0.26852391
Pt       3.81394918       6.73497571       6.53664833        8       0.00000000       0.07233707      -0.14044840       0.12883476
Pt       6.60610333       6.67922924       6.45206507        8       0.00000000       0.05490607      -0.10631928       0.45038728
Ni       9.11011759       6.64546606       6.48763258        8       1.00000000       0.04576259      -0.14846179      -0.24593734
Ni      11.61421645       6.68280031       6.49775472        8       1.00000000      -0.13671584      -0.05419936      -0.24283628
