64
Lattice="10.263655226802207 -0.026706374973840485 0.045104595346448347 5.1086992142307635 8.820061225585079 0.01918514249304658 0.0368277478845038 -0.003174584348281327 8.775708774517158" Properties=species:S:1:pos:R:3:tags:I:1:initial_magmoms:R:1:forces:R:3 unique_id=2d7c6f11a9e340fbabab1ef948166d4b stress="-6.843750180229174e-05 6.764851810275525e-06 -2.7826998628145184e-05 6.764851810275525e-06 -7.032244486959716e-05 -1.1841319318912933e-05 -2.7826998628145184e-05 -1.1841319318912933e-05 -2.5176667266986474e-05" energy=-394.55102452422767 pbc="T T T"
Ni       0.04280185      -0.04141940       0.17279071        4       1.00000000       0.17397209      -0.13998545       0.22040494
Ni       2.51887046      -0.03337225       0.21872454        4       1.00000000      -0.05865686      -0.07383175       0.37616173
Pt       5.12899759      -0.04651166       0.16270751        4       0.00000000      -0.01692645      -0.07321971       0.28253580
Ni       7.72419225      -0.07103909       0.21954217        4       1.00000000       0.04874407      -0.04365733       0.32992336
Ni       1.28192842       2.21087080       0.11225559        4       1.00000000       0.02647601       0.04217216       0.25222202
Pt       3.77322075       2.25829592       0.20376350        4       0.00000000      -0.03267832       0.12930007       0.18525093
Pt       6.42698662       2.26659717       0.14090503        4       0.00000000       0.05222310       0.22441590       0.00776060
Pt       9.05090468       2.24406310       0.17679913        4       0.00000000       0.09877921       0.09368387       0.23437603
Ni       2.55142332       4.44561854       0.07845387        4       1.00000000       0.07279071       0.13573193       0.02262664
Ni       5.12409371       4.47247975       0.12768000        4       1.00000000       0.01927447       0.24421980       0.22950254
Ni       7.68989784       4.45927168       0.14457824        4       1.00000000       0.00215978       0.20935052       0.22975582
Ni      10.27449753       4.42372486       0.12139337        4       1.00000000       0.08740951       0.19203343       0.10751464
Ni       3.84059310       6.60270161       0.12251752        4       1.00000000       0.09556665      -0.01838260       0.18643353
Ni       6.39606161       6.60073657       0.21441285        4       1.00000000      -0.00290823      -0.01855949       0.17123995
Ni       8.92891555       6.55425004       0.20276909        4       1.00000000      -0.17972944      -0.08232696       0.21145520
Ni      11.57022290       6.55888487       0.12046411        4       1.00000000       0.14004391      -0.03117535       0.04662207
Ni       1.30885279       0.72277250       2.19212181        3       1.00000000       0.02753292      -0.03627129       0.02708394
Ni       3.82903371       0.74385953       2.23786245        3       1.00000000       0.03627210      -0.01817070      -0.02573323
Ni       6.41180490       0.75155926       2.24970368        3       1.00000000      -0.10327003       0.03978665       0.00489428
Pt       9.03838609       0.67601973       2.23760397        3       0.00000000       0.12894151       0.06875303      -0.11935164
Ni       2.55469726       2.94591961       2.24359399        3       1.00000000       0.03199724       0.07336445      -0.01952296
Ni       5.12092001       2.96587054       2.26992841        3       1.00000000      -0.10199247       0.10704895       0.05905932
Ni       7.69828474       2.99045361       2.25378183        3       1.00000000       0.06377094       0.15273459      -0.02588907
Ni      10.28654550       2.92317076       2.29673462        3       1.00000000       0.01740937      -0.06012371       0.19128650
Ni       3.88443974       5.14008781       2.21923994        3       1.00000000       0.13317065      -0.01697756       0.02328595
Ni       6.40840483       5.15473749       2.21127167        3       1.00000000      -0.02304054       0.03234341      -0.02722577
Ni       8.92597773       5.09127836       2.24633527        3       1.00000000      -0.11574076      -0.16627682       0.07705783
Pt      11.58369438       5.05707616       2.26237161        3       0.00000000       0.11685861      -0.08921668       0.05323300
Ni       5.16135406       7.29345912       2.19684576        3       1.00000000       0.07771754      -0.21153343       0.00333519
Ni       7.62299237       7.31618890       2.21168343        3       1.00000000      -0.14327551      -0.13329332       0.06154990
Pt      10.22011014       7.25789736       2.23648503        3       0.00000000      -0.10083981      -0.09060628      -0.20472317
Ni      12.85746490       7.28407142       2.21106699        3       1.00000000       0.12748326      -0.24789355      -0.06952746
Ni       0.03874356       1.51267868       4.33333681        2       1.00000000      -0.06559938       0.07884807      -0.10066625
Pt       2.51974740       1.53774285       4.27181653        2       0.00000000      -0.00616501       0.03581557       0.11278560
Ni       5.13043127       1.49157639       4.33074018        2       1.00000000      -0.13248068       0.05924342      -0.23487203
Pt       7.70439633       1.50074834       4.33952760        2       0.00000000       0.01331847       0.03148556       0.05884866
Ni       1.27090534       3.70750693       4.39325464        2       1.00000000      -0.04933918       0.02084009       0.01163909
Ni       3.83779373       3.74081762       4.33506351        2       1.00000000      -0.10817286       0.13001105      -0.24966713
Pt       6.38260139       3.74275657       4.36253546        2       0.00000000      -0.01817269      -0.01140841      -0.08001508
Ni       9.03038658       3.72321688       4.35578684        2       1.00000000      -0.00386575       0.10061967      -0.24096015
Ni       2.58278858       5.80190703       4.39828935        2       1.00000000       0.02954894      -0.16687278      -0.08525617
Ni       5.11766302       5.84832709       4.35208648        2       1.00000000      -0.01788964      -0.05238799      -0.22793865
Ni       7.69597672       5.84185079       4.34824965        2       1.00000000      -0.01260386      -0.01128457      -0.22702834
Ni      10.27528422       5.77776567       4.41362113        2       1.00000000       0.00407055      -0.10433498      -0.06293923
Pt       3.92150528       7.98365434       4.33002934        2       0.00000000       0.05095432      -0.12306901       0.11757732
Ni       6.40648221       8.04351191       4.32797935        2       1.00000000      -0.06737731      -0.10475891      -0.18650013
Pt       8.89496451       8.03443021       4.32910072        2       0.00000000      -0.03753198      -0.03308424       0.05046843
Pt      11.56644855       7.97723419       4.34623935        2       0.00000000      -0.02782115      -0.11987335      -0.00012110
Pt       0.02507326       0.01268347       6.54100439        1       0.00000000       0.02830504       0.02756188       0.07403064
Pt       2.57181882       0.01541981       6.57793157        1       0.00000000      -0.05538664       0.00943832       0.23706577
Pt       5.16580244       0.00975323       6.47118665        1       0.00000000       0.05606076       0.04346178      -0.46795825
Pt       7.72453448      -0.08028277       6.61796805        1       0.00000000      -0.08076244      -0.08942183       0.16733676
Ni       1.30215057       2.27818017       6.50158128        1       1.00000000       0.05593107       0.17775784      -0.15554355
Pt       3.86563232       2.33245903       6.45375412        1       0.00000000      -0.10223648       0.14449430      -0.24967135
Ni       6.43557744       2.24357256       6.46870559        1       1.00000000      -0.00335665       0.07836513      -0.22655829
Pt       9.03365098       2.30484691       6.46932866        1       0.00000000      -0.00160763       0.11146277      -0.36634731
Ni       2.55014633       4.45620911       6.49103826        1       1.00000000      -0.08160734       0.06719806      -0.21944680
Ni       5.11975043       4.41224010       6.52509298        1       1.00000000      -0.14586848       0.08137106      -0.11389258
Ni       7.68753110       4.37023183       6.53463083        1       1.00000000      -0.14048664      -0.06229391      -0.13398704
Ni      10.34758623       4.39034088       6.52378657        1       1.00000000       0.28983606       0.00819989      -0.21796456
Ni       3.82002257       6.52908671       6.52214668        1       1.00000000      -0.08822094      -0.22750519      -0.09936418
Pt       6.37006068       6.50538141       6.53172463        1       0.00000000      -0.05003486      -0.00033459       0.08344095
Pt       9.03682737       6.46589653       6.56810672        1       0.00000000       0.02878398      -0.15772665       0.10973553
Ni      11.58631435       6.51325212       6.55467328        1       1.00000000       0.04024319      -0.13525483      -0.17882897
