64
Lattice="10.69958976411966 -0.00024501613960843194 0.003594253959143325 5.349582691858587 9.275789271973784 0.014581284053391956 0.0 0.0 21.961512845570304" Properties=species:S:1:pos:R:3:tags:I:1:initial_magmoms:R:1:forces:R:3 unique_id=95ee1a30a1ef4e849b5418a04779eb67 energy=-399.56637238691576 stress="0.0018610295672902687 -9.03120155946122e-06 5.9486057048297726e-05 -9.03120155946122e-06 0.0019077569008146018 -2.747607502433747e-06 5.9486057048297726e-05 -2.747607502433747e-06 -0.002945494485858527" pbc="T T T"
Ni       0.00365125       0.01923277       0.09115858        1       1.00000000      -0.02301395      -0.00865319       0.14052018
Pt       2.61454780       0.04163139       0.00000000        0       0.00000000       0.04609518      -0.01440430      -0.04109711
Pt       5.35607308       0.03222883       0.08374249        1       0.00000000      -0.04168849      -0.03545045      -0.38887779
Pt       8.05155292       0.03515267       0.07744541        1       0.00000000       0.01295910      -0.01570268      -0.39766775
Ni       1.32392882       2.32023938       0.10713402        1       1.00000000       0.07724802       0.04932702       0.19478054
Pt       3.98639716       2.32527890       0.10495610        1       0.00000000      -0.22228770       0.05603250      -0.39331334
Ni       6.69503309       2.32331921       0.10065762        1       1.00000000       0.04275603      -0.00994968       0.22355485
Pt       9.43080084       2.32214614       0.00935725        0       0.00000000       0.08999877       0.01388044       0.10005745
Pt       2.62087291       4.58350855       0.10650906        1       0.00000000      -0.03467555      -0.18478884      -0.37457742
Pt       5.35840711       4.61007068       0.00440537        0       0.00000000      -0.02116299       0.00058920      -0.06914631
Pt       8.04888983       4.59381432       0.08267571        1       0.00000000       0.05172424       0.01234229      -0.41267316
Ni      10.70425082       4.61692683       0.10411164        1       1.00000000      -0.02057097      -0.00146094       0.18485522
Pt       4.02075552       6.97286725       0.00324881        0       0.00000000      -0.08608780      -0.02644144      -0.04403939
Pt       6.67656974       6.98250266       0.08346161        1       0.00000000       0.09554779      -0.07122811      -0.53764184
Pt       9.37029766       6.93920487       0.09418267        1       0.00000000      -0.04303677       0.02646663      -0.50918553
Pt      12.03370668       6.93246118       0.09441856        1       0.00000000       0.00804006       0.06565206      -0.38088777
Pt       1.34429263       0.82342898       2.27690785        2       0.00000000      -0.03584596       0.05886321       0.19320731
Pt       3.98275640       0.80951150       2.34884978        2       0.00000000      -0.05072881       0.01678200       0.32019967
Pt       6.69315968       0.78455793       2.34304358        2       0.00000000       0.02302846       0.12053220       0.32617255
Pt       9.38720899       0.78759538       2.31449442        2       0.00000000       0.11280028       0.01985680       0.29818154
Ni       2.66798645       3.08935225       2.31125825        2       1.00000000      -0.01758960      -0.01144849       0.37245271
Pt       5.33317765       3.09369011       2.32159948        2       0.00000000       0.07136604       0.00365863       0.25071696
Pt       8.03953853       3.08199970       2.34497745        2       0.00000000      -0.01505550      -0.09971776       0.31462973
Pt      10.73724868       3.09830917       2.29767894        2       0.00000000       0.08151145       0.00360584       0.14861929
Pt       3.99664910       5.38689892       2.34920837        2       0.00000000       0.02474149       0.01606172       0.31877124
Pt       6.67890384       5.40994621       2.34663003        2       0.00000000      -0.06829916       0.01675948       0.33706896
Pt       9.38096816       5.38193343       2.35057101        3       0.00000000       0.07375785      -0.04252272       0.33489964
Pt      12.04221707       5.37105880       2.32754287        2       0.00000000      -0.01506739      -0.00379296       0.27645172
Pt       5.34170965       7.75092103       2.32522668        2       0.00000000      -0.03918308       0.05148113       0.29868039
Pt       8.02707770       7.74629702       2.36189835        3       0.00000000       0.01439681       0.04808193       0.37581402
Pt      10.71547047       7.73935768       2.38976428        3       0.00000000      -0.00517038       0.02703878       0.44358830
Pt      13.36761066       7.73327496       2.38474391        3       0.00000000       0.04518894      -0.03504617       0.38577028
Pt      -0.03293086       1.58861295       4.65031872        5       0.00000000      -0.05706410       0.04452882      -0.20020801
Pt       2.66225053       1.56058459       4.62401534        4       0.00000000      -0.08218710      -0.04770320      -0.28733044
Pt       5.38539239       1.52767380       4.60896281        4       0.00000000       0.10552407      -0.00189459      -0.32392518
Pt       8.04131944       1.57301378       4.64912969        4       0.00000000       0.04461458       0.10559126      -0.25901824
Pt       1.31167677       3.86469812       4.59381197        4       0.00000000      -0.05400581      -0.01011809      -0.32675665
Pt       4.00941674       3.86562478       4.62269779        4       0.00000000       0.03970463      -0.01533801      -0.34412563
Pt       6.70618699       3.86329065       4.63397187        4       0.00000000      -0.09960871      -0.01528263      -0.27357115
Ni       9.36702715       3.86398711       4.64906813        4       1.00000000       0.03624292      -0.03004485      -0.31929901
Pt       2.66621322       6.22057018       4.64557960        4       0.00000000      -0.00040753       0.01825215      -0.28298742
Pt       5.33395835       6.18050259       4.68280187        5       0.00000000      -0.09394001      -0.05561636      -0.24275247
Pt       8.04359396       6.15738027       4.62088557        4       0.00000000       0.02662718      -0.03666219      -0.39958235
Pt      10.70274862       6.17512697       4.62404147        4       0.00000000      -0.01610501      -0.07350078      -0.30492003
Pt       3.99421687       8.51014746       4.65301818        5       0.00000000       0.07509085       0.01015576      -0.27700184
Pt       6.68912063       8.52747712       4.65420281        5       0.00000000      -0.00050022       0.11340155      -0.30740427
Pt       9.38173750       8.51334947       4.64700678        4       0.00000000      -0.07258396       0.02811053      -0.27542443
Ni      12.03934376       8.51032670       4.65386455        5       1.00000000       0.00347728       0.00998707      -0.43547851
Pt       0.00093058       0.00898400       6.95041805        7       0.00000000      -0.00488108      -0.07305813      -0.06233667
Ni       2.66791190       0.00945519       6.85756938        6       1.00000000      -0.01444040      -0.02445895      -0.18563268
Pt       5.34151218       0.01114934       6.85281641        6       0.00000000       0.19492059      -0.02249264       0.48846687
Pt       8.04944973       0.01280259       6.85166250        6       0.00000000      -0.18675768      -0.08259181       0.41470928
Pt       1.32391565       2.30228702       6.96151285        7       0.00000000       0.13446418       0.05246892      -0.07922422
Pt       4.01456475       2.32881744       6.87849282        6       0.00000000       0.01433318       0.03782186       0.37517715
Pt       6.70143171       2.35038377       6.95477586        7       0.00000000      -0.08328409      -0.04035539       0.02911271
Ni       9.36641351       2.32971698       6.86228751        6       1.00000000      -0.00757004       0.02146915      -0.18731132
Pt       2.72079605       4.66903196       6.87807121        6       0.00000000       0.03565185      -0.05873130       0.25535941
Ni       5.34995426       4.65318735       6.86044095        6       1.00000000       0.01713339      -0.03728282      -0.20440906
Pt       8.02542108       4.61222065       6.85689688        6       0.00000000       0.05372393       0.06905422       0.40354770
Pt      10.68010870       4.60306357       6.93753222        6       0.00000000      -0.05292327       0.02252942      -0.05915161
Ni       4.02226562       6.96112424       6.85915139        6       1.00000000      -0.00760658       0.03677040      -0.14620810
Pt       6.64541035       6.95842778       6.87610863        6       0.00000000       0.06220638      -0.08409190       0.52783424
Pt       9.34037082       6.98059181       6.87743680        6       0.00000000      -0.10330633      -0.08021361       0.54828733
Pt      12.06546259       6.97316277       6.85935115        6       0.00000000      -0.03823952       0.17289199       0.45167944
