64
Lattice="10.340015335854664 -0.01870671587008447 0.02553433021923133 5.153807176762465 8.871762876591326 -0.007847601142728184 0.0 0.0 21.59215036197409" Properties=species:S:1:pos:R:3:tags:I:1:initial_magmoms:R:1:forces:R:3 unique_id=7169f12559014d8b835df498814e0e3e stress="0.005389897227090523 -7.134698119213253e-05 0.00025941867176686764 -7.134698119213253e-05 0.0052943560206778345 3.505395074776008e-05 0.00025941867176686764 3.505395074776008e-05 -0.002045295977674102" energy=-375.5104906674853 pbc="T T T"
Ni       0.00306599       0.02136558       0.13219448        1       1.00000000       0.10784923      -0.01147923      -0.18814582
Ni       2.58426734       0.00143828       0.16778640        2       1.00000000      -0.03752457       0.02889770      -0.09172515
Ni       5.16691298      -0.02124859       0.12918678        1       1.00000000      -0.00298617       0.19136395      -0.34423885
Ni       7.76253864      -0.05794290       0.15702544        2       1.00000000      -0.10319249      -0.08942579      -0.23589488
Ni       1.25988297       2.22193102       0.05294126        1       1.00000000      -0.09022496       0.01294539       0.47337972
Pt       3.80769677       2.21687419       0.06590797        1       0.00000000       0.02491600      -0.02123289       0.01970876
Pt       6.48332829       2.15950015       0.15778883        2       0.00000000       0.04393495      -0.07480396      -0.50393846
Ni       9.08696737       2.20457086       0.11619268        1       1.00000000       0.07233518       0.11370165      -0.06673896
Ni       2.55716644       4.44925813       0.00000000        0       1.00000000      -0.06033949      -0.03176905       0.17041865
Ni       5.15626152       4.43503298       0.11266430        1       1.00000000       0.17366800      -0.07845285      -0.32943203
Pt       7.82864733       4.43758208       0.06777420        1       0.00000000       0.03193644      -0.00960795      -0.01978892
Ni      10.36176102       4.41248432       0.03711244        0       1.00000000       0.03264572      -0.09604400       0.23020306
Ni       3.83113571       6.67042702       0.03412503        0       1.00000000      -0.01881755       0.12058632       0.28867159
Pt       6.43009069       6.69713906       0.14870617        1       0.00000000      -0.01536952       0.03315334      -0.63297623
Ni       9.05992890       6.65753147       0.03576031        0       1.00000000      -0.08429697      -0.00796526       0.12851737
Ni      11.63933920       6.63927680       0.02554655        0       1.00000000       0.09737538       0.00832461       0.22163486
Ni       1.30923672       0.76061504       2.12408583        3       1.00000000       0.02446842       0.16587867      -0.02995601
Ni       3.86834856       0.75438879       2.16710331        4       1.00000000      -0.00037919       0.08840201       0.20748354
Ni       6.46062859       0.73930730       2.21123221        4       1.00000000      -0.02904595       0.12990642       0.27698620
Pt       9.05817940       0.76509152       2.15701037        4       0.00000000      -0.00589600       0.13618388       0.13701952
Ni       2.56308968       2.92303562       2.16669289        4       1.00000000      -0.08362154      -0.06040789       0.05733382
Ni       5.15982478       2.91979286       2.20413549        4       1.00000000      -0.11623668      -0.12676080       0.22002001
Ni       7.78495429       2.95639259       2.20838228        4       1.00000000       0.17513904       0.06535453       0.15641179
Ni      10.34037911       2.92695267       2.18471215        4       1.00000000       0.04488130      -0.02227294       0.08124456
Pt       3.88356641       5.14855896       2.11233602        3       0.00000000      -0.01290386      -0.07419436      -0.04215889
Ni       6.49515297       5.15479567       2.17697994        4       1.00000000       0.11336005      -0.05407917       0.14424115
Ni       9.01872389       5.13768205       2.20323281        4       1.00000000      -0.06121939      -0.11842544       0.22221898
Pt      11.60744472       5.08943046       2.14245301        3       0.00000000      -0.05719947      -0.11381725       0.03220072
Ni       5.15231748       7.40589530       2.14575170        3       1.00000000      -0.11422911       0.02848658       0.04136571
Ni       7.74866261       7.38273726       2.15937611        4       1.00000000       0.05290072      -0.03607457       0.08612436
Pt      10.30790967       7.39029308       2.07598527        3       0.00000000      -0.00008799      -0.10989142      -0.08005437
Ni      12.92432046       7.37218922       2.13556043        3       1.00000000       0.00714847      -0.03689257      -0.00818693
Ni       0.00517367       1.54404557       4.30415148        6       1.00000000      -0.00150471       0.14829656      -0.19800635
Pt       2.58312269       1.58483893       4.28324104        6       0.00000000      -0.04182564      -0.00195238      -0.07747189
Ni       5.16743293       1.49080109       4.29948105        6       1.00000000      -0.02548529       0.06319048      -0.31229191
Ni       7.78844209       1.48193757       4.31119746        6       1.00000000       0.08561547      -0.01220421      -0.25547348
Ni       1.29184244       3.68406054       4.35346346        7       1.00000000      -0.05460076       0.00541293      -0.08903826
Ni       3.85270496       3.68604485       4.33009820        6       1.00000000       0.01838662       0.05673190      -0.20975541
Pt       6.51772883       3.65379376       4.22705955        5       0.00000000       0.00613022      -0.05340663      -0.06622412
Ni       9.06628157       3.65155113       4.31100719        6       1.00000000       0.05238368      -0.15879940      -0.33338330
Ni       2.56765539       5.85330536       4.36963872        7       1.00000000      -0.02413110      -0.14955530      -0.02148705
Pt       5.13876298       5.85977564       4.27991787        6       0.00000000      -0.00812979      -0.03406735      -0.08706119
Ni       7.78302394       5.85343310       4.30739029        6       1.00000000       0.01850599      -0.05224695      -0.32871341
Pt      10.33164374       5.78810171       4.40976656        7       0.00000000       0.00804681      -0.00331311      -0.03594372
Pt       3.85977742       8.13359449       4.27295673        6       0.00000000      -0.05639778       0.04136286       0.02947952
Pt       6.45738302       8.15164382       4.20338275        5       0.00000000      -0.08222496       0.15495675      -0.22291587
Pt       9.02855704       8.10928192       4.28336904        6       0.00000000      -0.07559652       0.03178439      -0.06631905
Pt      11.63823881       8.12681838       4.28005152        6       0.00000000       0.02997948       0.02859444      -0.06644218
Pt       0.02598541       0.00296250       6.54907678        9       0.00000000       0.09729457       0.10316171       0.29821193
Pt       2.60599145       0.04096547       6.58064670       10       0.00000000      -0.00761260       0.03719732       0.32062746
Pt       5.16812442      -0.08227113       6.56451217       10       0.00000000       0.02361305       0.05753246       0.46682517
Pt       7.76889994      -0.10083098       6.59215036       10       0.00000000      -0.04310918       0.16570499       0.39538609
Ni       1.32319605       2.28218679       6.47950635        9       1.00000000       0.02398813       0.13728061      -0.27999288
Ni       3.84818235       2.23595577       6.41890375        8       1.00000000       0.00246783      -0.00016469       0.09783382
Pt       6.46540020       2.20511425       6.43702193        8       0.00000000      -0.01141575      -0.10679892       0.61524274
Pt       9.12227890       2.29481566       6.48651244        9       0.00000000      -0.04300159      -0.02737150       0.02887532
Ni       2.53876962       4.42441380       6.46374521        9       1.00000000      -0.12687454      -0.02554045      -0.37262845
Pt       5.06275378       4.40223653       6.53133641        9       0.00000000      -0.10360727      -0.09808086       0.21008460
Ni       7.80584362       4.43625683       6.41635160        8       1.00000000       0.05249657       0.05739511      -0.03087247
Ni      10.38208785       4.42503229       6.51337903        9       1.00000000       0.11450658      -0.03661909      -0.19141976
Ni       3.83014770       6.59977725       6.49155434        9       1.00000000      -0.06554050      -0.06643128      -0.17659920
Pt       6.51820618       6.58294128       6.45417092        9       0.00000000       0.10216161      -0.04306249       0.59328511
Ni       9.07663450       6.56878096       6.50852844        9       1.00000000      -0.03030038      -0.07991716      -0.08454659
Ni      11.64533365       6.55019648       6.51469057        9       1.00000000       0.05679373      -0.08865837      -0.17121402
