102
Lattice="14.747579633050908 3.8169445179852467e-07 9.941081283805471e-08 3.8169445179852467e-07 14.747580514872006 -7.47423212986159e-08 0.0 0.0 36.25687252440943" Properties=species:S:1:pos:R:3:tags:I:1:initial_magmoms:R:1:forces:R:3 energy=-314.24298095703125 free_energy=-314.24298095703125 stress="0.0074327161449037355 -2.335675657483275e-05 -5.474622653444229e-06 -2.335675657483275e-05 0.007432723585362422 -5.474529284407004e-06 -5.474622653444229e-06 -5.474529284407004e-06 0.0005440163447867872" pbc="T T T"
Au       1.47475800       1.47475809       0.00000006        0       0.00000000       0.00022901       0.00022978       0.07865460
Au       4.42427393       1.47475817       0.00000008        0       0.00000000      -0.00205066       0.00275726       0.07580258
Au       7.37378985       1.47475824       0.00000010        0       0.00000000      -0.00135090      -0.00108553       0.07748984
Au      10.32330578       1.47475832       0.00000012        0       0.00000000       0.00085185       0.00055302       0.07661991
Au      13.27282171       1.47475840       0.00000014        0       0.00000000       0.00126759       0.00128564       0.07558627
Au       1.47475808       4.42427420       0.00000004        0       0.00000000       0.00275925      -0.00205129       0.07580123
Au       4.42427401       4.42427427       0.00000006        0       0.00000000      -0.00249379      -0.00249561       0.07398372
Au       7.37378993       4.42427435       0.00000008        0       0.00000000      -0.00239604      -0.00010815       0.07566245
Au      10.32330586       4.42427442       0.00000010        0       0.00000000       0.00054443      -0.00045096       0.07519735
Au      13.27282178       4.42427450       0.00000012        0       0.00000000       0.00280077      -0.00063780       0.07532061
Au       1.47475815       7.37379030       0.00000003        0       0.00000000      -0.00108428      -0.00135002       0.07748842
Au       4.42427408       7.37379037       0.00000005        0       0.00000000      -0.00010673      -0.00239580       0.07566113
Au       7.37379001       7.37379045       0.00000007        0       0.00000000       0.00042168       0.00042324       0.08337612
Au      10.32330593       7.37379053       0.00000009        0       0.00000000       0.00082021       0.00058723       0.08534150
Au      13.27282186       7.37379060       0.00000011        0       0.00000000       0.00005879      -0.00169362       0.07993552
Au       1.47475823      10.32330640       0.00000001        0       0.00000000       0.00055283       0.00085118       0.07661879
Au       4.42427416      10.32330648       0.00000003        0       0.00000000      -0.00045040       0.00054446       0.07519699
Au       7.37379008      10.32330655       0.00000005        0       0.00000000       0.00058769       0.00082055       0.08533981
Au      10.32330601      10.32330663       0.00000007        0       0.00000000      -0.00023857      -0.00023839       0.08680980
Au      13.27282194      10.32330670       0.00000009        0       0.00000000      -0.00050546      -0.00026447       0.07970832
Au       1.47475831      13.27282250       0.00000000        0       0.00000000       0.00128769       0.00126898       0.07558546
Au       4.42427423      13.27282257       0.00000002        0       0.00000000      -0.00063756       0.00280272       0.07532132
Au       7.37379016      13.27282265       0.00000004        0       0.00000000      -0.00169318       0.00006091       0.07993559
Au      10.32330609      13.27282272       0.00000006        0       0.00000000      -0.00026307      -0.00050440       0.07971074
Au      13.27282201      13.27282280       0.00000008        0       0.00000000       0.00149518       0.00149794       0.07519237
Au       0.00000001      -0.00000001       2.08562419        1       0.00000000      -0.00298517      -0.00298484      -0.08838694
Au       2.94951594       0.00000007       2.08562421        1       0.00000000       0.00048276       0.00616441      -0.09944422
Au       5.89903187       0.00000014       2.08562423        1       0.00000000       0.02592023      -0.02696931      -0.07058711
Au       8.84854779       0.00000021       2.08562425        1       0.00000000      -0.00168964      -0.03051406      -0.06411557
Au      11.79806373       0.00000029       2.08562427        1       0.00000000      -0.01308596      -0.01785914      -0.07464435
Au       0.00000009       2.94951609       2.08562417        1       0.00000000       0.00616663       0.00048121      -0.09944410
Au       2.94951602       2.94951617       2.08562419        1       0.00000000      -0.00232869      -0.00232829      -0.09763680
Au       5.89903194       2.94951624       2.08562421        1       0.00000000      -0.00748752      -0.00619509      -0.10543872
Au       8.84854787       2.94951632       2.08562423        1       0.00000000       0.00273187      -0.00384758      -0.10140142
Au      11.79806380       2.94951640       2.08562425        1       0.00000000      -0.00008073       0.00227757      -0.09965011
Au       0.00000017       5.89903220       2.08562416        1       0.00000000      -0.02697032       0.02592006      -0.07058516
Au       2.94951609       5.89903227       2.08562418        1       0.00000000      -0.00619355      -0.00748656      -0.10543685
Au       5.89903202       5.89903235       2.08562420        1       0.00000000       0.02892390       0.02892464      -0.07151725
Au       8.84854795       5.89903242       2.08562422        1       0.00000000       0.00845496       0.03727427      -0.05380373
Au      11.79806387       5.89903250       2.08562424        1       0.00000000      -0.00999560       0.04664952      -0.04905196
Au       0.00000024       8.84854830       2.08562414        1       0.00000000      -0.03051251      -0.00168849      -0.06411350
Au       2.94951617       8.84854838       2.08562416        1       0.00000000      -0.00384811       0.00273204      -0.10139816
Au       5.89903210       8.84854846       2.08562418        1       0.00000000       0.03727571       0.00845228      -0.05380305
Au       8.84854802       8.84854853       2.08562420        1       0.00000000       0.01238934       0.01238563      -0.04982800
Au      11.79806395       8.84854861       2.08562422        1       0.00000000      -0.02711429       0.00127168      -0.04937731
Au       0.00000032      11.79806441       2.08562413        1       0.00000000      -0.01785723      -0.01308421      -0.07464381
Au       2.94951625      11.79806448       2.08562415        1       0.00000000       0.00227782      -0.00007695      -0.09964913
Au       5.89903217      11.79806455       2.08562417        1       0.00000000       0.04665019      -0.00999275      -0.04905175
Au       8.84854810      11.79806463       2.08562419        1       0.00000000       0.00127708      -0.02711011      -0.04937813
Au      11.79806403      11.79806471       2.08562421        1       0.00000000      -0.01714718      -0.01714262      -0.05587701
Au       1.47756222       1.47756225       4.16063882        2       0.00000000       0.00050077       0.00049812       0.00065901
Au       4.42094069       1.47710184       4.15912682        2       0.00000000      -0.00056950      -0.00000256       0.00188818
Au       7.36762693       1.46982115       4.15164483        2       0.00000000      -0.00011460       0.00094836       0.00051723
Au      10.32448109       1.47279339       4.15062287        2       0.00000000      -0.00033664       0.00108738       0.00146870
Au      13.27891536       1.48009490       4.15412529        2       0.00000000       0.00071929       0.00104952       0.00012419
Au       1.47710201       4.42094128       4.15912726        2       0.00000000      -0.00000230      -0.00057081       0.00188479
Au       4.41913090       4.41913089       4.15830520        2       0.00000000      -0.00280608      -0.00280705       0.00064929
Au       7.36440213       4.41942370       4.14697673        2       0.00000000      -0.00124069      -0.00418885       0.00075452
Au      10.32511344       4.42792716       4.14880396        2       0.00000000      -0.00020390      -0.00042056      -0.00039319
Au      13.27929567       4.42732832       4.15192085        2       0.00000000       0.00173445      -0.00271841      -0.00105703
Au       1.46982121       7.36762729       4.15164453        2       0.00000000       0.00095182      -0.00010995       0.00051714
Au       4.41942384       7.36440236       4.14697656        2       0.00000000      -0.00419196      -0.00124095       0.00075592
Au       7.38337522       7.38337549       4.18626143        2       0.00000000      -0.00748979      -0.00748943      -0.00498326
Au      10.31808388       7.39524661       4.19473045        2       0.00000000      -0.00028526      -0.00695429      -0.00644001
Au      13.25829576       7.38631184       4.18319182        2       0.00000000       0.00316910      -0.00425293      -0.00118635
Au       1.47279435      10.32448269       4.15062323        2       0.00000000       0.00108583      -0.00034450       0.00146822
Au       4.42792724      10.32511374       4.14880460        2       0.00000000      -0.00042229      -0.00020393      -0.00039478
Au       7.39524583      10.31808495       4.19473051        2       0.00000000      -0.00695611      -0.00028918      -0.00643953
Au      10.31424756      10.31424819       4.19771347        2       0.00000000       0.00200997       0.00200315      -0.00302559
Au      13.25844767      10.31950184       4.17306672        2       0.00000000       0.00330047       0.00084971      -0.00181808
Au       1.48009514      13.27891622       4.15412567        2       0.00000000       0.00105320       0.00072206       0.00012384
Au       4.42732819      13.27929598       4.15192134        2       0.00000000      -0.00271939       0.00173784      -0.00105669
Au       7.38631176      13.25829593       4.18319193        2       0.00000000      -0.00425268       0.00317460      -0.00118392
Au      10.31950202      13.25844680       4.17306785        2       0.00000000       0.00084855       0.00330522      -0.00182813
Au      13.27622530      13.27622470       4.15613754        2       0.00000000       0.00490158       0.00490338      -0.00247823
Au       0.00823461       0.00823445       6.22126636        3       0.00000000       0.00072770       0.00072804       0.00271143
Au       2.95023085      -0.00201805       6.22286176        3       0.00000000      -0.00016761       0.00082168       0.00241512
Au       5.88704766       0.01271965       6.22463279        3       0.00000000      -0.00012342      -0.00195711       0.00112692
Au       8.84127403       0.03958495       6.22496282        3       0.00000000      -0.00015158      -0.00260914       0.00094499
Au      11.80930129       0.03514913       6.21864144        3       0.00000000       0.00041380       0.00018151       0.00100130
Au      -0.00201849       2.95023056       6.22286088        3       0.00000000       0.00082155      -0.00016581       0.00241864
Au       2.94990120       2.94990096       6.22383388        3       0.00000000      -0.00137847      -0.00137945       0.00542818
Au       5.90182528       2.94658714       6.22295562        3       0.00000000      -0.00076332      -0.00154051       0.00085460
Au       8.84905242       2.93884494       6.21998071        3       0.00000000       0.00058194      -0.00246942      -0.00031851
Au      11.79653113       2.95026025       6.22005315        3       0.00000000       0.00019558       0.00001830      -0.00157762
Au       0.01271951       5.88704789       6.22463287        3       0.00000000      -0.00195513      -0.00012496       0.00112876
Au       2.94658761       5.90182565       6.22295581        3       0.00000000      -0.00153997      -0.00076120       0.00085467
Au       5.87692562       5.87692616       6.22451474        3       0.00000000      -0.00098840      -0.00098870      -0.00032072
Au       8.83142291       5.82428313       6.22046789        3       0.00000000      -0.00322425      -0.00147511       0.00337695
Au      11.81277386       5.86099645       6.22136433        3       0.00000000       0.00064326      -0.00115048       0.00035997
Au       0.03958514       8.84127461       6.22496253        3       0.00000000      -0.00260772      -0.00014675       0.00094434
Au       2.93884434       8.84905175       6.21998126        3       0.00000000      -0.00246967       0.00058324      -0.00032045
Au       5.82428274       8.83142350       6.22046780        3       0.00000000      -0.00147379      -0.00322673       0.00337933
Au       8.72047588       8.72047649       6.27519608        3       0.00000000      -0.00628794      -0.00628667      -0.01208074
Au      11.88525388       8.80614802       6.26308683        3       0.00000000       0.00708752      -0.00240440      -0.00472534
Au       0.03515029      11.80930225       6.21864133        3       0.00000000       0.00017715       0.00040973       0.00100383
Au       2.95026087      11.79653197       6.22005412        3       0.00000000       0.00001925       0.00019530      -0.00157829
Au       5.86099643      11.81277399       6.22136491        3       0.00000000      -0.00114970       0.00064540       0.00036137
Au       8.80614775      11.88525434       6.26308679        3       0.00000000      -0.00240634       0.00708777      -0.00472154
Au      11.86843784      11.86843858       6.21665788        3       0.00000000       0.00356029       0.00355312      -0.00286181
O       10.04500343      10.04500321       7.58110340        0       0.00000000      -0.00378313      -0.00378041      -0.03104389
H        9.78226732       9.78226740       8.49202049        0       0.00000000       0.02189803       0.02189679      -0.00036401
