102
Lattice="14.747579633050908 3.8169445179852467e-07 9.941081283805471e-08 3.8169445179852467e-07 14.747580514872006 -7.47423212986159e-08 0.0 0.0 36.25687252440943" Properties=species:S:1:pos:R:3:tags:I:1:initial_magmoms:R:1:forces:R:3 energy=-314.23883056640625 free_energy=-314.23883056640625 stress="0.00742612464255362 -2.9008040712778567e-05 5.060576822274038e-05 -2.9008040712778567e-05 0.0074261320830123064 5.060389648235213e-05 5.060576822274038e-05 5.060389648235213e-05 0.0005337335378767078" pbc="T T T"
Au       1.47475800       1.47475809       0.00000006        0       0.00000000      -0.00048449      -0.00048414       0.08011558
Au       4.42427393       1.47475817       0.00000008        0       0.00000000      -0.00131488      -0.00185276       0.07580724
Au       7.37378985       1.47475824       0.00000010        0       0.00000000      -0.00120553      -0.00117744       0.07713781
Au      10.32330578       1.47475832       0.00000012        0       0.00000000       0.00062838       0.00069124       0.07783831
Au      13.27282171       1.47475840       0.00000014        0       0.00000000       0.00100332      -0.00343160       0.07667652
Au       1.47475808       4.42427420       0.00000004        0       0.00000000      -0.00185094      -0.00131537       0.07580569
Au       4.42427401       4.42427427       0.00000006        0       0.00000000      -0.00209149      -0.00209302       0.07453199
Au       7.37378993       4.42427435       0.00000008        0       0.00000000      -0.00025183       0.00006646       0.07913227
Au      10.32330586       4.42427442       0.00000010        0       0.00000000       0.00118231      -0.00064517       0.07930349
Au      13.27282178       4.42427450       0.00000012        0       0.00000000      -0.00004881      -0.00318866       0.07540982
Au       1.47475815       7.37379030       0.00000003        0       0.00000000      -0.00117567      -0.00120469       0.07713578
Au       4.42427408       7.37379037       0.00000005        0       0.00000000       0.00006759      -0.00025262       0.07913160
Au       7.37379001       7.37379045       0.00000007        0       0.00000000      -0.00051321      -0.00051211       0.08628429
Au      10.32330593       7.37379053       0.00000009        0       0.00000000      -0.00168914      -0.00183337       0.08465297
Au      13.27282186       7.37379060       0.00000011        0       0.00000000      -0.00064443      -0.00084839       0.07548659
Au       1.47475823      10.32330640       0.00000001        0       0.00000000       0.00069058       0.00062645       0.07783689
Au       4.42427416      10.32330648       0.00000003        0       0.00000000      -0.00064509       0.00118147       0.07930237
Au       7.37379008      10.32330655       0.00000005        0       0.00000000      -0.00183331      -0.00168967       0.08465189
Au      10.32330601      10.32330663       0.00000007        0       0.00000000      -0.00135510      -0.00135667       0.08203665
Au      13.27282194      10.32330670       0.00000009        0       0.00000000      -0.00029396       0.00146223       0.07509571
Au       1.47475831      13.27282250       0.00000000        0       0.00000000      -0.00342937       0.00100437       0.07667529
Au       4.42427423      13.27282257       0.00000002        0       0.00000000      -0.00318947      -0.00004662       0.07540972
Au       7.37379016      13.27282265       0.00000004        0       0.00000000      -0.00084787      -0.00064174       0.07548577
Au      10.32330609      13.27282272       0.00000006        0       0.00000000       0.00146298      -0.00029263       0.07509687
Au      13.27282201      13.27282280       0.00000008        0       0.00000000       0.00099989       0.00100154       0.07514346
Au       0.00000001      -0.00000001       2.08562419        1       0.00000000       0.00651055       0.00651057      -0.09687556
Au       2.94951594       0.00000007       2.08562421        1       0.00000000      -0.00620511       0.00296711      -0.09874423
Au       5.89903187       0.00000014       2.08562423        1       0.00000000       0.00155718       0.00362669      -0.09937631
Au       8.84854779       0.00000021       2.08562425        1       0.00000000      -0.00087717       0.01376740      -0.10233200
Au      11.79806373       0.00000029       2.08562427        1       0.00000000       0.01411645       0.01552325      -0.10666955
Au       0.00000009       2.94951609       2.08562417        1       0.00000000       0.00296802      -0.00620570      -0.09874212
Au       2.94951602       2.94951617       2.08562419        1       0.00000000       0.00041943       0.00041661      -0.09058543
Au       5.89903194       2.94951624       2.08562421        1       0.00000000       0.01509628       0.01732295      -0.07671438
Au       8.84854787       2.94951632       2.08562423        1       0.00000000       0.00485901       0.03295369      -0.06555954
Au      11.79806380       2.94951640       2.08562425        1       0.00000000      -0.02125406       0.02877093      -0.07078601
Au       0.00000017       5.89903220       2.08562416        1       0.00000000       0.00362503       0.00155500      -0.09937368
Au       2.94951609       5.89903227       2.08562418        1       0.00000000       0.01732589       0.01509701      -0.07671221
Au       5.89903202       5.89903235       2.08562420        1       0.00000000       0.02047097       0.02047264      -0.05595906
Au       8.84854795       5.89903242       2.08562422        1       0.00000000       0.00333124       0.03389160      -0.04883343
Au      11.79806387       5.89903250       2.08562424        1       0.00000000      -0.03974802       0.01320062      -0.04899503
Au       0.00000024       8.84854830       2.08562414        1       0.00000000       0.01376629      -0.00087448      -0.10233133
Au       2.94951617       8.84854838       2.08562416        1       0.00000000       0.03295451       0.00486019      -0.06555805
Au       5.89903210       8.84854846       2.08562418        1       0.00000000       0.03389217       0.00332922      -0.04883258
Au       8.84854802       8.84854853       2.08562420        1       0.00000000      -0.00701759      -0.00702174      -0.04954487
Au      11.79806395       8.84854861       2.08562422        1       0.00000000      -0.02195762      -0.00621273      -0.05857211
Au       0.00000032      11.79806441       2.08562413        1       0.00000000       0.01552338       0.01411794      -0.10666624
Au       2.94951625      11.79806448       2.08562415        1       0.00000000       0.02877134      -0.02125159      -0.07078264
Au       5.89903217      11.79806455       2.08562417        1       0.00000000       0.01320172      -0.03974460      -0.04899117
Au       8.84854810      11.79806463       2.08562419        1       0.00000000      -0.00621310      -0.02195234      -0.05857116
Au      11.79806403      11.79806471       2.08562421        1       0.00000000      -0.01481517      -0.01481439      -0.07643472
Au       1.47383991       1.47383957       4.16190120        2       0.00000000      -0.00028728      -0.00028754       0.00020452
Au       4.41956752       1.47184927       4.15568719        2       0.00000000      -0.00065074      -0.00029224      -0.00031865
Au       7.37427068       1.48266997       4.15198596        2       0.00000000      -0.00024876      -0.00125666      -0.00071882
Au      10.33181255       1.48760075       4.15373283        2       0.00000000       0.00024037      -0.00128219      -0.00109342
Au      13.27878169       1.47617848       4.16116172        2       0.00000000       0.00029754      -0.00035541      -0.00009070
Au       1.47185006       4.41956681       4.15568761        2       0.00000000      -0.00029804      -0.00064632      -0.00031622
Au       4.42091188       4.42091175       4.15322520        2       0.00000000      -0.00004664      -0.00004906       0.00068545
Au       7.38098496       4.44267438       4.17052218        2       0.00000000      -0.00068006      -0.00068082      -0.00037096
Au      10.31605850       4.44405361       4.18209527        2       0.00000000      -0.00051104      -0.00066718      -0.00012240
Au      13.27465900       4.41972538       4.15215144        2       0.00000000      -0.00077724       0.00002106      -0.00014175
Au       1.48267052       7.37427104       4.15198624        2       0.00000000      -0.00125829      -0.00025151      -0.00071693
Au       4.44267471       7.38098516       4.17052238        2       0.00000000      -0.00068242      -0.00067858      -0.00037196
Au       7.39088200       7.39088227       4.19694105        2       0.00000000      -0.00123088      -0.00123186      -0.00174078
Au      10.31224571       7.38750379       4.19191151        2       0.00000000      -0.00104295      -0.00097210       0.00050111
Au      13.27764892       7.37533832       4.14865887        2       0.00000000      -0.00182024      -0.00005815       0.00028530
Au       1.48760090      10.33181262       4.15373302        2       0.00000000      -0.00128037       0.00024412      -0.00109712
Au       4.44405311      10.31605891       4.18209557        2       0.00000000      -0.00066159      -0.00051323      -0.00012374
Au       7.38750362      10.31224568       4.19191143        2       0.00000000      -0.00097854      -0.00103901       0.00050275
Au      10.32990469      10.32990508       4.17745665        2       0.00000000      -0.00130475      -0.00131201       0.00124039
Au      13.29114243      10.33880862       4.14715524        2       0.00000000      -0.00201515      -0.00046609       0.00037926
Au       1.47617904      13.27878255       4.16116207        2       0.00000000      -0.00035721       0.00029507      -0.00008876
Au       4.41972512      13.27465970       4.15215195        2       0.00000000       0.00002098      -0.00078408      -0.00014199
Au       7.37533733      13.27764965       4.14865930        2       0.00000000      -0.00005261      -0.00182354       0.00028506
Au      10.33880865      13.29114232       4.14715495        2       0.00000000      -0.00046976      -0.00201045       0.00038294
Au      13.28456703      13.28456773       4.15970128        2       0.00000000      -0.00074715      -0.00074989       0.00011341
Au       0.00462990       0.00462961       6.22937945        3       0.00000000      -0.00042029      -0.00042285       0.00006263
Au       2.95402749       0.00303827       6.22642025        3       0.00000000       0.00013149      -0.00050915       0.00002560
Au       5.90283006       0.00638452       6.22091474        3       0.00000000       0.00012017      -0.00097869      -0.00062580
Au       8.85079696       0.02779513       6.22268323        3       0.00000000      -0.00003300      -0.00236253      -0.00097691
Au      11.80033815       0.01308765       6.22653882        3       0.00000000      -0.00033712      -0.00074042      -0.00042669
Au       0.00303836       2.95402725       6.22642026        3       0.00000000      -0.00050667       0.00013506       0.00002517
Au       2.94488188       2.94488142       6.22369482        3       0.00000000      -0.00082910      -0.00082913       0.00032093
Au       5.89079393       2.92411858       6.21896390        3       0.00000000      -0.00041661      -0.00223630      -0.00042370
Au       8.85786569       2.92571479       6.22622449        3       0.00000000       0.00023547      -0.00333793      -0.00104703
Au      11.81347672       2.94623313       6.22700329        3       0.00000000      -0.00023165      -0.00116093      -0.00057358
Au       0.00638459       5.90283037       6.22091480        3       0.00000000      -0.00097655       0.00011716      -0.00062919
Au       2.92411892       5.89079406       6.21896367        3       0.00000000      -0.00223968      -0.00041446      -0.00042310
Au       5.83914684       5.83914676       6.20920324        3       0.00000000      -0.00317093      -0.00317311       0.00078011
Au       8.89404822       5.82541634       6.25771534        3       0.00000000       0.00060536      -0.00472285      -0.00008719
Au      11.84256972       5.89217216       6.21914265        3       0.00000000      -0.00076410      -0.00104658       0.00073543
Au       0.02779528       8.85079689       6.22268302        3       0.00000000      -0.00236189      -0.00003343      -0.00097367
Au       2.92571525       8.85786604       6.22622411        3       0.00000000      -0.00333669       0.00023040      -0.00104342
Au       5.82541638       8.89404840       6.25771637        3       0.00000000      -0.00472488       0.00060815      -0.00008912
Au       9.00932350       9.00932356       6.26203215        3       0.00000000      -0.00468377      -0.00468503      -0.00071185
Au      11.89496118       8.87729523       6.21899324        3       0.00000000      -0.00323321      -0.00086667       0.00125487
Au       0.01308774      11.80033811       6.22653931        3       0.00000000      -0.00073890      -0.00033433      -0.00042777
Au       2.94623310      11.81347679       6.22700389        3       0.00000000      -0.00116128      -0.00022649      -0.00057514
Au       5.89217162      11.84257026       6.21914286        3       0.00000000      -0.00104568      -0.00076587       0.00073384
Au       8.87729528      11.89496130       6.21899303        3       0.00000000      -0.00086942      -0.00322817       0.00125376
Au      11.83125368      11.83125398       6.22448029        3       0.00000000      -0.00083314      -0.00083323       0.00134994
O        7.71107813       7.71108025       7.57970546        0       0.00000000      -0.02153145      -0.02153307      -0.02868483
H        7.98682931       7.98683284       8.48276962        0       0.00000000      -0.02327582      -0.02327465       0.00540940
