64
Lattice="10.590345149979576 -0.008351062154825313 -0.020954722629918723 5.287940343015126 9.134868218505042 -0.013095867758721836 0.0 0.0 21.808453621916318" Properties=species:S:1:pos:R:3:tags:I:1:initial_magmoms:R:1:forces:R:3 unique_id=24d45ad3f17f44dab2da1f5e07414cef energy=-391.3195034473745 stress="0.005675007043854598 -3.2762678832820606e-05 -0.00022501207066922735 -3.2762678832820606e-05 0.005217446853631331 -8.486338088051902e-05 -0.00022501207066922735 -8.486338088051902e-05 -0.0003385975202377482" pbc="T T T"
Ni       0.00744195      -0.01429774       0.05561209        1       1.00000000       0.00779686      -0.03491821       0.39355523
Pt       2.62591299      -0.05217022       0.05213680        1       0.00000000      -0.02399222      -0.17081653       0.18261839
Ni       5.27791450      -0.00475693       0.04919935        0       1.00000000      -0.05919813       0.02204199       0.34232992
Pt       7.96805591      -0.00359332       0.10260948        1       0.00000000       0.17613962       0.04097182      -0.44473990
Pt       1.30186843       2.25304209       0.08860669        1       0.00000000       0.07991331      -0.01583890      -0.44268689
Pt       3.99307420       2.24880266       0.10908169        1       0.00000000      -0.09504583      -0.19477271      -0.45461884
Pt       6.60808877       2.33670865       0.07765204        1       0.00000000       0.04794469       0.03286898      -0.66849841
Pt       9.25951827       2.26837233       0.00000000        0       0.00000000      -0.06613940      -0.13350606      -0.06467935
Pt       2.68349011       4.58625934       0.13808556        1       0.00000000       0.02853934       0.11667885      -0.30872543
Ni       5.31718439       4.58408841       0.04541179        0       1.00000000       0.04432395       0.05955000       0.42868856
Ni       7.91433455       4.58222880       0.03456741        0       1.00000000      -0.11191604       0.07743511       0.42987991
Pt      10.53896904       4.57329877       0.03669866        0       0.00000000       0.04388445       0.15712108       0.13774972
Pt       4.06453460       6.84155177       0.10165009        1       0.00000000       0.07707550      -0.13949695      -0.39786091
Ni       6.61140802       6.83660274       0.09518131        1       1.00000000       0.05268990      -0.02935133       0.21407291
Pt       9.17800349       6.82337671       0.11277923        1       0.00000000      -0.30933909      -0.15299464      -0.26980754
Pt      11.88370431       6.87033395       0.10130257        1       0.00000000      -0.00737312      -0.11955249      -0.49116450
Pt       1.33702547       0.70471374       2.31962795        3       0.00000000       0.07656371       0.06086004       0.16515199
Ni       3.95717025       0.73380626       2.28715901        3       1.00000000      -0.06753291      -0.02343660       0.27102736
Pt       6.58541207       0.74229995       2.26982897        3       0.00000000      -0.18329195       0.00757743       0.13712000
Ni       9.27499557       0.74650759       2.28613426        3       1.00000000       0.08434659       0.04662184       0.27328718
Pt       2.62579049       3.07541818       2.34366193        3       0.00000000      -0.08012190      -0.01370902       0.30542644
Pt       5.26809245       3.09255547       2.29077828        3       0.00000000      -0.00839266       0.28726309       0.22761225
Pt       7.97366079       3.07157316       2.27527839        3       0.00000000       0.11470208       0.09156685       0.22842679
Pt      10.58647434       3.08577180       2.34047777        3       0.00000000       0.00371084       0.08926593       0.37081374
Ni       3.96914486       5.33154177       2.28893318        3       1.00000000       0.11245508       0.06579641       0.30007927
Pt       6.66134467       5.37919494       2.23018829        2       0.00000000       0.13576869       0.12194322      -0.04318333
Ni       9.25179465       5.33791396       2.28732844        3       1.00000000       0.02876220       0.04398773       0.32235407
Ni      11.89633516       5.31881534       2.28959365        3       1.00000000      -0.08445125       0.04719674       0.36402128
Pt       5.31345368       7.63345265       2.30649354        3       0.00000000       0.09158444       0.11122216       0.16344503
Ni       7.93403108       7.60154809       2.29108283        3       1.00000000      -0.00476688      -0.00682822       0.33746396
Pt      10.50695600       7.58688929       2.28741270        3       0.00000000      -0.11636125       0.01270524       0.10578018
Pt      13.26003253       7.57544115       2.30960670        3       0.00000000       0.04246218      -0.02644602       0.26721652
Pt      -0.01890625       1.44774138       4.56112254        5       0.00000000      -0.00351615      -0.27751637      -0.18017933
Pt       2.60079685       1.49007115       4.55181679        5       0.00000000      -0.07747132      -0.02036558      -0.23351204
Pt       5.27295602       1.48889553       4.52953403        4       0.00000000      -0.01854001      -0.10316953      -0.34278661
Pt       7.98386296       1.50867771       4.52333009        4       0.00000000      -0.05556712       0.03996183      -0.44317957
Ni       1.29999163       3.80639894       4.56111844        5       1.00000000      -0.02090360      -0.06140973      -0.31899760
Pt       3.95554565       3.82870759       4.54120885        4       0.00000000       0.21907440       0.07371608      -0.12887381
Pt       6.63605958       3.87019347       4.58482940        5       0.00000000       0.05884844       0.21345342      -0.09979036
Pt       9.27095973       3.82675820       4.60811223        5       0.00000000      -0.02443463      -0.08133863       0.10551960
Pt       2.63362780       6.07516331       4.48077091        4       0.00000000       0.01748947      -0.00490526      -0.38787511
Pt       5.32922271       6.15476407       4.52520320        4       0.00000000       0.07640818       0.10884116      -0.26427335
Ni       7.92582408       6.09811318       4.53615490        4       1.00000000      -0.00924241       0.05717553      -0.31528416
Pt      10.55677487       6.03277120       4.48929170        4       0.00000000      -0.00624256      -0.07685843      -0.41007593
Ni       3.98813604       8.37888184       4.54766549        4       1.00000000       0.10384717      -0.07876426      -0.30307205
Ni       6.59660500       8.35834668       4.56267766        5       1.00000000      -0.07706813      -0.04170881      -0.12276393
Pt       9.16151677       8.33193688       4.51939778        4       0.00000000      -0.16416994      -0.11858759      -0.21038330
Pt      11.90050592       8.35857464       4.53170381        4       0.00000000      -0.16103768      -0.09327740      -0.17482501
Ni      -0.00209489       0.00248624       6.80130298        7       1.00000000       0.04022996      -0.05894754      -0.48421747
Ni       2.62797063      -0.01487696       6.74863297        6       1.00000000      -0.06047207      -0.07580708      -0.26563241
Ni       5.27187804      -0.00746025       6.80779380        7       1.00000000       0.02463910      -0.01148311      -0.39402347
Pt       7.98600905       0.02403411       6.74528556        6       0.00000000       0.19419326       0.02431787       0.47216945
Pt       1.24130083       2.25235178       6.74876065        6       0.00000000      -0.02890279       0.18857689       0.52820925
Pt       3.96913765       2.22874245       6.77042758        7       0.00000000      -0.09363694      -0.06037599       0.62691898
Pt       6.63707899       2.32501156       6.76068490        7       0.00000000       0.12657084       0.02711761       0.63086335
Ni       9.26220500       2.28860395       6.73327389        6       1.00000000      -0.01642723       0.04729596      -0.14366176
Pt       2.61617888       4.55204459       6.75089964        7       0.00000000      -0.23352834      -0.15958684       0.42650547
Ni       5.30173730       4.57313972       6.80845362        7       1.00000000       0.00579744      -0.02877324      -0.38564380
Ni       7.93340004       4.56312024       6.80165749        7       1.00000000       0.09136560       0.06219340      -0.42666059
Ni      10.54807477       4.54361150       6.72965905        6       1.00000000       0.01629037      -0.03277797      -0.16964175
Pt       3.99615392       6.85970906       6.74280864        6       0.00000000      -0.11118614       0.12681926       0.34999501
Pt       6.62255130       6.85851144       6.80194148        7       0.00000000       0.25337300       0.13760337      -0.20584491
Pt       9.22149946       6.82274579       6.74034838        6       0.00000000      -0.12542731      -0.14655355       0.27727576
Pt      11.85820830       6.84157223       6.75192042        7       0.00000000       0.02890629      -0.00587230       0.61158585
