64
Lattice="10.103362053807853 -0.005573125656234167 0.01900819878967167 5.046854558507148 8.724853709088793 -0.03211428279885255 0.015520129321361436 -0.03923818702822736 8.655640418031394" Properties=species:S:1:pos:R:3:tags:I:1:initial_magmoms:R:1:forces:R:3 unique_id=4737d88b738a4de68e239af205bee0da stress="-0.0003689576890944374 4.011129115082933e-06 -1.2398302584126861e-05 4.011129115082933e-06 -0.000368443694544765 -2.0259412506674263e-06 -1.2398302584126861e-05 -2.0259412506674263e-06 -0.0002966583016373453" energy=-389.34587338266675 pbc="T T T"
Ni       0.04074542      -0.04236534       0.18667712        4       1.00000000       0.09345736      -0.00482682       0.31824578
Ni       2.48045502      -0.03160631       0.19993070        4       1.00000000      -0.01288743      -0.02670514       0.21680135
Pt       5.07417723      -0.03442768       0.05531176        4       0.00000000       0.03259743      -0.13513072      -0.07957946
Ni       7.60260733      -0.02499395       0.17668900        4       1.00000000       0.13679713      -0.00601391       0.27671701
Ni       1.25534361       2.19258530       0.10970678        4       1.00000000      -0.02058367       0.03418455       0.18698287
Pt       3.74811458       2.23807289       0.18357812        4       0.00000000      -0.06364659       0.04652408       0.50138820
Ni       6.31949670       2.22033843       0.11067638        4       1.00000000      -0.00931184       0.11099370       0.20082227
Pt       8.84964927       2.23071913       0.02095451        4       0.00000000       0.04692089      -0.02480929      -0.17786904
Ni       2.49481468       4.39843970       0.08481075        4       1.00000000      -0.02132641       0.02563611       0.11281335
Ni       5.05378161       4.39302841       0.06149709        4       1.00000000       0.00417677       0.03937360       0.03976137
Ni       7.56961132       4.38630914       0.06870125        4       1.00000000       0.00845340       0.04716346       0.05635986
Ni      10.12990943       4.38775263       0.10230006        4       1.00000000       0.03805804       0.05554276       0.11217480
Ni       3.81740100       6.50838377       0.04267214        4       1.00000000       0.13475909      -0.09628674      -0.00088041
Ni       6.30351385       6.55309791       0.06022393        4       1.00000000       0.01260499       0.03588567      -0.04075545
Ni       8.79513208       6.48342672       0.14782305        4       1.00000000      -0.11925088      -0.08035272       0.27703331
Ni      11.37377264       6.47249921       0.04189048        4       1.00000000      -0.02865586      -0.07278859      -0.05826763
Ni       1.31073093       0.73249013       2.19806558        3       1.00000000      -0.01711718       0.11103328       0.12670632
Ni       3.73129251       0.71709251       2.21258679        3       1.00000000      -0.06180776      -0.01277200      -0.07503691
Ni       6.32146275       0.75862353       2.17738593        3       1.00000000       0.04643455      -0.04894754      -0.10916021
Pt       8.89098678       0.77299285       2.22670413        3       0.00000000       0.04063127       0.16832967      -0.11231296
Ni       2.48183161       2.92001043       2.24253832        3       1.00000000       0.02705120      -0.03582789       0.06513794
Ni       5.05414068       2.90841427       2.19588004        3       1.00000000      -0.08042955       0.01610138      -0.05311998
Ni       7.58143784       2.91566024       2.19054184        3       1.00000000       0.09228613       0.00112849      -0.01238342
Ni      10.15068051       2.94201208       2.22090548        3       1.00000000      -0.01548145      -0.02012017       0.04443606
Ni       3.77589396       5.01583723       2.16166838        3       1.00000000      -0.01266544      -0.13039581       0.01797983
Pt       6.31934290       5.10797819       2.13392973        3       0.00000000       0.00696750       0.07190107      -0.02947621
Ni       8.85613692       5.01813328       2.18120693        3       1.00000000       0.01030024      -0.13985349       0.08659853
Ni      11.36064814       4.99970726       2.18581739        3       1.00000000      -0.01700332      -0.05979370       0.09561418
Ni       5.09996500       7.26333879       2.13349740        3       1.00000000      -0.01687361       0.02197854       0.05028601
Ni       7.53906364       7.29317584       2.17026944        3       1.00000000      -0.02820734       0.03867977       0.07345056
Pt      10.03883240       7.20665603       2.23262799        3       0.00000000      -0.07267304      -0.00883120      -0.16976631
Pt      12.63582884       7.16253756       2.13099259        3       0.00000000       0.07179978      -0.12258792      -0.04186024
Ni       0.05000008       1.49875127       4.29980804        2       1.00000000       0.09102516       0.01969905      -0.00471971
Ni       2.47332625       1.45414295       4.23906101        2       1.00000000       0.02732828       0.03617973       0.04826592
Pt       5.05335788       1.38187683       4.22558651        2       0.00000000      -0.11911064      -0.02374516       0.11392102
Ni       7.61293875       1.45583604       4.31341080        2       1.00000000       0.01279519      -0.03090453      -0.01768464
Ni       1.26495689       3.62236819       4.28748203        2       1.00000000       0.03228484      -0.00620673      -0.03481697
Ni       3.74107218       3.67448417       4.24632813        2       1.00000000      -0.01204188      -0.01634214      -0.05828294
Pt       6.35303610       3.64634274       4.33522991        2       0.00000000       0.05310622       0.01960042       0.06053975
Ni       8.90337348       3.62976939       4.29802307        2       1.00000000       0.04889831       0.08053653      -0.16433289
Ni       2.50499632       5.73418403       4.30747372        2       1.00000000      -0.02356569      -0.08542202      -0.12362454
Ni       5.05022911       5.78562681       4.31226961        2       1.00000000      -0.00073212      -0.03910245      -0.08537720
Ni       7.60033857       5.82330640       4.27550186        2       1.00000000       0.10983376       0.02961764      -0.06876027
Ni      10.13366828       5.73579506       4.29019182        2       1.00000000       0.01371988      -0.17306329      -0.00124705
Pt       3.81635058       7.92290639       4.26421509        2       0.00000000       0.04346900       0.02664702       0.25767194
Ni       6.35582080       7.96079539       4.21855018        2       1.00000000      -0.00222885       0.04192510       0.00014255
Ni       8.80980854       7.94304656       4.26033224        2       1.00000000      -0.13246401      -0.04272979       0.03590598
Ni      11.34963283       7.91138692       4.29643679        2       1.00000000       0.03303837      -0.12024503       0.00200848
Pt       0.00633217      -0.00664829       6.46523822        1       0.00000000      -0.00567961       0.06300224       0.11853267
Pt       2.55790080      -0.02980096       6.40949297        1       0.00000000      -0.09960017       0.03329229       0.05023480
Ni       5.06100881      -0.04487514       6.31637814        1       1.00000000      -0.06489027      -0.01888164      -0.38876271
Pt       7.50625455      -0.02271563       6.46552047        1       0.00000000      -0.17777262       0.02156668       0.06845605
Ni       1.24146942       2.22600338       6.36917331        1       1.00000000       0.00006178       0.05749024      -0.11491949
Pt       3.79313678       2.26486726       6.35478335        1       0.00000000       0.00783853       0.20641593      -0.41559328
Ni       6.34801781       2.19600191       6.42349111        1       1.00000000      -0.03084082       0.09355479      -0.00568466
Ni       8.85120425       2.21980040       6.28467698        1       1.00000000      -0.01998129       0.07948603      -0.42036593
Ni       2.50029989       4.39021057       6.36748466        1       1.00000000      -0.06931258       0.07117782      -0.10045076
Ni       5.06611946       4.39817881       6.40405971        1       1.00000000      -0.02869489       0.14489232      -0.06721742
Ni       7.58903899       4.31010600       6.41498858        1       1.00000000       0.04835858      -0.03143511      -0.05112154
Ni      10.14503518       4.29271835       6.38236708        1       1.00000000       0.04453525      -0.06583521      -0.09587701
Ni       3.78978031       6.44549380       6.38341673        1       1.00000000      -0.05376061      -0.02344255      -0.10065012
Ni       6.29679235       6.45306632       6.37094427        1       1.00000000       0.01661512       0.02637289      -0.20755812
Pt       8.88619669       6.42444599       6.39470746        1       0.00000000       0.03995334      -0.10794948       0.07543640
Ni      11.39680475       6.45704024       6.36768197        1       1.00000000       0.01244007      -0.06456405      -0.20290968
