103
Lattice="14.747579633050908 3.8169445179852467e-07 9.941081283805471e-08 3.8169445179852467e-07 14.747580514872006 -7.47423212986159e-08 0.0 0.0 36.25687252440943" Properties=species:S:1:pos:R:3:tags:I:1:initial_magmoms:R:1:forces:R:3 energy=-318.3955078125 free_energy=-318.3955078125 stress="0.007451090357629338 -2.4848240114921683e-05 4.710335685445836e-06 -2.4848240114921683e-05 0.0074060406124219266 9.514427253839217e-05 4.710335685445836e-06 9.514427253839217e-05 0.0005220093281076418" pbc="T T T"
Au       1.47475800       1.47475809       0.00000006        0       0.00000000       0.00030884      -0.00109880       0.08688973
Au       4.42427393       1.47475817       0.00000008        0       0.00000000      -0.00142477      -0.00243210       0.08763634
Au       7.37378985       1.47475824       0.00000010        0       0.00000000      -0.00032941      -0.00027269       0.07496334
Au      10.32330578       1.47475832       0.00000012        0       0.00000000      -0.00048379      -0.00057390       0.07772416
Au      13.27282171       1.47475840       0.00000014        0       0.00000000       0.00146060      -0.00031483       0.07784734
Au       1.47475808       4.42427420       0.00000004        0       0.00000000      -0.00170697      -0.00244701       0.08083797
Au       4.42427401       4.42427427       0.00000006        0       0.00000000      -0.00010584      -0.00266581       0.08082015
Au       7.37378993       4.42427435       0.00000008        0       0.00000000       0.00096603       0.00193263       0.07381162
Au      10.32330586       4.42427442       0.00000010        0       0.00000000       0.00038154       0.00011514       0.07727686
Au      13.27282178       4.42427450       0.00000012        0       0.00000000      -0.00165007       0.00199025       0.07454453
Au       1.47475815       7.37379030       0.00000003        0       0.00000000      -0.00118979      -0.00139111       0.07579462
Au       4.42427408       7.37379037       0.00000005        0       0.00000000       0.00087451      -0.00125842       0.07575225
Au       7.37379001       7.37379045       0.00000007        0       0.00000000       0.00098691       0.00051662       0.07530797
Au      10.32330593       7.37379053       0.00000009        0       0.00000000      -0.00155721      -0.00049482       0.07872964
Au      13.27282186       7.37379060       0.00000011        0       0.00000000      -0.00185919      -0.00015283       0.07578519
Au       1.47475823      10.32330640       0.00000001        0       0.00000000      -0.00173932      -0.00142441       0.07626670
Au       4.42427416      10.32330648       0.00000003        0       0.00000000       0.00087145       0.00126475       0.07859696
Au       7.37379008      10.32330655       0.00000005        0       0.00000000       0.00221205      -0.00482203       0.07483120
Au      10.32330601      10.32330663       0.00000007        0       0.00000000       0.00002233      -0.00055973       0.08022533
Au      13.27282194      10.32330670       0.00000009        0       0.00000000      -0.00090925      -0.00255177       0.07595007
Au       1.47475831      13.27282250       0.00000000        0       0.00000000      -0.00008639       0.00017075       0.08007838
Au       4.42427423      13.27282257       0.00000002        0       0.00000000       0.00141549      -0.00013263       0.08223535
Au       7.37379016      13.27282265       0.00000004        0       0.00000000      -0.00004346      -0.00404676       0.07586934
Au      10.32330609      13.27282272       0.00000006        0       0.00000000      -0.00083983      -0.00088366       0.07697385
Au      13.27282201      13.27282280       0.00000008        0       0.00000000      -0.00213049      -0.00361303       0.07296173
Au       0.00000001      -0.00000001       2.08562419        1       0.00000000       0.03294414       0.02134277      -0.05400153
Au       2.94951594       0.00000007       2.08562421        1       0.00000000       0.00560211       0.04036185      -0.03609498
Au       5.89903187       0.00000014       2.08562423        1       0.00000000      -0.05633298       0.01044475      -0.03581468
Au       8.84854779       0.00000021       2.08562425        1       0.00000000      -0.00205332       0.00063580      -0.09581845
Au      11.79806373       0.00000029       2.08562427        1       0.00000000       0.00487021       0.00815724      -0.08689906
Au       0.00000009       2.94951609       2.08562417        1       0.00000000       0.03504273      -0.00665802      -0.05429940
Au       2.94951602       2.94951617       2.08562419        1       0.00000000       0.00372690      -0.01782817      -0.04029999
Au       5.89903194       2.94951624       2.08562421        1       0.00000000      -0.03377799      -0.00875936      -0.05190481
Au       8.84854787       2.94951632       2.08562423        1       0.00000000       0.00798073      -0.00048300      -0.09967354
Au      11.79806380       2.94951640       2.08562425        1       0.00000000       0.01494056       0.00166734      -0.08195864
Au       0.00000017       5.89903220       2.08562416        1       0.00000000       0.01154874      -0.01984107      -0.06941058
Au       2.94951609       5.89903227       2.08562418        1       0.00000000      -0.00112271      -0.00730921      -0.07023608
Au       5.89903202       5.89903235       2.08562420        1       0.00000000      -0.01224077      -0.01207354      -0.07882437
Au       8.84854795       5.89903242       2.08562422        1       0.00000000       0.01357853       0.01346937      -0.10277469
Au      11.79806387       5.89903250       2.08562424        1       0.00000000       0.01072676      -0.00412020      -0.08464234
Au       0.00000024       8.84854830       2.08562414        1       0.00000000      -0.00389185       0.00801973      -0.10085426
Au       2.94951617       8.84854838       2.08562416        1       0.00000000       0.00019422       0.01963768      -0.10418552
Au       5.89903210       8.84854846       2.08562418        1       0.00000000       0.01414911       0.01802941      -0.10603684
Au       8.84854802       8.84854853       2.08562420        1       0.00000000       0.00753589       0.00676232      -0.09465453
Au      11.79806395       8.84854861       2.08562422        1       0.00000000      -0.00702042       0.00371799      -0.09550389
Au       0.00000032      11.79806441       2.08562413        1       0.00000000       0.01405288       0.01790660      -0.08084473
Au       2.94951625      11.79806448       2.08562415        1       0.00000000       0.00990589       0.04304605      -0.06024393
Au       5.89903217      11.79806455       2.08562417        1       0.00000000      -0.03122704       0.04205626      -0.06302656
Au       8.84854810      11.79806463       2.08562419        1       0.00000000       0.00161551      -0.00275899      -0.09510588
Au      11.79806403      11.79806471       2.08562421        1       0.00000000      -0.00481726      -0.00261649      -0.09289011
Au       1.49962171       1.49162287       4.20216170        2       0.00000000      -0.00047016      -0.00189612      -0.00013702
Au       4.40509365       1.49035930       4.20479084        2       0.00000000      -0.00222623       0.00019021       0.00167349
Au       7.37146091       1.47788086       4.14935892        2       0.00000000      -0.00167722       0.00007967      -0.00033407
Au      10.32553180       1.47533903       4.15192553        2       0.00000000      -0.00134300       0.00005544      -0.00003776
Au      13.28452646       1.47803394       4.15737642        2       0.00000000      -0.00117010      -0.00029618      -0.00105678
Au       1.48317843       4.42441595       4.17762114        2       0.00000000      -0.00059261      -0.00039308      -0.00081081
Au       4.42726545       4.43619274       4.17453851        2       0.00000000      -0.00205719      -0.00163710       0.00106212
Au       7.38757887       4.43895701       4.14849754        2       0.00000000      -0.00170091      -0.00004368       0.00011194
Au      10.33110697       4.43151083       4.15592069        2       0.00000000      -0.00163662       0.00006456       0.00002797
Au      13.27960527       4.42770065       4.16436343        2       0.00000000      -0.00181955       0.00056317      -0.00145467
Au       1.47283446       7.38625737       4.14857131        2       0.00000000      -0.00051593      -0.00111926       0.00006539
Au       4.43908488       7.39571355       4.14654556        2       0.00000000      -0.00040967      -0.00172271       0.00040568
Au       7.38521775       7.38567246       4.15947837        2       0.00000000      -0.00040144      -0.00031141       0.00022494
Au      10.32519927       7.37915527       4.16209052        2       0.00000000      -0.00035267      -0.00002315       0.00019452
Au      13.26785672       7.37930265       4.15586776        2       0.00000000      -0.00041779      -0.00004088       0.00040647
Au       1.47252379      10.33513481       4.15192273        2       0.00000000      -0.00034346      -0.00141575      -0.00005647
Au       4.43201772      10.34225438       4.15187165        2       0.00000000       0.00032530      -0.00187039      -0.00059879
Au       7.37917966      10.32657842       4.16030522        2       0.00000000       0.00035500      -0.00054997      -0.00000539
Au      10.32249230      10.32341443       4.16237859        2       0.00000000      -0.00019049      -0.00016883       0.00026854
Au      13.26743771      10.32169639       4.15770000        2       0.00000000      -0.00056732      -0.00056060      -0.00002437
Au       1.47942939      13.29452918       4.17271390        2       0.00000000      -0.00095778      -0.00122149      -0.00041025
Au       4.40423918      13.30361566       4.19655057        2       0.00000000       0.00045501      -0.00191733      -0.00126578
Au       7.36901469      13.27089692       4.15138392        2       0.00000000      -0.00008252      -0.00050248      -0.00053505
Au      10.31864742      13.26932562       4.15653320        2       0.00000000      -0.00019934      -0.00017076       0.00006543
Au      13.26782902      13.26817507       4.15148430        2       0.00000000      -0.00055033      -0.00090298      -0.00034239
Au      -0.06151865      -0.03468256       6.20647091        3       0.00000000      -0.00319873      -0.00093137      -0.00119418
Au       2.97387645      -0.09003108       6.29659686        3       0.00000000       0.00473821      -0.01248342      -0.00132578
Au       5.93934447      -0.00000189       6.22189700        3       0.00000000       0.00181493      -0.00110865      -0.00090525
Au       8.85173625       0.00377842       6.21955189        3       0.00000000      -0.00032957       0.00025706      -0.00019659
Au      11.77368535      -0.00189403       6.21799455        3       0.00000000      -0.00141879       0.00007298      -0.00005792
Au      -0.05905550       2.97880671       6.22316123        3       0.00000000      -0.00157001      -0.00019141      -0.00297201
Au       3.05354247       3.14559135       6.26018213        3       0.00000000      -0.00930610      -0.00120236       0.00280302
Au       5.98576006       2.98017006       6.21967423        3       0.00000000      -0.00445075      -0.00051398      -0.00061332
Au       8.87374221       2.95138738       6.22173064        3       0.00000000      -0.00283377       0.00015436      -0.00039002
Au      11.78222731       2.95328907       6.22140943        3       0.00000000      -0.00167595      -0.00018271      -0.00060903
Au      -0.00578178       5.93208753       6.21708327        3       0.00000000      -0.00090158      -0.00139408      -0.00009814
Au       2.97072676       6.01270639       6.21740454        3       0.00000000      -0.00138528      -0.00253022       0.00060818
Au       5.92689043       5.93111499       6.22169250        3       0.00000000      -0.00135227      -0.00102077       0.00031002
Au       8.85991536       5.90225291       6.22561965        3       0.00000000      -0.00104304      -0.00006950       0.00019674
Au      11.79838128       5.90702712       6.22559081        3       0.00000000      -0.00079934      -0.00051127       0.00010659
Au       0.00249150       8.85648334       6.22167885        3       0.00000000      -0.00050846      -0.00101571       0.00037152
Au       2.95220867       8.88385692       6.22253923        3       0.00000000      -0.00017004      -0.00305865       0.00013798
Au       5.90129370       8.86468699       6.22422946        3       0.00000000       0.00005270      -0.00099972       0.00030726
Au       8.85211222       8.85410798       6.22828345        3       0.00000000      -0.00014603      -0.00026165       0.00056157
Au      11.80013893       8.85179038       6.22687398        3       0.00000000      -0.00049902      -0.00036784       0.00061321
Au      -0.01007670      11.78296448       6.21943929        3       0.00000000      -0.00077497      -0.00164274      -0.00026846
Au       2.95424534      11.77184375       6.22786431        3       0.00000000       0.00063713      -0.00667647      -0.00022211
Au       5.91239861      11.79895701       6.22606181        3       0.00000000       0.00080922      -0.00158604      -0.00019105
Au       8.84906116      11.80395926       6.22455887        3       0.00000000      -0.00009201       0.00009353       0.00034608
Au      11.79390498      11.79844473       6.22347852        3       0.00000000      -0.00065746      -0.00032213       0.00042851
O        2.04574596       1.66129643       7.65854152        0       0.00000000       0.00791991      -0.02602147      -0.00740733
O        2.59585646       1.85745212       9.02041214        0       0.00000000       0.02539240      -0.03932555      -0.00971934
H        3.27384728       2.54937916       8.84166434        0       0.00000000      -0.01907882      -0.02901016       0.01023175
