103
Lattice="14.747579633050908 3.8169445179852467e-07 9.941081283805471e-08 3.8169445179852467e-07 14.747580514872006 -7.47423212986159e-08 0.0 0.0 36.25687252440943" Properties=species:S:1:pos:R:3:tags:I:1:initial_magmoms:R:1:forces:R:3 energy=-318.35980224609375 free_energy=-318.35980224609375 stress="0.0074992807204482 -6.120408691147988e-06 2.1934897998828804e-05 -6.120408691147988e-06 0.007491323149883295 1.2952148484131295e-05 2.1934897998828804e-05 1.2952148484131295e-05 0.0006195493702144109" pbc="T T T"
Au       1.47475800       1.47475809       0.00000006        0       0.00000000      -0.00083319      -0.00089785       0.08112479
Au       4.42427393       1.47475817       0.00000008        0       0.00000000      -0.00036056       0.00006214       0.08281451
Au       7.37378985       1.47475824       0.00000010        0       0.00000000       0.00031574      -0.00093135       0.08011170
Au      10.32330578       1.47475832       0.00000012        0       0.00000000      -0.00066556      -0.00131632       0.07719563
Au      13.27282171       1.47475840       0.00000014        0       0.00000000       0.00009676      -0.00168255       0.07706428
Au       1.47475808       4.42427420       0.00000004        0       0.00000000      -0.00023629       0.00003557       0.08228344
Au       4.42427401       4.42427427       0.00000006        0       0.00000000      -0.00023176      -0.00014936       0.08475052
Au       7.37378993       4.42427435       0.00000008        0       0.00000000      -0.00097699      -0.00043627       0.08113869
Au      10.32330586       4.42427442       0.00000010        0       0.00000000       0.00034001       0.00061078       0.07571919
Au      13.27282178       4.42427450       0.00000012        0       0.00000000      -0.00142874       0.00032713       0.07486495
Au       1.47475815       7.37379030       0.00000003        0       0.00000000      -0.00157215       0.00080371       0.07920354
Au       4.42427408       7.37379037       0.00000005        0       0.00000000      -0.00084188      -0.00071091       0.08023105
Au       7.37379001       7.37379045       0.00000007        0       0.00000000       0.00086775       0.00064657       0.07747836
Au      10.32330593       7.37379053       0.00000009        0       0.00000000       0.00030157       0.00116827       0.07636507
Au      13.27282186       7.37379060       0.00000011        0       0.00000000      -0.00018532       0.00151520       0.07683060
Au       1.47475823      10.32330640       0.00000001        0       0.00000000      -0.00133085      -0.00052107       0.07732271
Au       4.42427416      10.32330648       0.00000003        0       0.00000000       0.00044139       0.00063632       0.07564174
Au       7.37379008      10.32330655       0.00000005        0       0.00000000       0.00082432       0.00005952       0.07667445
Au      10.32330601      10.32330663       0.00000007        0       0.00000000       0.00061673       0.00079411       0.07759979
Au      13.27282194      10.32330670       0.00000009        0       0.00000000      -0.00208862       0.00172371       0.07629912
Au       1.47475831      13.27282250       0.00000000        0       0.00000000      -0.00185386      -0.00000103       0.07699859
Au       4.42427423      13.27282257       0.00000002        0       0.00000000       0.00016540      -0.00120238       0.07477633
Au       7.37379016      13.27282265       0.00000004        0       0.00000000       0.00132685       0.00009676       0.07692552
Au      10.32330609      13.27282272       0.00000006        0       0.00000000       0.00170624      -0.00209738       0.07611318
Au      13.27282201      13.27282280       0.00000008        0       0.00000000      -0.00263474      -0.00245432       0.07536373
Au       0.00000001      -0.00000001       2.08562419        1       0.00000000       0.02912899       0.02829226      -0.06507902
Au       2.94951594       0.00000007       2.08562421        1       0.00000000       0.00034600       0.03660648      -0.05284514
Au       5.89903187       0.00000014       2.08562423        1       0.00000000       0.00093479       0.03420262      -0.05578004
Au       8.84854779       0.00000021       2.08562425        1       0.00000000      -0.02240069       0.02181442      -0.06787251
Au      11.79806373       0.00000029       2.08562427        1       0.00000000       0.00117217      -0.00636183      -0.09581196
Au       0.00000009       2.94951609       2.08562417        1       0.00000000       0.03695623      -0.00102541      -0.05391590
Au       2.94951602       2.94951617       2.08562419        1       0.00000000       0.01488305       0.00912736      -0.04006220
Au       5.89903194       2.94951624       2.08562421        1       0.00000000      -0.00731002       0.00741419      -0.04327184
Au       8.84854787       2.94951632       2.08562423        1       0.00000000      -0.02784545      -0.00192838      -0.05877557
Au      11.79806380       2.94951640       2.08562425        1       0.00000000       0.00355811      -0.00094091      -0.09760226
Au       0.00000017       5.89903220       2.08562416        1       0.00000000       0.03466270      -0.00028342      -0.05780783
Au       2.94951609       5.89903227       2.08562418        1       0.00000000       0.01092555      -0.01205094      -0.04455452
Au       5.89903202       5.89903235       2.08562420        1       0.00000000      -0.00507875      -0.01214282      -0.04882121
Au       8.84854795       5.89903242       2.08562422        1       0.00000000      -0.02090109      -0.00510714      -0.06538443
Au      11.79806387       5.89903250       2.08562424        1       0.00000000       0.00388168       0.00101029      -0.09713036
Au       0.00000024       8.84854830       2.08562414        1       0.00000000       0.02151534      -0.02221561      -0.06867269
Au       2.94951617       8.84854838       2.08562416        1       0.00000000      -0.00210813      -0.02677386      -0.06226915
Au       5.89903210       8.84854846       2.08562418        1       0.00000000      -0.00216366      -0.01944748      -0.06801549
Au       8.84854802       8.84854853       2.08562420        1       0.00000000      -0.00907559      -0.00989778      -0.07710202
Au      11.79806395       8.84854861       2.08562422        1       0.00000000       0.00182522       0.00683820      -0.09366649
Au       0.00000032      11.79806441       2.08562413        1       0.00000000      -0.00567565       0.00014940      -0.09531234
Au       2.94951625      11.79806448       2.08562415        1       0.00000000      -0.00198536       0.00245989      -0.09754840
Au       5.89903217      11.79806455       2.08562417        1       0.00000000       0.00065153       0.00292662      -0.09786221
Au       8.84854810      11.79806463       2.08562419        1       0.00000000       0.00773048       0.00093023      -0.09424210
Au      11.79806403      11.79806471       2.08562421        1       0.00000000       0.00013875      -0.00039548      -0.08874401
Au       1.48834380       1.48646965       4.18715169        2       0.00000000      -0.00216398      -0.00297409      -0.00402466
Au       4.42978296       1.48951713       4.18421176        2       0.00000000      -0.00437409       0.00459190       0.00136252
Au       7.36870067       1.48281135       4.18325164        2       0.00000000      -0.00231954       0.00386265      -0.00252965
Au      10.32592460       1.46818789       4.15294247        2       0.00000000      -0.00322192      -0.00013864      -0.00032961
Au      13.27573133       1.46852317       4.15255574        2       0.00000000      -0.00182532      -0.00161334      -0.00294469
Au       1.49301989       4.42594628       4.18161612        2       0.00000000       0.00304712      -0.00234895       0.00392097
Au       4.42891013       4.42226513       4.19208620        2       0.00000000      -0.00904167      -0.00480754      -0.01040509
Au       7.36821231       4.42387291       4.17897937        2       0.00000000      -0.00549963      -0.00042349      -0.00927883
Au      10.32567973       4.42447704       4.15121951        2       0.00000000       0.00085527       0.00114496       0.00346224
Au      13.27786122       4.42506968       4.15149842        2       0.00000000      -0.00030413       0.00053255      -0.00107931
Au       1.48418376       7.36734244       4.18102564        2       0.00000000       0.00135184       0.00039284      -0.00435226
Au       4.42765302       7.36671776       4.17448977        2       0.00000000      -0.00286587      -0.00462426      -0.00562455
Au       7.37593901       7.37430056       4.16871696        2       0.00000000      -0.00305366      -0.00363487       0.00000421
Au      10.32904717       7.37971991       4.15498765        2       0.00000000      -0.00347662       0.00057691      -0.00084709
Au      13.27523274       7.37884757       4.15457639        2       0.00000000       0.00076011       0.00277019      -0.00171425
Au       1.46845880      10.32406256       4.15349681        2       0.00000000      -0.00020100      -0.00111509      -0.00067497
Au       4.42401594      10.32489634       4.15109058        2       0.00000000       0.00260687       0.00008360       0.00310179
Au       7.37986885      10.32789757       4.15472809        2       0.00000000       0.00066586      -0.00384696      -0.00018357
Au      10.32636646      10.32591992       4.16157910        2       0.00000000       0.00049053       0.00085871      -0.00107741
Au      13.27110421      10.32523808       4.16069841        2       0.00000000      -0.00251184       0.00165482      -0.00019957
Au       1.46852111      13.27429121       4.15279865        2       0.00000000      -0.00152171      -0.00220352      -0.00362015
Au       4.42463668      13.27624127       4.15181395        2       0.00000000       0.00193117      -0.00095700      -0.00100203
Au       7.37931259      13.27341229       4.15409852        2       0.00000000       0.00274038       0.00263026      -0.00157754
Au      10.32585024      13.27057277       4.16066836        2       0.00000000       0.00148702      -0.00231583      -0.00052711
Au      13.27130965      13.27093266       4.16005625        2       0.00000000      -0.00365623      -0.00330644       0.00024295
Au      -0.01109696      -0.01122574       6.22892891        3       0.00000000      -0.00377681      -0.00417656      -0.00873496
Au       2.93997133      -0.04831471       6.22435116        3       0.00000000      -0.00110966      -0.00885511      -0.00341664
Au       5.91074324      -0.04098421       6.22639568        3       0.00000000       0.00226171       0.00382591      -0.00785482
Au       8.85937913      -0.01073830       6.22751720        3       0.00000000       0.00540538      -0.00365035      -0.00390173
Au      11.79904018       0.00277474       6.22281656        3       0.00000000      -0.00027912      -0.00138707       0.00315794
Au      -0.04460484       2.94057120       6.22361622        3       0.00000000      -0.00690447      -0.00249455      -0.00328936
Au       2.87174803       2.86759139       6.26037100        3       0.00000000      -0.01822541      -0.02010731       0.01367196
Au       5.98562309       2.89633874       6.25845255        3       0.00000000       0.00714148      -0.00472632       0.00324786
Au       8.89959738       2.93949226       6.22544900        3       0.00000000      -0.00250651       0.00235343      -0.00192272
Au      11.80191719       2.95062711       6.22296754        3       0.00000000      -0.00163561      -0.00262046      -0.00287752
Au      -0.03240336       5.90863543       6.22485102        3       0.00000000      -0.00095378       0.00321795      -0.00742768
Au       2.90513770       5.97967002       6.24794487        3       0.00000000      -0.01122703       0.01249513       0.00341371
Au       5.96547467       5.96533040       6.23410768        3       0.00000000       0.00408271       0.00271467      -0.00159799
Au       8.89118429       5.90962770       6.22271308        3       0.00000000      -0.00358454      -0.00059071      -0.00277027
Au      11.80311684       5.89614072       6.22321940        3       0.00000000      -0.00017906       0.00441856      -0.00311196
Au      -0.00904692       8.85754515       6.22711894        3       0.00000000      -0.00263855       0.00433568      -0.00371976
Au       2.94162549       8.89214516       6.22433191        3       0.00000000       0.00141019       0.00215723      -0.00166672
Au       5.90900119       8.88947364       6.22247811        3       0.00000000       0.00073956      -0.00604312      -0.00282452
Au       8.85696912       8.85688552       6.22497424        3       0.00000000       0.00531349       0.00481953      -0.00178221
Au      11.79950065       8.84676275       6.22366934        3       0.00000000      -0.00047121       0.00089005       0.00209855
Au       0.00256141      11.79823011       6.22288007        3       0.00000000      -0.00119451      -0.00050228       0.00317092
Au       2.95006761      11.79705697       6.22294618        3       0.00000000      -0.00205673      -0.00020849      -0.00211661
Au       5.89605146      11.79870884       6.22402187        3       0.00000000       0.00486023       0.00083167      -0.00409727
Au       8.84707660      11.79873710       6.22379903        3       0.00000000       0.00059426      -0.00068389       0.00196625
Au      11.79951107      11.79916327       6.22284062        3       0.00000000      -0.00119173      -0.00121910       0.00572377
O        4.28919224       4.27409728       7.57435552        0       0.00000000       0.00900222       0.01374070      -0.03711045
O        4.12854911       4.12774643       9.04357072        0       0.00000000       0.02443420      -0.00333956      -0.03049304
H        5.05421073       4.25340012       9.34911807        0       0.00000000      -0.03273794      -0.00926469      -0.02857876
