64
Lattice="10.328519007168946 -0.02618057368400467 -0.014698862270650344 5.141586461688474 8.939773858846923 -0.02341842509528155 -0.012001570787513642 -0.015149992794574586 8.845400465254045" Properties=species:S:1:pos:R:3:tags:I:1:initial_magmoms:R:1:forces:R:3 unique_id=2220c9399b1c42339133cba2c82d670b stress="0.0003514845309304168 -9.448019202392343e-08 3.880871427358535e-06 -9.448019202392343e-08 0.00035225214198113253 1.1666788842760302e-05 3.880871427358535e-06 1.1666788842760302e-05 0.00032849133200922587" energy=-400.1646626245247 pbc="T T T"
Ni       0.03644233       0.01898773       0.16873202        4       1.00000000       0.17066255       0.04095848       0.21433321
Ni       2.57433802      -0.00376703       0.19790645        4       1.00000000      -0.02330611      -0.01161276       0.39253377
Ni       5.12785869      -0.02953411       0.14571843        4       1.00000000      -0.14168804       0.12848239       0.28551528
Pt       7.76456369      -0.10900774       0.03731365        4       0.00000000      -0.02820665      -0.11325174      -0.10420060
Ni       1.25257373       2.24086918       0.09893254        4       1.00000000      -0.16332572       0.03254503       0.25111026
Pt       3.78202955       2.23775479       0.10815530        4       0.00000000      -0.12608186       0.03361273      -0.11417958
Pt       6.44017350       2.25421214       0.13902074        4       0.00000000      -0.01841680       0.04120602       0.26786623
Ni       9.07849184       2.22994998       0.14542413        4       1.00000000       0.07159542       0.07262369       0.25335824
Ni       2.56387255       4.47898383       0.06404727        4       1.00000000       0.05394381       0.00285594       0.05133979
Ni       5.11425250       4.48201511       0.16475283        4       1.00000000      -0.07969615       0.06486115       0.34395499
Pt       7.81601986       4.48524810       0.09012132        4       0.00000000       0.14903536       0.07456832      -0.10206784
Ni      10.34430378       4.43804285       0.04819346        4       1.00000000       0.11663663      -0.08837133       0.11858459
Ni       3.84088597       6.66503483       0.17055768        4       1.00000000      -0.01688078      -0.21712437       0.39838664
Pt       6.41489451       6.73513999       0.17204022        4       0.00000000      -0.04535033       0.00351366       0.04545328
Ni       9.03368327       6.69837947       0.04274172        4       1.00000000      -0.04944755       0.03315027       0.00065893
Ni      11.59929485       6.64765068       0.03416077        4       1.00000000       0.01434659      -0.16756384       0.02219703
Ni       1.31947569       0.75627455       2.17721636        3       1.00000000       0.12201306       0.13529385      -0.06959627
Ni       3.82391963       0.75121697       2.20206795        3       1.00000000      -0.04844325       0.04216560       0.02081832
Pt       6.39754217       0.75488026       2.25453284        3       0.00000000      -0.03588398       0.09545224      -0.10712562
Pt       9.12875727       0.75012300       2.17930529        3       0.00000000       0.02869728       0.01426749      -0.03726116
Ni       2.57655329       2.96653587       2.21056578        3       1.00000000      -0.01408033       0.04540102       0.02649362
Ni       5.10469986       3.01989309       2.23475176        3       1.00000000      -0.21927355       0.08304799       0.01487875
Ni       7.77032779       3.01803954       2.21848343        3       1.00000000       0.11521570       0.13447250      -0.03987764
Ni      10.32732245       2.95937045       2.18361095        3       1.00000000       0.09388206       0.07923546       0.04621341
Ni       3.88957026       5.20503042       2.21151072        3       1.00000000       0.06494905      -0.04624474       0.12159226
Ni       6.42323585       5.20894697       2.22452089        3       1.00000000      -0.03008924       0.13314222      -0.06935831
Ni       8.99529892       5.16719414       2.22597490        3       1.00000000      -0.03154306      -0.10970204       0.16987258
Pt      11.65068380       5.14085662       2.12891726        3       0.00000000       0.07682148      -0.05784203       0.01686488
Ni       5.13099356       7.40181720       2.19592131        3       1.00000000      -0.08934938      -0.18999410      -0.04905238
Ni       7.70710802       7.43424156       2.19231146        3       1.00000000      -0.03284661      -0.11067214      -0.05017747
Pt      10.24685914       7.38767451       2.09625885        3       0.00000000       0.00296509      -0.15576124      -0.02740405
Ni      12.92343466       7.37769277       2.17581229        3       1.00000000       0.01219156      -0.12603818      -0.01069125
Ni       0.00995118       1.51207966       4.37837763        2       1.00000000       0.12725229       0.01575008      -0.08481488
Pt       2.60181261       1.53188704       4.33291824        2       0.00000000       0.02204383      -0.02476162      -0.09409496
Ni       5.12833420       1.51012471       4.37148071        2       1.00000000       0.01036582       0.11645951      -0.06521442
Pt       7.79392391       1.52051133       4.35086631        2       0.00000000       0.12020311       0.08779112       0.10223965
Pt       1.27805298       3.71334527       4.42640065        2       0.00000000      -0.01560280      -0.06046127      -0.06237642
Ni       3.86211153       3.74281064       4.35409318        2       1.00000000      -0.01290538       0.10068327      -0.23957463
Pt       6.42272288       3.78435848       4.27433829        2       0.00000000      -0.07369237      -0.04088452       0.00436615
Ni       9.01626284       3.71564323       4.35384329        2       1.00000000      -0.00661698       0.01166399      -0.24316757
Ni       2.58739427       5.90215573       4.36935831        2       1.00000000       0.06353993      -0.17920504      -0.17125571
Ni       5.11620966       5.91526898       4.32260502        2       1.00000000      -0.09203315      -0.04481678      -0.18452999
Ni       7.73048560       5.90506042       4.33839690        2       1.00000000      -0.03697853       0.00871821      -0.25674912
Pt      10.26013138       5.87267023       4.43148881        2       0.00000000      -0.04788792      -0.03534499      -0.09419106
Pt       3.85822948       8.12153558       4.31768084        2       0.00000000       0.02295598      -0.14526499      -0.00758304
Pt       6.41458638       8.15105296       4.24521638        2       0.00000000      -0.01295592      -0.03568290      -0.03121702
Pt       8.99232675       8.16440348       4.32106152        2       0.00000000       0.01838925       0.04670403       0.04728808
Pt      11.61446248       8.12214559       4.37780668        2       0.00000000       0.01272367      -0.11282401      -0.02568641
Pt      -0.02197443       0.03331921       6.60976059        1       0.00000000      -0.04922590       0.03874813       0.05530951
Pt       2.59128410       0.03714413       6.64156339        1       0.00000000       0.02283837       0.08092883       0.23743514
Pt       5.18622318      -0.08281968       6.61909254        1       0.00000000       0.07372341      -0.17100638       0.12190073
Ni       7.73956986      -0.03483137       6.48575400        1       1.00000000       0.09085345       0.12019689      -0.31821335
Ni       1.29937139       2.27825592       6.56792122        1       1.00000000       0.11347147       0.11006240      -0.04006687
Ni       3.83022606       2.24582499       6.48641315        1       1.00000000      -0.05314772       0.04498112      -0.24591368
Pt       6.43019803       2.21756493       6.49269561        1       0.00000000       0.04638057       0.04801928      -0.28548607
Pt       9.09039466       2.31195370       6.57411768        1       0.00000000       0.15529129       0.21957516       0.14380062
Ni       2.51514935       4.43920437       6.55535350        1       1.00000000      -0.15942300      -0.05116959      -0.11229659
Pt       5.06805898       4.42345480       6.55452717        1       0.00000000      -0.15096124      -0.00892835       0.09883419
Ni       7.77437247       4.46769826       6.46607416        1       1.00000000       0.06846009       0.08696694      -0.30721334
Ni      10.32891209       4.47088337       6.56105958        1       1.00000000       0.11105435       0.16747476       0.00724789
Pt       3.73887267       6.66669599       6.57588443        1       0.00000000      -0.16655440       0.03603328       0.21823125
Pt       6.49057221       6.63366079       6.47828411        1       0.00000000      -0.00476916      -0.00645255      -0.23746420
Ni       9.04042410       6.63135233       6.55238965        1       1.00000000       0.00223216      -0.10644421      -0.10574393
Ni      11.57272560       6.62757168       6.55471845        1       1.00000000      -0.09807079      -0.21418735      -0.10483382
