64
Lattice="10.307237420140806 -0.007343322230777138 0.004377395885266569 5.147259206470373 8.836200841226946 -0.022400203534353066 0.0035741287736872442 -0.023182638635073277 8.762332881700422" Properties=species:S:1:pos:R:3:tags:I:1:initial_magmoms:R:1:forces:R:3 unique_id=42a7b9f26b39462cb16c2ddcc5a2a109 stress="0.0001732678680885988 2.962319590226438e-06 -7.002450969181937e-06 2.962319590226438e-06 0.00017950690630039873 8.347504253970237e-06 -7.002450969181937e-06 8.347504253970237e-06 0.00017149818213832435" energy=-396.5931616777154 pbc="T T T"
Ni       0.00793907       0.01461336       0.18408841        4       1.00000000       0.06533096       0.04484800       0.22612636
Ni       2.56992071      -0.00153280       0.21509601        4       1.00000000      -0.00029204       0.00822864       0.34064475
Ni       5.15686718      -0.00881102       0.15558129        4       1.00000000       0.00618782       0.12893806       0.19639130
Ni       7.73075810      -0.04026330       0.17401363        4       1.00000000      -0.05372889      -0.08715889       0.28975947
Ni       1.25646594       2.21463647       0.18594639        4       1.00000000      -0.10011487       0.01809005       0.26656918
Pt       3.81855800       2.21876577       0.18038026        4       0.00000000      -0.05773245       0.02674456       0.17176094
Pt       6.49278249       2.21245609       0.10222579        4       0.00000000       0.08899397      -0.03995619      -0.06510989
Ni       9.05061805       2.23023769       0.14885188        4       1.00000000       0.12247759       0.11562191       0.14829050
Ni       2.55527349       4.44023083       0.04313250        4       1.00000000      -0.08711333       0.02273485      -0.07189735
Ni       5.15391028       4.42764528       0.06075884        4       1.00000000       0.06924271      -0.06000319       0.05895804
Ni       7.74499208       4.41169357       0.06679925        4       1.00000000       0.06024123      -0.02107384       0.06424296
Ni      10.30596874       4.39953278       0.05672927        4       1.00000000      -0.00836923      -0.05778634       0.00467756
Ni       3.83429264       6.64017765       0.06106690        4       1.00000000      -0.05751672       0.08276310       0.06561732
Pt       6.43267442       6.62232099       0.08635303        4       0.00000000      -0.01463288      -0.03200512      -0.13545853
Ni       9.02142356       6.62580084       0.13297794        4       1.00000000      -0.02832246       0.00043980       0.15096403
Ni      11.61172196       6.62095360       0.04725199        4       1.00000000       0.08740488      -0.04963732      -0.06621048
Ni       1.29478335       0.74687766       2.15656855        3       1.00000000      -0.03398858       0.06144354       0.01042397
Ni       3.86301733       0.73961926       2.20333253        3       1.00000000       0.08937011       0.04177954       0.01856767
Ni       6.44077508       0.75350552       2.23681516        3       1.00000000       0.01405822       0.10034390       0.15876710
Pt       9.01859814       0.76639761       2.17708517        3       0.00000000      -0.02363721       0.10108069       0.08541223
Ni       2.54650583       2.92677912       2.19859183        3       1.00000000      -0.04689411       0.06956163      -0.04232170
Ni       5.17306893       2.91460079       2.23759152        3       1.00000000      -0.01306998      -0.10690835       0.06323770
Ni       7.71997922       2.92841799       2.21241519        3       1.00000000       0.00290749      -0.02624351       0.04398694
Ni      10.31906901       2.90888456       2.20254803        3       1.00000000       0.02232944       0.00362616       0.15183569
Pt       3.89882120       5.13162465       2.14124231        3       0.00000000      -0.02322223      -0.05373597      -0.11035499
Ni       6.44200180       5.12923080       2.18253303        3       1.00000000      -0.00004995      -0.04277057      -0.01286440
Pt       8.95504713       5.09652113       2.20109987        3       0.00000000      -0.01070571      -0.00838810       0.03726320
Pt      11.59876517       5.09568097       2.19810329        3       0.00000000       0.03077328      -0.04671472      -0.02635619
Ni       5.15350088       7.36431051       2.15279982        3       1.00000000      -0.05844212      -0.02920855      -0.08485406
Ni       7.70739291       7.37034064       2.16342542        3       1.00000000       0.03214423      -0.05672824      -0.01357575
Pt      10.34867359       7.40144302       2.13178714        3       0.00000000       0.09355434      -0.00531361      -0.00928557
Ni      12.88203525       7.36003210       2.15714518        3       1.00000000       0.03061457      -0.07099822      -0.07842074
Ni      -0.02396861       1.51950092       4.32483162        2       1.00000000      -0.03957510       0.12594945      -0.01402225
Pt       2.57092562       1.54804072       4.23284562        2       0.00000000      -0.00340321       0.09501417       0.11919800
Ni       5.20244799       1.45696767       4.30245444        2       1.00000000       0.03010667      -0.08344316      -0.15565719
Ni       7.71290200       1.45914246       4.32925332        2       1.00000000       0.00696812      -0.09460590      -0.07648977
Ni       1.26331638       3.72176600       4.34762882        2       1.00000000      -0.05117551       0.02344108      -0.04043038
Ni       3.84021532       3.70042442       4.32107282        2       1.00000000      -0.09636404       0.00628641      -0.18756454
Pt       6.48287176       3.61648826       4.32934720        2       0.00000000       0.03682605      -0.02189260      -0.10124510
Ni       9.05102889       3.67862005       4.33993472        2       1.00000000       0.11327205      -0.00832770      -0.09446421
Ni       2.52157992       5.84798063       4.38696242        2       1.00000000      -0.10048714      -0.04787081      -0.07244084
Pt       5.12463973       5.82562159       4.38349189        2       0.00000000      -0.00393349       0.00727454      -0.09365544
Ni       7.74913837       5.83054880       4.34321826        2       1.00000000       0.02091661      -0.06037225      -0.09154091
Ni      10.34413128       5.82645949       4.37057549        2       1.00000000       0.03716142      -0.02318951      -0.05700442
Pt       3.77882482       8.07565724       4.27151571        2       0.00000000      -0.05320554      -0.06500011       0.06576114
Pt       6.43646284       8.07880084       4.23742458        2       0.00000000      -0.06790559       0.07258568      -0.01384920
Pt       9.06506600       8.05825318       4.27407639        2       0.00000000      -0.02038654      -0.06613978       0.05672900
Ni      11.59489931       8.06837331       4.31100017        2       1.00000000      -0.01758192      -0.05717194      -0.09606554
Pt      -0.01566880      -0.08109797       6.56023105        1       0.00000000       0.02863264      -0.07153419       0.09611907
Pt       2.57906598      -0.04849911       6.57796045        1       0.00000000      -0.06786835       0.02571278       0.20509765
Pt       5.18759869      -0.03004303       6.52068476        1       0.00000000       0.04988596      -0.04178924       0.03520447
Pt       7.71043796      -0.07254445       6.54082473        1       0.00000000      -0.04508889      -0.11826969       0.13340825
Pt       1.27772039       2.30336104       6.51385032        1       0.00000000       0.03954628       0.07841472       0.16428567
Pt       3.93261203       2.30686625       6.42651738        1       0.00000000       0.04312182       0.20962219      -0.26860474
Ni       6.44800650       2.22228064       6.42397323        1       1.00000000      -0.01319183      -0.00415931      -0.21605319
Pt       8.95931425       2.28103295       6.47645740        1       0.00000000      -0.03028864       0.09201708       0.03264842
Ni       2.57603217       4.47699347       6.45903981        1       1.00000000       0.03410118       0.13345939      -0.25354894
Ni       5.16897028       4.43624740       6.50146408        1       1.00000000       0.07838755       0.13013542      -0.06317819
Ni       7.68622516       4.40168150       6.48129393        1       1.00000000      -0.22050778       0.01174251      -0.14764080
Ni      10.33701565       4.42526027       6.46162373        1       1.00000000       0.15007906       0.02791051      -0.23759643
Ni       3.83471594       6.53787860       6.49013968        1       1.00000000      -0.09043758      -0.11359238      -0.08621436
Ni       6.42879622       6.54034190       6.42135594        1       1.00000000       0.05937482      -0.04323318      -0.22380180
Pt       9.03057215       6.47042569       6.50179556        1       0.00000000      -0.01514014      -0.06824406       0.08145165
Ni      11.62063727       6.53544561       6.45665803        1       1.00000000       0.01036300      -0.08234382      -0.23562232
