64
Lattice="10.61519707011578 -0.012854670677768739 0.05248400302997374 5.29646606369366 9.18658885191267 0.025655814991529732 0.0 0.0 21.742623323316224" Properties=species:S:1:pos:R:3:tags:I:1:initial_magmoms:R:1:forces:R:3 unique_id=89906461fbf24703bf727101f0d65036 energy=-393.60496448494655 stress="0.008157116825195699 -0.00011004727614383344 0.0002146134289038688 -0.00011004727614383344 0.008200815425545281 6.685952197683075e-05 0.0002146134289038688 6.685952197683075e-05 -0.0008631947667034918" pbc="T T T"
Pt       0.05975324       0.00053897       0.05049797        1       0.00000000       0.02116042      -0.04125411      -0.32288458
Ni       2.65753270      -0.01031476       0.00631745        0       1.00000000       0.03305381       0.00207446       0.43739721
Pt       5.27125857      -0.02382604       0.06499307        1       0.00000000      -0.01532663      -0.16179435      -0.17113399
Pt       7.96502408      -0.00776318       0.10252253        1       0.00000000       0.03399636      -0.06165258      -0.51106994
Pt       1.31388335       2.30484024       0.05468531        1       0.00000000      -0.11285331       0.08433313      -0.09101171
Pt       3.96308324       2.27129634       0.04374348        0       0.00000000      -0.02671834       0.06563611      -0.05568694
Pt       6.66710167       2.32549837       0.00788423        0       0.00000000       0.07965005      -0.05265816       0.04909095
Pt       9.29538921       2.38888125       0.13857013        1       0.00000000       0.09858897       0.13036900      -0.26933478
Pt       2.61174980       4.59246150       0.07343049        1       0.00000000      -0.06516750      -0.04512530      -0.21984001
Pt       5.35305605       4.59618854       0.00000000        0       0.00000000       0.02681169       0.03966141       0.00790454
Ni       7.97465515       4.58721774       0.11793167        1       1.00000000      -0.08247797       0.02061992       0.13984827
Ni      10.60185206       4.58553864       0.12996962        1       1.00000000       0.10805319      -0.03957480       0.15391168
Pt       3.98255379       6.90393614       0.10231147        1       0.00000000       0.05583730       0.21397160      -0.55673451
Pt       6.66851194       6.87954533       0.11316597        1       0.00000000      -0.07949252      -0.04078676      -0.13582250
Pt       9.27019991       6.84646061       0.09671630        1       0.00000000       0.14564264       0.06184067      -0.18533720
Pt      11.90943508       6.85123880       0.18529536        2       0.00000000      -0.06531885       0.05186089      -0.24181837
Pt       1.32826256       0.75286845       2.34868373        4       0.00000000       0.17259074      -0.06290239       0.33682692
Pt       3.98269999       0.72350372       2.36416986        5       0.00000000      -0.18532281      -0.06190738       0.29855453
Pt       6.63560947       0.70215326       2.33504561        4       0.00000000      -0.02656686      -0.04818025       0.24671054
Pt       9.31753520       0.78196526       2.30951152        4       0.00000000       0.02163411       0.13192953       0.23160212
Pt       2.59644169       3.10141778       2.37219486        5       0.00000000      -0.03026850       0.00330226       0.43529971
Pt       5.34871106       3.07613307       2.32185216        4       0.00000000       0.00950977      -0.06240490       0.24909480
Ni       7.96873949       3.07855382       2.25199997        4       1.00000000      -0.10413857      -0.01814571       0.31759256
Ni      10.62697770       3.07236450       2.28855453        4       1.00000000       0.08487067       0.03697458       0.36514947
Pt       4.00366364       5.39446480       2.27699680        4       0.00000000       0.10221275      -0.02527297       0.15510428
Ni       6.66063375       5.35061757       2.25527451        4       1.00000000       0.06782839      -0.06514429       0.29805325
Pt       9.29487984       5.29275837       2.23644855        3       0.00000000      -0.05174952      -0.11911838       0.06228569
Ni      11.91880130       5.35180684       2.28953921        4       1.00000000      -0.10183124      -0.03144309       0.35335427
Ni       5.31302900       7.64717145       2.26052133        4       1.00000000       0.01941598       0.00728823       0.33500132
Pt       7.94654877       7.61443324       2.38269310        5       0.00000000       0.01885434       0.03774491       0.37632803
Ni      10.63583954       7.63197480       2.30347721        4       1.00000000       0.00241339      -0.01786392       0.36608320
Ni      13.24788928       7.63523947       2.31373050        4       1.00000000      -0.04008700      -0.01920118       0.45797836
Ni       0.05833319       1.54067901       4.44187303        6       1.00000000       0.02456241       0.04597917      -0.35992377
Ni       2.67630648       1.50356938       4.47644086        7       1.00000000       0.02140288      -0.15744539      -0.21836844
Ni       5.30119207       1.51165545       4.47978715        7       1.00000000      -0.01768241       0.00698321      -0.38741335
Pt       7.92884039       1.52623920       4.47778730        7       0.00000000      -0.10820503       0.01764510      -0.18509384
Ni       1.34315501       3.80563594       4.44271381        6       1.00000000      -0.08702986       0.02658749      -0.28844333
Ni       3.98987290       3.79973570       4.47333772        7       1.00000000       0.00228520       0.03010914      -0.40100002
Pt       6.62218432       3.82149537       4.49214241        7       0.00000000      -0.00045934       0.01958096      -0.09153574
Pt       9.35270939       3.80239172       4.41623783        6       0.00000000       0.06485440       0.05102597      -0.28816676
Pt       2.62982593       6.10794694       4.37644349        6       0.00000000      -0.06820501      -0.00072716      -0.32985020
Pt       5.38138090       6.12538886       4.41879179        6       0.00000000       0.03980034      -0.02385526      -0.32851616
Ni       7.97324056       6.13461243       4.47810211        7       1.00000000       0.06138297      -0.13336112      -0.27469889
Pt      10.60828731       6.17542523       4.40312677        6       0.00000000      -0.13056986       0.03700543      -0.28710606
Pt       4.02288427       8.42248925       4.38758976        6       0.00000000       0.02012812      -0.02317360      -0.43200976
Ni       6.69505740       8.44104178       4.48437928        7       1.00000000       0.18102538       0.09481713      -0.17153573
Ni       9.27301063       8.44055850       4.49531135        7       1.00000000      -0.13702797       0.06670421      -0.24186871
Ni      11.92090678       8.41602357       4.47965050        7       1.00000000      -0.08374685      -0.04115362      -0.43413176
Pt       0.08262945       0.00011478       6.57862880        8       0.00000000       0.01001787       0.01134462       0.28054696
Ni       2.68913607       0.00449242       6.65134974        9       1.00000000       0.03236435       0.03181313      -0.43409379
Pt       5.29629588       0.02697166       6.56849879        8       0.00000000       0.10261631       0.01173608       0.09178121
Pt       7.95827242       0.00552622       6.65699436        9       0.00000000      -0.13877489      -0.18936289       0.53830220
Pt       1.39050215       2.26138803       6.55471530        8       0.00000000       0.04866874       0.06035734       0.16816216
Pt       4.05026343       2.29472476       6.55364325        8       0.00000000       0.04385666       0.07202680       0.06572381
Ni       6.63868280       2.30039635       6.64041602        8       1.00000000      -0.10032145      -0.03675399      -0.12785937
Pt       9.29429122       2.28374745       6.66839405        9       0.00000000       0.11156813      -0.07595205       0.25803842
Pt       2.71734049       4.56548490       6.59836664        8       0.00000000       0.04408018      -0.12838646       0.26640086
Ni       5.33421437       4.56799343       6.63223163        8       1.00000000      -0.07181146       0.00012726      -0.15821872
Pt       7.91984003       4.56255502       6.73627289        9       0.00000000      -0.03901077       0.16137589      -0.19527412
Pt      10.63841205       4.57766837       6.74262332        9       0.00000000       0.10387882      -0.05156443      -0.06812019
Pt       4.02483040       6.86306136       6.65405375        9       0.00000000      -0.01176916       0.03870489       0.44607143
Pt       6.66961408       6.89874277       6.62517478        8       0.00000000       0.06637619      -0.01060329       0.22761929
Pt       9.27058692       6.92427555       6.63012840        8       0.00000000      -0.14296709      -0.00774188       0.21561227
Pt      11.95085027       6.89151562       6.68681771        9       0.00000000       0.04390724       0.18298115       0.23247291
