64
Lattice="10.786267641771099 0.0008718289563885434 0.0007296551979338292 5.393888846909537 9.338269199819884 -0.008780317789873121 0.0 0.0 22.050756983113295" Properties=species:S:1:pos:R:3:tags:I:1:initial_magmoms:R:1:forces:R:3 unique_id=ad0acec47b7448d7acb62f32d2940815 stress="0.002753835140824586 -4.503711022496451e-05 -1.5256987625310014e-05 -4.503711022496451e-05 0.0027494494802623812 4.17221920771416e-05 -1.5256987625310014e-05 4.17221920771416e-05 -0.0016338476221084124" energy=-405.22620900921356 pbc="T T T"
Pt       0.01417682      -0.02853690       0.07790994        1       0.00000000      -0.01176332      -0.04116840      -0.23798246
Ni       2.70034451      -0.00082688       0.05809352        1       1.00000000      -0.02119464      -0.01016732       0.35844369
Pt       5.36421399      -0.00199555       0.00000000        0       0.00000000       0.02010715      -0.04107951       0.04426001
Pt       8.10241571      -0.02856952       0.07229923        1       0.00000000       0.05967857      -0.04767851      -0.24083844
Pt       1.36665229       2.30720391       0.07446980        1       0.00000000       0.05397173      -0.01987020      -0.27224943
Pt       4.03002651       2.30883506       0.06971911        1       0.00000000      -0.02809159       0.05337784      -0.27959542
Pt       6.73393425       2.33049260       0.06850565        1       0.00000000      -0.07714768      -0.00291782      -0.28888617
Pt       9.44237435       2.32685570       0.07005754        1       0.00000000       0.04483625      -0.10461587      -0.37482846
Pt       2.72351543       4.69853771       0.09066270        1       0.00000000       0.14395381       0.06745821      -0.17285649
Pt       5.36606910       4.70598003       0.09037720        1       0.00000000      -0.14751740       0.13739047      -0.17629910
Pt       8.08238617       4.67731229       0.07051364        1       0.00000000      -0.08127218       0.11651886      -0.31479257
Pt      10.79486222       4.67263063       0.07060632        1       0.00000000       0.07592805       0.05545621      -0.31356438
Ni       4.04796369       7.00065827       0.06418344        1       1.00000000       0.02723134      -0.03117589       0.39357684
Pt       6.72559080       7.02841823       0.07109633        1       0.00000000       0.00119222      -0.00692371      -0.27668635
Pt       9.42446772       7.03545996       0.06172910        1       0.00000000      -0.02586123       0.01829079      -0.29506258
Pt      12.16003160       7.00774719       0.06532077        1       0.00000000      -0.04479078       0.00305587      -0.26769060
Pt       1.35962715       0.76561110       2.33481565        2       0.00000000       0.09185798      -0.09085053       0.37834058
Pt       4.03810707       0.77273271       2.33934246        2       0.00000000      -0.01801375      -0.03516747       0.33747239
Pt       6.73518371       0.77097248       2.36400313        3       0.00000000      -0.07354724      -0.06289245       0.51002862
Pt       9.44126073       0.76701405       2.36077773        3       0.00000000       0.00986696      -0.06258726       0.52869663
Pt       2.71599903       3.13951413       2.35777535        3       0.00000000       0.05526065       0.04111345       0.48997703
Pt       5.37320679       3.13937972       2.35712303        3       0.00000000      -0.05297843       0.00017932       0.49795215
Pt       8.08372110       3.11359014       2.36220223        3       0.00000000      -0.06996328      -0.00321762       0.49392384
Pt      10.79426308       3.11091724       2.36134473        3       0.00000000       0.07196672      -0.01346276       0.50253272
Ni       4.04498642       5.45124892       2.33476856        2       1.00000000       0.00537420       0.06519106       0.40108276
Pt       6.70743224       5.45023030       2.35962388        3       0.00000000      -0.02991361       0.01769007       0.49809053
Pt       9.43627518       5.45076286       2.35821141        3       0.00000000      -0.01078153       0.07402166       0.52480994
Pt      12.17219018       5.44865661       2.35935242        3       0.00000000       0.03710375       0.01501133       0.47920491
Pt       5.36531631       7.74257594       2.32847018        2       0.00000000      -0.12870176      -0.14530373       0.31180886
Pt       8.08169181       7.79137589       2.32799192        2       0.00000000      -0.05543834       0.08009416       0.39728102
Pt      10.79439226       7.78361334       2.35827000        3       0.00000000       0.08114840       0.03479195       0.49915977
Pt      13.51534986       7.74036177       2.32718612        2       0.00000000       0.10480472      -0.12908547       0.31005825
Pt       0.00070174       1.55021108       4.68392982        4       0.00000000       0.01989793      -0.05436038      -0.52735368
Pt       2.70053558       1.54893089       4.67541426        4       0.00000000       0.00725913      -0.03192875      -0.51887841
Pt       5.39193254       1.54128409       4.70629878        4       0.00000000      -0.03619083      -0.07811231      -0.40400246
Pt       8.08766853       1.54958889       4.68316322        4       0.00000000       0.01316630      -0.02963429      -0.52738566
Pt       1.35219655       3.88772773       4.67858013        4       0.00000000       0.03733211       0.00428663      -0.49374405
Pt       4.04719561       3.89387668       4.66010858        4       0.00000000       0.00611193      -0.01970799      -0.53198729
Pt       6.73668224       3.88591148       4.67851029        4       0.00000000      -0.04363213      -0.00455470      -0.51022449
Pt       9.43859222       3.88762075       4.67729414        4       0.00000000      -0.00573211       0.00845535      -0.51415249
Pt       2.70906373       6.22154933       4.65172503        4       0.00000000       0.04433119       0.06336124      -0.53107286
Pt       5.38103286       6.21914126       4.65070254        4       0.00000000      -0.04470640       0.05819771      -0.52990572
Pt       8.08804624       6.22547824       4.67918475        4       0.00000000      -0.03680194       0.07149027      -0.54563245
Pt      10.79034805       6.22509392       4.67868226        4       0.00000000       0.03520276       0.02451573      -0.53102049
Pt       4.04269419       8.54758671       4.67206752        4       0.00000000      -0.00990125      -0.06489563      -0.49847878
Pt       6.74901465       8.55565812       4.67288737        4       0.00000000       0.04360647      -0.00627410      -0.52246329
Pt       9.44586070       8.56571046       4.69812279        4       0.00000000       0.02027527       0.08028926      -0.34055200
Pt      12.12343385       8.56128442       4.70342077        4       0.00000000      -0.07151307       0.02012759      -0.37881124
Pt       0.00214139      -0.00933810       6.98837495        5       0.00000000      -0.01598727       0.00466436       0.30615002
Pt       2.72994415      -0.00553233       7.05075698        6       0.00000000       0.01191711       0.00770807      -0.06106858
Ni       5.38894259      -0.00497928       6.99030917        5       1.00000000       0.01165999      -0.00656221      -0.36295588
Pt       8.06117745      -0.00799072       6.98296148        5       0.00000000      -0.01758742       0.02313593       0.28008435
Pt       1.35666814       2.32286261       6.98210325        5       0.00000000       0.07037458      -0.01110262       0.33227948
Pt       4.05941840       2.29600250       6.98264836        5       0.00000000       0.01299258       0.03913960       0.26222375
Pt       6.72598028       2.29973686       6.97565402        5       0.00000000      -0.01446460      -0.00789523       0.31874309
Pt       9.43352149       2.32624254       6.97893008        5       0.00000000      -0.05407911      -0.04251711       0.38671415
Pt       2.70005096       4.66834501       6.98186412        5       0.00000000       0.01753485      -0.01327493       0.23529233
Pt       5.39080966       4.66371952       6.98138561        5       0.00000000      -0.01322993      -0.07613344       0.23703175
Pt       8.09085461       4.66336839       6.97550358        5       0.00000000      -0.02081611       0.01581169       0.37033501
Pt      10.78704028       4.66992579       6.97567660        5       0.00000000       0.01402832       0.07630194       0.36702629
Pt       4.04161028       6.99873340       7.04341195        5       0.00000000      -0.04909646       0.01056682      -0.04657058
Pt       6.74468919       7.00287857       6.98410056        5       0.00000000       0.04359769       0.00901232       0.29362800
Pt       9.45518400       7.03052410       6.97446056        5       0.00000000       0.03675833      -0.00614656       0.27432977
Pt      12.12254915       7.02561765       6.97845640        5       0.00000000      -0.01961364       0.00455898       0.26705431
