64
Lattice="10.319900266478346 -0.0694411054232295 0.08636321582265376 5.099812371875784 8.881408399333115 0.06105373289619132 0.07051527043712007 0.01685000102801493 8.852807753581148" Properties=species:S:1:pos:R:3:tags:I:1:initial_magmoms:R:1:forces:R:3 unique_id=ac17995dd6c845a7a5f994183260fe2d stress="0.00034745291666824635 5.9469977545096285e-06 -3.5467051396243724e-05 5.9469977545096285e-06 0.0003335275976744309 -3.33845202820913e-05 -3.5467051396243724e-05 -3.33845202820913e-05 0.00032467470809459387" energy=-398.6072314035327 pbc="T T T"
Pt       0.12124301       0.03899396       0.02199289        4       0.00000000       0.19052928       0.01914575      -0.25614659
Ni       2.61338836      -0.07175829       0.11357508        4       1.00000000       0.16196061      -0.25722474       0.18816127
Ni       5.12378465      -0.08461595       0.12635278        4       1.00000000      -0.12427726      -0.16095975       0.12993318
Pt       7.67594442      -0.08652741       0.21252954        4       0.00000000      -0.06376102      -0.04081418       0.32090498
Ni       1.28679767       2.21374552       0.16236894        4       1.00000000       0.05291367       0.03261410       0.21445183
Pt       3.80095358       2.09157489       0.14448547        4       0.00000000      -0.09734556      -0.19235405      -0.06818945
Pt       6.43244304       2.16615179       0.20215386        4       0.00000000       0.04425310      -0.05396147       0.35612511
Ni       9.03922165       2.18100132       0.22479298        4       1.00000000       0.08207631      -0.03410716       0.23186285
Pt       2.49995366       4.42549639       0.12969183        4       0.00000000      -0.09239047       0.01052335       0.01294270
Pt       5.17084831       4.43813466       0.20006526        4       0.00000000       0.02201612      -0.00384052       0.39079799
Ni       7.73574206       4.45334761       0.13340295        4       1.00000000      -0.07072787       0.16177728       0.10236849
Pt      10.21541768       4.45352535       0.13318660        4       0.00000000      -0.10389604       0.14459442      -0.15011370
Pt       3.82908633       6.67043840       0.10646712        4       0.00000000       0.10953482       0.01076716      -0.09361241
Ni       6.48827806       6.65778534       0.13017801        4       1.00000000       0.20883069       0.03711444       0.10690883
Ni       8.96541021       6.65752025       0.16513156        4       1.00000000      -0.07988363       0.14353936       0.16877875
Ni      11.52341272       6.61371993       0.18624020        4       1.00000000      -0.09338518      -0.02182240       0.12897760
Ni       1.39011178       0.73551203       2.27875061        3       1.00000000       0.26363745      -0.03421550       0.17824692
Ni       3.86475172       0.71128977       2.30949279        3       1.00000000      -0.02957185      -0.06426255       0.26375011
Ni       6.39233912       0.68153545       2.33206529        3       1.00000000      -0.13839574      -0.00203333       0.14411946
Pt       9.06610697       0.64299427       2.34303952        3       0.00000000       0.07572830      -0.07537007      -0.07100767
Ni       2.61446723       2.93023670       2.27255094        3       1.00000000       0.14030662      -0.13368919       0.08045564
Ni       5.09935926       2.89518988       2.30278662        3       1.00000000      -0.01785814      -0.14222962       0.01933173
Pt       7.75189778       2.94686072       2.27836019        3       0.00000000       0.00941985      -0.00807145      -0.15348833
Pt      10.42031581       2.91248154       2.30461118        3       0.00000000       0.17491130       0.07026489      -0.01055676
Ni       3.80047564       5.17601141       2.31125140        3       1.00000000      -0.07030878       0.09208089       0.06421205
Pt       6.47535458       5.22051945       2.30254319        3       0.00000000       0.06985679       0.09063617      -0.07456621
Ni       9.02906311       5.18803511       2.30908872        3       1.00000000       0.13094685       0.14472605       0.10235579
Ni      11.61352045       5.17214853       2.36625968        3       1.00000000       0.00758393       0.14637718       0.11721478
Pt       5.15460116       7.39949066       2.38224273        3       0.00000000       0.07339699       0.04775381      -0.02877253
Ni       7.73401018       7.44007759       2.28659292        3       1.00000000       0.08424446       0.24380495       0.05715290
Pt      10.27739439       7.37275339       2.34773873        3       0.00000000      -0.05194622       0.00398578       0.09247103
Ni      12.83682408       7.29916360       2.41259784        3       1.00000000      -0.00574080      -0.06319489       0.21440439
Ni       0.07331951       1.43557705       4.41044438        2       1.00000000       0.10900331      -0.03896118      -0.03507759
Ni       2.61874938       1.40605710       4.40542969        2       1.00000000       0.00125714      -0.13418108      -0.13891731
Ni       5.12185226       1.39244924       4.42399864        2       1.00000000      -0.11819093      -0.13405224      -0.14232867
Pt       7.73589647       1.34120067       4.43193277        2       0.00000000      -0.09186668      -0.15306919       0.17351376
Pt       1.32428152       3.76280112       4.42100116        2       0.00000000       0.01329530       0.06262855       0.05669417
Pt       3.85323022       3.67713652       4.38450920        2       0.00000000       0.06816210      -0.00684885       0.03824799
Pt       6.42974325       3.69149584       4.43813241        2       0.00000000      -0.09819570       0.03401332       0.20276929
Pt       9.06486856       3.72460467       4.50511094        2       0.00000000      -0.00152704       0.07808239       0.05155874
Ni       2.57340416       5.99253719       4.44012832        2       1.00000000      -0.00226123       0.13461608      -0.09225033
Ni       5.11672566       5.98611126       4.47559122        2       1.00000000      -0.02219731       0.04659671       0.01228373
Pt       7.75830371       6.04212615       4.53421571        2       0.00000000       0.05182103       0.23571394       0.04205038
Ni      10.35568639       5.94655319       4.53265889        2       1.00000000       0.05557881       0.16557633      -0.01016317
Ni       3.87908417       8.09447470       4.47391120        2       1.00000000      -0.02379668      -0.04564168      -0.00113307
Ni       6.43456117       8.18015310       4.50317205        2       1.00000000       0.10504273       0.17084085      -0.03209067
Ni       9.02460138       8.17348001       4.52651219        2       1.00000000       0.02781193       0.16686292      -0.00171617
Ni      11.54665244       8.04564687       4.50403414        2       1.00000000      -0.08557872      -0.08821953      -0.05822313
Ni       0.07839095      -0.03603406       6.44757168        1       1.00000000       0.01178067      -0.14092150      -0.39239104
Ni       2.64755585      -0.04200866       6.55834724        1       1.00000000       0.05272843      -0.17156077      -0.22790478
Ni       5.14733832      -0.07293528       6.57512616        1       1.00000000      -0.18438065      -0.20284806      -0.24276262
Pt       7.77145732      -0.17990867       6.56084913        1       0.00000000      -0.14796222      -0.19968202      -0.14516341
Pt       1.39533030       2.18280537       6.58528529        1       0.00000000       0.05191540      -0.13815592       0.06405222
Ni       3.89016038       2.17099572       6.52155219        1       1.00000000      -0.01086886      -0.15830185      -0.28547658
Pt       6.40489882       2.16023439       6.58020396        1       0.00000000      -0.19099624      -0.13411666      -0.26052320
Pt       9.08966538       2.19453577       6.68650155        1       0.00000000      -0.02920121      -0.06122040       0.05886891
Ni       2.57200662       4.49767604       6.52978616        1       1.00000000      -0.11222711       0.15754884      -0.17701711
Pt       5.13573069       4.53127942       6.57476835        1       0.00000000      -0.06358080       0.04296677      -0.22172353
Ni       7.77716590       4.47492932       6.66130223        1       1.00000000      -0.01985054       0.13547604      -0.08831859
Ni      10.34452621       4.46851173       6.59320817        1       1.00000000       0.00054659       0.13509366      -0.26911735
Ni       3.87261356       6.67467575       6.49933000        1       1.00000000      -0.04524972      -0.02604767      -0.29772620
Ni       6.46727134       6.70877538       6.63221068        1       1.00000000      -0.01392312       0.23385538      -0.08094462
Ni       9.04484344       6.66018008       6.66006995        1       1.00000000       0.05204696       0.08802518      -0.03448173
Ni      11.57228528       6.58829785       6.64012477        1       1.00000000      -0.20179419      -0.16562306      -0.24406306
