64
Lattice="9.89352568880726 -0.0052391638893145975 0.004706641209104508 4.942225595380899 8.557575279340028 0.019607760843359575 0.003842956454887365 0.016267642264584905 8.455153271473813" Properties=species:S:1:pos:R:3:tags:I:1:initial_magmoms:R:1:forces:R:3 unique_id=d24ddd5f8f0a42068a2a288c3b994550 stress="0.0031269053333195795 -3.4641440632235988e-06 -7.941571683283918e-07 -3.4641440632235988e-06 0.0031272340123605427 1.192139815262773e-06 -7.941571683283918e-07 1.192139815262773e-06 0.002798387262698661" energy=-378.3207640678459 pbc="T T T"
Ni      -0.00159025       0.04652858       0.07973758        4       1.00000000      -0.00806993       0.07428648       0.06708549
Ni       2.44593072       0.04500119       0.10749800        4       1.00000000      -0.02827384       0.01628726       0.07679147
Ni       4.96911675       0.04421105       0.11133432        4       1.00000000       0.01390812       0.03108432       0.10350162
Ni       7.42771913       0.03576823       0.08396785        4       1.00000000       0.02976974       0.05503213       0.07556379
Ni       1.23136021       2.14848633       0.10665131        4       1.00000000      -0.00205908       0.02437504       0.04179371
Ni       3.68333808       2.13523974       0.07640211        4       1.00000000      -0.02783252       0.01015898       0.00592766
Ni       6.20576164       2.13233092       0.07489069        4       1.00000000       0.02004182       0.01184959       0.00644683
Ni       8.66296903       2.14353574       0.10510797        4       1.00000000       0.01696277       0.02400558       0.01826730
Ni       2.46849720       4.26848621       0.11240572        4       1.00000000       0.00482734      -0.01053339       0.06762359
Ni       4.94063120       4.29374591       0.07739847        4       1.00000000      -0.01069670       0.01860077       0.01026541
Ni       7.40473075       4.22912051       0.11400848        4       1.00000000       0.01571620      -0.02030761       0.03874458
Ni       9.91022683       4.22653319       0.11715506        4       1.00000000      -0.00448418      -0.01693936       0.02574757
Ni       3.70507042       6.40281374       0.06790695        4       1.00000000      -0.00216110       0.01553421       0.02070084
Ni       6.16261442       6.40373392       0.05633080        4       1.00000000      -0.00050341      -0.00611231      -0.08587634
Pt       8.65407467       6.41380254       0.06490084        4       0.00000000       0.00533667       0.01326576      -0.16209177
Ni      11.14568527       6.39315186       0.06090755        4       1.00000000       0.00862742      -0.02980784      -0.07547208
Ni       1.26261235       0.77098586       2.14957533        3       1.00000000      -0.00309371       0.01196938       0.07818362
Ni       3.68519977       0.68981383       2.14771533        3       1.00000000      -0.00670922       0.02484452       0.04150759
Ni       6.17886646       0.72561646       2.15134169        3       1.00000000      -0.00131660       0.01037600       0.08927923
Ni       8.66369958       0.78536566       2.12727404        3       1.00000000       0.00767957      -0.02262202       0.07716914
Ni       2.42829929       2.85290498       2.15189934        3       1.00000000      -0.00417787       0.00644673       0.05408224
Pt       4.94389357       2.85048186       2.15629931        3       0.00000000       0.00709083       0.01163477      -0.01122230
Ni       7.46573765       2.85612186       2.15406954        3       1.00000000       0.00841584      -0.00315974       0.04860657
Ni       9.89302888       2.85326669       2.15643375        3       1.00000000      -0.00799606      -0.00646450       0.05024615
Ni       3.67697560       4.96526586       2.15310211        3       1.00000000      -0.02155267       0.01009164       0.06135280
Ni       6.24765288       4.97790732       2.15157598        3       1.00000000       0.04463671      -0.01475891       0.00182380
Ni       8.66473891       4.96441681       2.18706304        3       1.00000000       0.01999203       0.00480978      -0.04891649
Ni      11.08828781       4.93525413       2.15620375        3       1.00000000      -0.02662026      -0.02149908       0.01223934
Pt       5.02020892       7.12990113       2.12800963        3       0.00000000      -0.03627407      -0.00182991       0.03459094
Ni       7.46471120       7.14294883       2.19627425        3       1.00000000       0.04211202      -0.01621678      -0.02140307
Ni       9.84263904       7.13718455       2.19861400        3       1.00000000      -0.04124514      -0.01568773      -0.01845061
Pt      12.28820127       7.11436133       2.13311436        3       0.00000000       0.03050482      -0.00437469       0.04429392
Ni       0.03054046       1.48918708       4.21090369        2       1.00000000       0.01274060       0.01647555      -0.00508155
Ni       2.47921217       1.44116731       4.21348463        2       1.00000000       0.01037277       0.02106343      -0.00692299
Ni       4.93707299       1.41815364       4.24846728        2       1.00000000      -0.01564915       0.00511432       0.00634398
Ni       7.39684173       1.48338789       4.21667927        2       1.00000000      -0.01072371       0.01964506      -0.01971888
Ni       1.23264043       3.57053791       4.21554986        2       1.00000000      -0.00409252      -0.00282761      -0.00641677
Ni       3.68917020       3.56781259       4.25119565        2       1.00000000      -0.01786623      -0.01379926       0.00397871
Ni       6.20310506       3.57896746       4.24784849        2       1.00000000       0.01420916       0.00546571      -0.01883221
Ni       8.66220205       3.57780042       4.21951907        2       1.00000000       0.01050105       0.01388550      -0.01133034
Ni       2.44605286       5.65696257       4.24730802        2       1.00000000       0.00684801      -0.01517180      -0.02534798
Ni       4.96792112       5.65787812       4.24522380        2       1.00000000      -0.01792142      -0.01940826      -0.06162737
Ni       7.42515426       5.70062194       4.20967136        2       1.00000000       0.00028264      -0.01795510      -0.09757306
Ni       9.89092782       5.69532197       4.20874361        2       1.00000000       0.01566633      -0.02530345      -0.09838625
Pt       3.70762081       7.88506358       4.30526011        2       0.00000000      -0.00048246      -0.00949164       0.00607051
Ni       6.24919735       7.86676221       4.25791631        2       1.00000000       0.02103302       0.03235495      -0.01685494
Ni       8.65309717       7.86175440       4.22344908        2       1.00000000      -0.00177604       0.03906114      -0.04442095
Ni      11.06086206       7.85857218       4.26309896        2       1.00000000      -0.02347214       0.01639616      -0.00225908
Ni       0.04413887       0.03143417       6.28154884        1       1.00000000       0.07984533       0.01919675       0.05399840
Ni       2.48720901       0.01470456       6.24010763        1       1.00000000       0.04086384      -0.00254812       0.02039862
Ni       4.93798750       0.01013344       6.24687671        1       1.00000000      -0.04833342      -0.02069901       0.05348915
Ni       7.38098108       0.02860376       6.28583649        1       1.00000000      -0.08734260       0.02443472       0.05899382
Ni       1.24561711       2.15531678       6.24368118        1       1.00000000       0.01891865       0.00615927      -0.01399413
Ni       3.71004946       2.14576743       6.23742421        1       1.00000000      -0.00792516      -0.01541021      -0.01801411
Ni       6.17846725       2.15265548       6.23923970        1       1.00000000      -0.02221250       0.00819825      -0.03170786
Ni       8.65844653       2.15228495       6.24413968        1       1.00000000      -0.00308672      -0.00675654      -0.04085781
Ni       2.46888400       4.27759572       6.25632475        1       1.00000000      -0.02381091      -0.04148074       0.02542196
Ni       4.95022395       4.27619893       6.24513850        1       1.00000000       0.00747927      -0.04516070      -0.02639359
Ni       7.42125133       4.28529360       6.24531401        1       1.00000000       0.01448115       0.00731985      -0.00855895
Ni       9.89547344       4.28323445       6.24154227        1       1.00000000      -0.00515608       0.00053043      -0.02687781
Ni       3.70991698       6.38143622       6.28215309        1       1.00000000       0.00077254      -0.09710034      -0.00082397
Ni       6.18718878       6.41941171       6.22896922        1       1.00000000       0.01539334      -0.03101252      -0.11714515
Ni       8.65683549       6.42247501       6.13578702        1       1.00000000       0.00167074      -0.02331690      -0.15751466
Ni      11.12398556       6.41600705       6.23208357        1       1.00000000      -0.02378291      -0.03219798      -0.10043731
