64
Lattice="10.750308099896223 0.00812561572538094 -0.024160300670244814 5.382191039587678 9.321342471090981 -0.025098457882849576 -0.019726802891440732 -0.012273778062093184 9.394625489627417" Properties=species:S:1:pos:R:3:tags:I:1:initial_magmoms:R:1:forces:R:3 unique_id=d26bbbf3fb84409fa3ba495e4d398811 stress="-7.500943175962893e-05 -9.307496040985601e-07 7.712045435927929e-06 -9.307496040985601e-07 -7.327911914870727e-05 -7.219724096908708e-09 7.712045435927929e-06 -7.219724096908708e-09 -2.995413473216163e-05" energy=-429.62102813886725 pbc="T T T"
Pt      -0.00738374      -0.00231678       0.09502869        4       0.00000000      -0.06342847      -0.00198773       0.14030709
Pt       2.69018899       0.00205561       0.09049445        4       0.00000000       0.01893689      -0.00036477       0.13401172
Pt       5.38823719       0.01148539       0.09559997        4       0.00000000       0.03627587       0.02069270       0.09310668
Pt       8.05084312       0.00915987       0.08441349        4       0.00000000      -0.02827709      -0.02594846       0.05967567
Pt       1.34512193       2.33450819       0.08472265        4       0.00000000      -0.01160151       0.01044066       0.12198126
Pt       4.03714824       2.33515852       0.07584765        4       0.00000000       0.02582914       0.02115768       0.10547184
Pt       6.72808008       2.33013023       0.04444001        4       0.00000000       0.00042913      -0.01162308       0.07389813
Pt       9.39418168       2.33988835       0.08233221        4       0.00000000      -0.03283935       0.00175062       0.08222967
Pt       2.69231845       4.66268926      -0.00232324        4       0.00000000       0.00756411       0.00587867      -0.08061957
Pt       5.37661665       4.65677438       0.06636731        4       0.00000000      -0.01311722      -0.02861904       0.10292520
Pt       8.06103825       4.64807221       0.08202932        4       0.00000000      -0.04095046      -0.04183105       0.08987331
Pt      10.75613600       4.66608923       0.05822405        4       0.00000000       0.00583317       0.00612362       0.06839922
Pt       4.03326760       6.98775333      -0.00797891        4       0.00000000      -0.01783947      -0.00835172      -0.06421092
Pt       6.72036382       6.99078080       0.06577586        4       0.00000000      -0.01892862      -0.03624602       0.14768577
Pt       9.41280837       6.99353847       0.06656278        4       0.00000000       0.01675462      -0.00634415       0.13581793
Pt      12.10458132       6.99746703       0.04651235        4       0.00000000       0.01717182       0.00286203       0.08130273
Pt       1.33205329       0.77835217       2.37024948        3       0.00000000      -0.05621486       0.01252296       0.13090105
Pt       4.07133034       0.78435493       2.36612783        3       0.00000000       0.11863657       0.07865332       0.11670068
Ni       6.72290122       0.79220026       2.35949423        3       1.00000000       0.04623212       0.06854348       0.14446168
Pt       9.33311730       0.81761720       2.35932590        3       0.00000000      -0.21977926       0.11111223       0.14885700
Pt       2.69649942       3.10840780       2.36761067        3       0.00000000       0.09333628       0.04760818       0.12607871
Pt       5.45477217       3.07189404       2.38618772        3       0.00000000       0.29083962      -0.10127167       0.22895082
Ni       8.04400963       3.09554668       2.35235139        3       1.00000000      -0.08621524      -0.07697721       0.14379746
Pt      10.70584281       3.10685876       2.35026598        3       0.00000000      -0.07150250      -0.01099223       0.16629584
Pt       4.03210406       5.43547899       2.36625985        3       0.00000000      -0.00943689       0.00180552       0.11442700
Pt       6.73361773       5.38563804       2.37415836        3       0.00000000       0.00126900      -0.16595962       0.21406839
Pt       9.38984942       5.41200037       2.35191608        3       0.00000000       0.01091502      -0.00972861       0.11509603
Pt      12.09275644       5.44527104       2.34226921        3       0.00000000       0.04183797       0.01181369       0.12399758
Pt       5.36122865       7.76215364       2.35903419        3       0.00000000      -0.11017676      -0.02150244       0.14149327
Pt       8.07054762       7.76050922       2.35087966        3       0.00000000       0.01940739      -0.03489885       0.15200614
Pt      10.78191229       7.80619707       2.36379847        3       0.00000000       0.11375222       0.09633431       0.19514391
Pt      13.41539800       7.81442489       2.36231851        3       0.00000000      -0.05314750       0.10228666       0.24465899
Pt      -0.02981006       1.54748590       4.67299741        2       0.00000000      -0.09573301      -0.00555952      -0.06365474
Pt       2.69722945       1.55052136       4.66509270        2       0.00000000       0.08307088      -0.00215753      -0.11396458
Pt       5.42514960       1.55882253       4.65973841        2       0.00000000       0.08945874       0.02016709      -0.05666686
Pt       8.00159337       1.56545663       4.62751537        2       0.00000000      -0.08397865       0.04473989      -0.22022250
Pt       1.34857677       3.89381896       4.69047556        2       0.00000000       0.00940322       0.04397426      -0.06406735
Pt       4.05250228       3.88237022       4.68072463        2       0.00000000       0.08024798      -0.03574178      -0.14917688
Ni       6.71486637       3.86781152       4.66795790        2       1.00000000      -0.00374519      -0.07370503      -0.04247579
Pt       9.34861887       3.86985570       4.62259876        2       0.00000000      -0.15691877      -0.06580016      -0.18352211
Pt       2.68666158       6.22525192       4.71211150        2       0.00000000       0.06320437      -0.02443807       0.00494610
Pt       5.36906631       6.18637373       4.67865590        2       0.00000000       0.00090688      -0.01539637      -0.08411000
Pt       8.03994056       6.17888144       4.64802110        2       0.00000000      -0.03254831      -0.04711670      -0.04525363
Pt      10.76306966       6.23850285       4.63816767        2       0.00000000       0.03019534       0.02251090      -0.10772505
Pt       3.98347833       8.52990366       4.67578612        2       0.00000000      -0.11116375       0.03177461      -0.03853206
Pt       6.71348305       8.53172670       4.64785774        2       0.00000000      -0.00371749      -0.01485399      -0.10084823
Pt       9.44532783       8.54778232       4.63925378        2       0.00000000       0.10078102       0.03858591      -0.05995480
Ni      12.09395513       8.55235107       4.64577649        2       1.00000000       0.02883472       0.06680916      -0.07500478
Pt      -0.03705010      -0.03380852       6.94864492        1       0.00000000      -0.07324744      -0.02817236      -0.09173713
Pt       2.67512823      -0.00175683       6.94586512        1       0.00000000       0.03359919       0.02091254      -0.10232010
Pt       5.39371193       0.01928174       6.91823137        1       0.00000000       0.09682104       0.05625883      -0.09998827
Pt       8.03579490      -0.00627570       6.91053382        1       0.00000000      -0.03990817       0.02959870      -0.12012540
Pt       1.34819643       2.34772451       6.94417771        1       0.00000000       0.03974209       0.04198071      -0.10475966
Pt       4.04011681       2.35446689       6.93391682        1       0.00000000       0.07538420       0.04150936      -0.08488020
Ni       6.70642083       2.32616609       6.93530602        1       1.00000000      -0.00069993       0.01632508      -0.31761551
Pt       9.35876301       2.32512993       6.92403595        1       0.00000000      -0.08603175      -0.02557098      -0.10928315
Ni       2.68661231       4.66279443       6.93920765        1       1.00000000       0.07982589       0.05727398      -0.40293421
Pt       5.33633465       4.65342403       6.91435733        1       0.00000000      -0.08926771       0.02093809      -0.07063848
Pt       8.01926272       4.62010036       6.90682423        1       0.00000000      -0.13068486      -0.12494246      -0.12396130
Pt      10.76692531       4.66204663       6.91517994        1       0.00000000       0.00809614       0.02944032      -0.14708289
Ni       4.01413963       6.97138761       6.93137449        1       1.00000000      -0.02499983      -0.06399618      -0.38360127
Pt       6.67385165       6.97412598       6.92557576        1       0.00000000      -0.07825651      -0.03376770      -0.06376946
Pt       9.40209971       6.98241868       6.91603655        1       0.00000000       0.02207525      -0.02942852      -0.09724799
Pt      12.13979478       6.97375179       6.89611284        1       0.00000000       0.13768872      -0.00909177      -0.07861200
