64
Lattice="10.24866909425303 0.012387365711950657 -0.005020499562988667 5.135062320519032 8.88905519146362 0.018208845044947297 -0.004099220727729379 0.019534149935765275 8.782313450076922" Properties=species:S:1:pos:R:3:tags:I:1:initial_magmoms:R:1:forces:R:3 unique_id=7e94bf40c6eb4cab9a714841c3d4b4ac stress="0.0002142943605966674 2.5538765531734234e-06 -1.4454645996979379e-05 2.5538765531734234e-06 0.00020935739581515872 -8.321139394061737e-06 -1.4454645996979379e-05 -8.321139394061737e-06 0.0002093561264428917" energy=-396.17805981930246 pbc="T T T"
Ni       0.00046013       0.02617511       0.17527547        4       1.00000000       0.01631432       0.06313481       0.26333386
Ni       2.52694936       0.01748492       0.20810005        4       1.00000000      -0.06757230       0.08208073       0.42899433
Pt       5.12021611      -0.02193042       0.13407227        4       0.00000000      -0.02861323      -0.05916986       0.32201961
Ni       7.72160509      -0.02901000       0.17799102        4       1.00000000       0.03059426      -0.08772635       0.32927492
Ni       1.24154212       2.23174189       0.11349194        4       1.00000000      -0.13096598       0.04675282       0.21751284
Pt       3.76469947       2.28583121       0.19503479        4       0.00000000      -0.08340061       0.13090146       0.16208624
Pt       6.45468116       2.23133032       0.11901967        4       0.00000000       0.10733562       0.09105135      -0.02622838
Ni       9.02153114       2.23416007       0.14943190        4       1.00000000       0.12214087       0.07971924       0.15944926
Ni       2.55742453       4.47992285       0.08126806        4       1.00000000       0.05304838       0.10992433      -0.00959194
Ni       5.09710057       4.48039236       0.19797591        4       1.00000000      -0.00379112       0.08068830       0.34649117
Pt       7.76974578       4.47293021       0.10927489        4       0.00000000       0.10097754       0.03528974      -0.10904569
Ni      10.29056890       4.44678784       0.08316096        4       1.00000000       0.13754620      -0.03906623       0.15390792
Ni       3.81250113       6.66374432       0.12674148        4       1.00000000      -0.07246553      -0.01836545       0.21072717
Pt       6.37569301       6.71769056       0.19411996        4       0.00000000      -0.08979018       0.04937196       0.03992910
Ni       8.99213143       6.65924839       0.09345263        4       1.00000000       0.01709645       0.00744182       0.11388661
Ni      11.57024578       6.64497584       0.08088955        4       1.00000000       0.08051156      -0.03075369       0.06526124
Ni       1.28852163       0.74702723       2.18626339        3       1.00000000      -0.06305735       0.00264699      -0.00645412
Ni       3.81984461       0.77187254       2.22507266        3       1.00000000       0.06417229       0.02097057      -0.01100044
Ni       6.40858916       0.79571067       2.24337051        3       1.00000000      -0.05234731       0.12501856       0.06628863
Pt       8.98593948       0.79056957       2.18962439        3       0.00000000      -0.01248781       0.07777428       0.14005103
Ni       2.55221001       2.97338075       2.23938006        3       1.00000000       0.01406968       0.03885470      -0.03080392
Ni       5.11751286       2.99393820       2.25095610        3       1.00000000      -0.10416647       0.01590561       0.02263303
Ni       7.70622047       2.99472567       2.24930912        3       1.00000000       0.10308606       0.06427625       0.00341862
Ni      10.25502670       2.97379054       2.21305753        3       1.00000000       0.04986198       0.02907399       0.10201520
Ni       3.88627934       5.19020589       2.22712005        3       1.00000000       0.10018939       0.00392576       0.09110265
Ni       6.39604814       5.19733366       2.24696777        3       1.00000000       0.00025777       0.08439252      -0.05607212
Ni       8.94386144       5.16593971       2.24290156        3       1.00000000      -0.06545162      -0.16988512       0.15142610
Pt      11.59166484       5.12945942       2.18404960        3       0.00000000       0.12471872      -0.08910590       0.08921640
Ni       5.13222846       7.38819371       2.24859008        3       1.00000000       0.03199925      -0.10608403      -0.01334661
Ni       7.65151603       7.41573991       2.23932630        3       1.00000000      -0.19140271      -0.09031479       0.00317627
Pt      10.22778229       7.35977388       2.20555257        3       0.00000000      -0.05348260      -0.06041971      -0.30081795
Ni      12.85847808       7.39361882       2.17589880        3       1.00000000       0.09874766      -0.15641568      -0.03498708
Ni      -0.01025548       1.53751843       4.34590845        2       1.00000000      -0.08747940       0.09505636      -0.08078950
Pt       2.49242453       1.55763696       4.25777548        2       0.00000000      -0.01735344      -0.04519633       0.09904784
Ni       5.13623867       1.53273421       4.31916366        2       1.00000000      -0.08475248       0.02340831      -0.17465568
Ni       7.70050191       1.52939511       4.34298321        2       1.00000000       0.06308181      -0.02617017      -0.06962245
Ni       1.28281361       3.70401586       4.39961278        2       1.00000000      -0.02284672      -0.02408326      -0.02207765
Ni       3.82584721       3.76800998       4.31349456        2       1.00000000      -0.03516439       0.06301446      -0.20697831
Pt       6.42512510       3.71972134       4.30041645        2       0.00000000      -0.07178555      -0.00363093       0.04311577
Ni       8.97757142       3.69900420       4.32984880        2       1.00000000       0.02258805      -0.11561306      -0.28442238
Ni       2.60296564       5.87758782       4.39885555        2       1.00000000       0.06771175      -0.10548806      -0.09540593
Ni       5.12096220       5.91525796       4.31315755        2       1.00000000       0.05775376      -0.14005539      -0.20926611
Ni       7.67479657       5.91114443       4.32705617        2       1.00000000      -0.05344905      -0.07426093      -0.28786813
Pt      10.24852034       5.83754598       4.43894420        2       0.00000000       0.00708071      -0.04562236       0.01381477
Pt       3.92097815       8.09812223       4.33078829        2       0.00000000       0.03874702      -0.08641958       0.17580520
Ni       6.40012170       8.14208726       4.30962958        2       1.00000000      -0.05018191      -0.02702341      -0.20444350
Pt       8.88888547       8.13814533       4.31936042        2       0.00000000      -0.06025034       0.01232308       0.10162542
Pt      11.58406378       8.17118050       4.29719493        2       0.00000000       0.05270916      -0.00880563       0.02317860
Pt       0.00492771       0.03747128       6.54481734        1       0.00000000       0.02800702       0.06370982       0.07745827
Pt       2.55195961       0.01998345       6.57646845        1       0.00000000       0.00489317       0.02513803       0.24427602
Pt       5.12983286      -0.01694048       6.45148019        1       0.00000000       0.07840566      -0.08532224      -0.41711760
Pt       7.68437747      -0.00904573       6.57159096        1       0.00000000      -0.04235545      -0.05727978       0.13065512
Ni       1.26506828       2.30880894       6.50661487        1       1.00000000      -0.04500442       0.18970752      -0.14507131
Pt       3.80565916       2.29747447       6.44546657        1       0.00000000      -0.09947474       0.07936175      -0.29047399
Ni       6.42051437       2.26062982       6.42970102        1       1.00000000      -0.01433619       0.02528167      -0.26516278
Pt       8.97838635       2.35000799       6.49279961        1       0.00000000      -0.02944391       0.08987397       0.03178475
Ni       2.50694421       4.49547310       6.49721816        1       1.00000000      -0.12766079       0.05074845      -0.24389653
Pt       5.09243856       4.48212082       6.52983683        1       0.00000000      -0.04938359       0.02407821       0.11300194
Ni       7.72480635       4.47822409       6.43061385        1       1.00000000       0.05946461       0.08835632      -0.32457700
Ni      10.28113944       4.47813173       6.53068300        1       1.00000000       0.09826897      -0.01488723       0.01544713
Ni       3.80036652       6.63867333       6.52009227        1       1.00000000      -0.09245012      -0.07765913      -0.13080410
Pt       6.44373749       6.63984693       6.42023854        1       0.00000000       0.04455721       0.03140938      -0.31072377
Ni       9.00137843       6.61591138       6.53170743        1       1.00000000       0.06152236      -0.16658159      -0.08461596
Ni      11.54950506       6.62102739       6.53461826        1       1.00000000       0.06490804      -0.08925721      -0.10509209
