64
Lattice="10.483233275568688 0.022364305996658583 0.004363861414374206 5.260984694915461 9.087397427025453 0.03122611655726814 0.0 0.0 21.685790337533504" Properties=species:S:1:pos:R:3:tags:I:1:initial_magmoms:R:1:forces:R:3 unique_id=5386dbd9b6cb43dbac0a050213a433b1 energy=-386.29009847645557 stress="0.006554369498822897 0.00011916019200210519 0.00031242730210120375 0.00011916019200210519 0.006572587938166152 -0.00010782939327254456 0.00031242730210120375 -0.00010782939327254456 -0.0008625643310077591" pbc="T T T"
Ni      -0.01957978      -0.02573143       0.03265839        0       1.00000000      -0.04490056      -0.03400909       0.24798555
Pt       2.60101755      -0.01556550       0.08651828        1       0.00000000       0.10371912      -0.15809310      -0.54888261
Pt       5.29360606      -0.04093066       0.02199199        0       0.00000000       0.20013014      -0.11465309      -0.02954020
Pt       7.92782887      -0.05412377       0.01153906        0       0.00000000       0.00138941       0.04300350       0.07967021
Pt       1.29842740       2.25242858       0.05930133        1       0.00000000       0.07465910       0.12345954      -0.60134598
Pt       3.93894939       2.28194980       0.00243692        0       0.00000000       0.06405493       0.10574121      -0.27403059
Pt       6.55943461       2.25960151       0.11770572        1       0.00000000       0.02895881      -0.17907685      -0.41013774
Pt       9.18924910       2.23363122       0.00434972        0       0.00000000      -0.02970968      -0.13352613      -0.05710701
Pt       2.63084802       4.63772746       0.00000000        0       0.00000000       0.03984045       0.09230220      -0.09014250
Pt       5.25307398       4.57563992       0.11497095        1       0.00000000       0.11132601      -0.01771012      -0.49708432
Pt       7.87872643       4.57584594       0.14322994        1       0.00000000       0.00917504       0.11627266      -0.26513473
Pt      10.50714061       4.59104813       0.00491207        0       0.00000000      -0.07416048      -0.01045031      -0.11277790
Ni       3.94678269       6.84485297       0.12405413        1       1.00000000       0.03909429       0.01457142       0.08821694
Pt       6.49547448       6.87008768       0.18596064        2       0.00000000       0.00395506      -0.04947650      -0.18824163
Pt       9.21600776       6.83288739       0.10200684        1       0.00000000      -0.04810003       0.01700943       0.18978232
Ni      11.82639321       6.84359613       0.10705307        1       1.00000000       0.03682491       0.04152229       0.06555790
Pt       1.22808813       0.68221872       2.25385482        3       0.00000000      -0.10498741      -0.06697338       0.00628018
Pt       4.00196043       0.69700706       2.29977324        3       0.00000000      -0.00207225      -0.17925901       0.10351128
Ni       6.57066909       0.76520102       2.27818549        3       1.00000000       0.09070771      -0.05368003       0.37239009
Ni       9.15968626       0.76520506       2.28146633        3       1.00000000      -0.14582619       0.04435138       0.41880759
Pt       2.66928637       3.05893073       2.30663614        3       0.00000000       0.04130780       0.08921613       0.18049319
Ni       5.26762342       3.04722063       2.28942277        3       1.00000000      -0.02633517       0.04520100       0.43855675
Pt       7.80198667       3.02890150       2.36401282        4       0.00000000      -0.11246042      -0.14024553       0.22819410
Pt      10.44915579       3.04899954       2.32492902        3       0.00000000      -0.12321475       0.05711884       0.18893495
Pt       4.00088755       5.34367211       2.28641336        3       0.00000000      -0.04264903       0.15032505       0.09402978
Ni       6.59779888       5.33161209       2.29428287        3       1.00000000       0.19771838       0.01976879       0.50571031
Ni       9.15195052       5.37401345       2.30536067        3       1.00000000      -0.16317177       0.15560641       0.47684883
Pt      11.72392320       5.39765538       2.31089361        3       0.00000000      -0.21216109       0.14928198       0.18914940
Ni       5.24932487       7.59143733       2.26207015        3       1.00000000      -0.13173096       0.05645872       0.26861101
Ni       7.89850367       7.52928815       2.30331545        3       1.00000000       0.13163625      -0.22486191       0.51213267
Ni      10.48292993       7.58591902       2.30565773        3       1.00000000      -0.07930062      -0.00456368       0.45763135
Pt      13.11868277       7.67962601       2.31153858        3       0.00000000      -0.09241121       0.11367617       0.26744961
Ni      -0.04444645       1.50495751       4.47042216        6       1.00000000      -0.19878137      -0.19705072      -0.19833068
Pt       2.63318042       1.57723278       4.45490484        6       0.00000000       0.01197305      -0.03764263      -0.16208919
Pt       5.30620196       1.51415508       4.42568884        5       0.00000000       0.12211910      -0.06911673      -0.14392453
Ni       7.89846651       1.49876898       4.45809395        6       1.00000000       0.16155149      -0.24571502      -0.23892956
Ni       1.31058023       3.82237750       4.49182651        6       1.00000000       0.00508567       0.17160572      -0.23063545
Ni       3.94034797       3.79162340       4.47594966        6       1.00000000       0.00490981      -0.00561461      -0.25249791
Ni       6.56014595       3.80401481       4.43988376        5       1.00000000      -0.05175345       0.03361169      -0.34015519
Pt       9.21305335       3.82317765       4.47617202        6       0.00000000       0.05221419       0.04775320       0.05688151
Pt       2.58879924       6.06696691       4.49071669        6       0.00000000       0.02464629       0.05680843      -0.04142064
Pt       5.30228680       6.05103696       4.40024264        5       0.00000000       0.11580830      -0.01432020      -0.12947225
Ni       7.92240762       6.09679330       4.43191506        5       1.00000000       0.20601863       0.09226190      -0.43443874
Ni      10.45719844       6.11582086       4.47839265        6       1.00000000      -0.22805303       0.14330053      -0.26002798
Ni       3.92947109       8.39891946       4.48120173        6       1.00000000      -0.06430232       0.16353092      -0.11038897
Pt       6.55676533       8.34369612       4.43353985        5       0.00000000      -0.04651035       0.01688134      -0.07794030
Ni       9.22789178       8.29235117       4.47794263        6       1.00000000       0.12205442      -0.28492113      -0.26460876
Ni      11.80703403       8.37049428       4.48413845        6       1.00000000       0.02902085       0.02162772      -0.24041096
Ni      -0.03218839       0.04946577       6.63264914        7       1.00000000      -0.06778643       0.15882384      -0.49250451
Pt       2.69621001       0.02490024       6.58176253        7       0.00000000       0.24704820       0.01178152       0.55967282
Ni       5.25249548       0.02070928       6.57098683        7       1.00000000       0.06502246      -0.02974533      -0.19941470
Ni       7.88015612       0.04760117       6.56577938        7       1.00000000       0.04948116      -0.02309638      -0.33493210
Pt       1.25779481       2.33867689       6.55977062        7       0.00000000      -0.18441280       0.05738586       0.47849128
Ni       3.93314043       2.29587238       6.58062646        7       1.00000000      -0.01964221       0.00841284      -0.06316588
Pt       6.59926775       2.22498036       6.57683144        7       0.00000000       0.20805385       0.05324396       0.36022290
Ni       9.19008363       2.27116156       6.57284548        7       1.00000000      -0.02699597      -0.18656021      -0.19468705
Ni       2.60878188       4.55157826       6.57971842        7       1.00000000      -0.10124069      -0.06814795      -0.14540953
Pt       5.19324631       4.51023506       6.57828095        7       0.00000000       0.05609689      -0.22911025       0.44296105
Pt       7.93606385       4.58065199       6.59175572        7       0.00000000      -0.10879772      -0.02751671       0.44703220
Ni      10.50686869       4.58734042       6.57779773        7       1.00000000       0.08645564       0.06609629      -0.16096232
Pt       3.91811271       6.90332580       6.68579034        8       0.00000000      -0.09359026       0.15410057      -0.03116812
Pt       6.58883060       6.85748989       6.63369604        7       0.00000000       0.09412723      -0.06356579       0.49655119
Ni       9.21096068       6.84691932       6.59304511        7       1.00000000      -0.03863201       0.03360808      -0.28699191
Pt      11.72563716       6.86791787       6.65607299        8       0.00000000      -0.17249439       0.12298124      -0.11282451
