64
Lattice="10.190128980165895 0.014020611364052263 -0.0001871851153038991 5.107206695700803 8.763513340562222 -0.0331822442330556 0.0 0.0 21.458388825187722" Properties=species:S:1:pos:R:3:tags:I:1:initial_magmoms:R:1:forces:R:3 unique_id=5420d9d2a55c4a8e959706245a6f4a75 stress="0.0020473462039498 -1.2414291326818992e-05 0.00010072715615879497 -1.2414291326818992e-05 0.0012133161541757129 0.00014139886805924364 0.00010072715615879497 0.00014139886805924364 -0.005252473090335965" energy=-369.9353700482791 pbc="T T T"
Ni       0.04624116      -0.05702547       0.14371705        1       1.00000000       0.07423881      -0.02273642      -0.41057775
Ni       2.48976916      -0.03350038       0.15684532        2       1.00000000       0.03322175      -0.00538662      -0.26257545
Pt       5.08651660      -0.05275028       0.09854030        1       0.00000000      -0.07925200       0.28554778      -1.07851628
Ni       7.66204296      -0.05639044       0.12163696        1       1.00000000      -0.09328642      -0.05064728      -0.45143543
Ni       1.27653369       2.20621502       0.06261142        1       1.00000000      -0.01871881       0.04355318       0.25058982
Pt       3.73494295       2.26059923       0.11684823        1       0.00000000       0.13000063      -0.07430578      -0.57729430
Pt       6.38593759       2.27415591       0.04058549        0       0.00000000      -0.06230532      -0.07168689      -0.18153322
Pt       8.99713114       2.26692071       0.08029410        1       0.00000000      -0.02626191       0.18470894      -0.95476601
Ni       2.52673624       4.43306984       0.03428844        0       1.00000000       0.03575423       0.04234057       0.39434132
Ni       5.09317159       4.47165017       0.03729461        0       1.00000000      -0.07766548       0.03668038       0.27077728
Ni       7.64536654       4.46509550       0.04140712        0       1.00000000       0.05486930      -0.01306262       0.19789099
Ni      10.23718955       4.43972368       0.03978783        0       1.00000000       0.01931366       0.05664114       0.36621547
Ni       3.83837517       6.55209530       0.02915583        0       1.00000000       0.03124856       0.01618074       0.32639291
Ni       6.36583470       6.56464897       0.03715006        0       1.00000000      -0.01212768       0.06979187       0.26581220
Ni       8.88254044       6.52167756       0.11774699        1       1.00000000      -0.06741141       0.01470764      -0.39479814
Ni      11.51886913       6.52175302       0.00000000        0       1.00000000       0.04994862       0.04408205       0.20766679
Ni       1.32087841       0.72750754       2.11119237        3       1.00000000       0.02752903       0.08509869       0.14812349
Ni       3.78544970       0.76996095       2.15006668        4       1.00000000      -0.03195472       0.06519271       0.18366387
Ni       6.35465116       0.75877345       2.18723516        4       1.00000000      -0.06178818       0.07202566       0.24213543
Pt       8.90230269       0.70550631       2.12079611        3       0.00000000      -0.01775825      -0.11170823       0.13255887
Ni       2.51845297       2.95181249       2.18677058        4       1.00000000      -0.00296665       0.03509366       0.09141254
Ni       5.06600259       2.94988109       2.15208053        4       1.00000000      -0.06786396       0.02681599       0.07850548
Ni       7.65092169       2.97157120       2.16050791        4       1.00000000      -0.02061854      -0.00026799       0.13833002
Ni      10.25212171       2.99450983       2.13749308        3       1.00000000       0.08731616       0.03930478       0.11816589
Ni       3.82348392       5.09898847       2.10708169        3       1.00000000       0.00568305      -0.06525701       0.05018879
Ni       6.34971284       5.11590948       2.05354637        3       1.00000000      -0.04496538      -0.07300260      -0.00452486
Ni       8.91901832       5.05557701       2.08616529        3       1.00000000       0.00991998      -0.13021500       0.04524057
Ni      11.51400663       5.06144800       2.11763476        3       1.00000000       0.10849196      -0.08005140       0.15292903
Ni       5.13622219       7.22926489       2.07098513        3       1.00000000      -0.03163541      -0.09508850       0.09839541
Ni       7.59338428       7.28730734       2.05308238        3       1.00000000      -0.03488806      -0.03415295       0.08429497
Pt      10.25322085       7.19439085       2.12784539        3       0.00000000       0.05478731      -0.22927626       0.11178598
Ni      12.76480338       7.22246756       2.06590689        3       1.00000000       0.09105950      -0.13050550       0.07421848
Pt       0.09255419       1.50364654       4.20712753        6       0.00000000       0.12706967      -0.09664539      -0.00612760
Ni       2.57130992       1.51716539       4.18405957        6       1.00000000       0.07239021       0.08583118      -0.22935886
Ni       5.09751191       1.46477027       4.17463122        6       1.00000000      -0.02784922      -0.02984257      -0.31768928
Ni       7.60600087       1.43966139       4.22552790        6       1.00000000      -0.06771481      -0.11263717      -0.21084197
Ni       1.31636009       3.68799961       4.24349995        6       1.00000000       0.05699425       0.00728347      -0.08673628
Ni       3.77619891       3.69536257       4.17378293        6       1.00000000      -0.05077475       0.08543599      -0.21678953
Pt       6.32114460       3.60332809       4.21977916        6       0.00000000      -0.01182664      -0.04139698      -0.06116464
Ni       8.95909129       3.69150939       4.18421064        6       1.00000000       0.06028684       0.05047214      -0.22794066
Ni       2.53257520       5.76453792       4.23063390        6       1.00000000      -0.03810950      -0.02392002      -0.16368077
Ni       5.06318238       5.78553463       4.23065850        6       1.00000000      -0.00830015      -0.08260697      -0.16657505
Pt       7.62396071       5.81762618       4.17050875        6       0.00000000      -0.05618762      -0.01084578      -0.05581543
Ni      10.26305578       5.77838460       4.24669082        6       1.00000000       0.00088103       0.01677821      -0.06320190
Pt       3.81916332       7.89927621       4.18412613        6       0.00000000       0.03936427       0.00054110      -0.00138342
Ni       6.36326872       8.00275783       4.16547155        6       1.00000000      -0.03620136      -0.01729250      -0.21041310
Pt       8.89723920       8.07336113       4.14147965        5       0.00000000      -0.07411313       0.03243100      -0.15824451
Ni      11.49236638       7.99107871       4.18580733        6       1.00000000       0.00283783      -0.10636934      -0.19823646
Pt       0.00537690      -0.08790471       6.45838883        9       0.00000000      -0.17195465       0.07956843       0.34915128
Pt       2.52091660      -0.00799165       6.43083922        8       0.00000000       0.18959599       0.08182890       0.28224983
Pt       5.12708120       0.00240536       6.28748066        7       0.00000000      -0.07984099       0.10690601       1.12789510
Pt       7.63691810      -0.06438393       6.41742186        8       0.00000000       0.10060116       0.17690476       0.38741566
Ni       1.28372566       2.24697131       6.36919396        8       1.00000000       0.02550777       0.04258475      -0.06042430
Pt       3.81491776       2.31519046       6.25863689        7       0.00000000      -0.00580526      -0.10988802       0.53553890
Ni       6.36485084       2.22142771       6.29056628        7       1.00000000       0.01258233      -0.03603216       0.37762883
Pt       8.90047651       2.29727952       6.27857236        7       0.00000000      -0.15247649      -0.10947675       0.98216788
Ni       2.52815173       4.41976935       6.33256721        7       1.00000000       0.04315094      -0.02321676      -0.34397070
Ni       5.10228145       4.42787582       6.36045192        8       1.00000000      -0.06731946       0.00356081      -0.21748915
Ni       7.57773436       4.37638027       6.37625670        8       1.00000000      -0.04544526      -0.03799160      -0.09129905
Ni      10.28021855       4.36850440       6.33803101        7       1.00000000       0.03176893      -0.00146758      -0.23621643
Ni       3.82168736       6.44989880       6.36009854        8       1.00000000       0.01241984      -0.02141160      -0.22479155
Ni       6.34183689       6.48815551       6.36458679        8       1.00000000      -0.01584244       0.05734216      -0.18624575
Pt       8.95354345       6.43476819       6.43168624        8       0.00000000       0.09281996       0.05212125       0.18309135
Ni      11.51468220       6.48899583       6.32592385        7       1.00000000      -0.02042368       0.05103631      -0.20411659
