64
Lattice="10.253062006829138 -0.01984300666331909 0.010738158859481848 5.109346455556668 8.882643149882565 -0.011085845857156043 0.0 0.0 21.62260345353017" Properties=species:S:1:pos:R:3:tags:I:1:initial_magmoms:R:1:forces:R:3 unique_id=b04b2cae1e184893bc77a3284ef746c4 energy=-374.08880090963504 stress="0.004194472122773988 -8.665308499173847e-05 0.00023781477789148813 -8.665308499173847e-05 0.004310281641592067 -0.0002989267458460096 0.00023781477789148813 -0.0002989267458460096 -0.002519982748395778" pbc="T T T"
Ni       0.05011509       0.04307026       0.16325586        2       1.00000000       0.19777848       0.09980204      -0.49812755
Ni       2.58186224       0.03164082       0.21630962        2       1.00000000       0.00322249      -0.00229231      -0.16218778
Ni       5.07474244      -0.01841012       0.09288708        1       1.00000000      -0.02785796       0.07670200       0.24494375
Pt       7.70291616      -0.05134835       0.01346118        0       0.00000000      -0.08142961       0.08397874      -0.51485530
Ni       1.28239416       2.23099793       0.11638917        1       1.00000000       0.04901082       0.04362729       0.46151370
Ni       3.79659315       2.21775180       0.20696617        2       1.00000000      -0.00774045       0.04289602       0.00499159
Pt       6.37632522       2.29468738       0.17534778        2       0.00000000      -0.03341387       0.08828805      -0.85819432
Ni       9.01830095       2.26175409       0.08642406        1       1.00000000      -0.02382538       0.06077200       0.21489416
Ni       2.56258621       4.41118352       0.08377049        1       1.00000000       0.03082293      -0.12302744       0.30294496
Ni       5.06191660       4.43474707       0.17351259        2       1.00000000      -0.20113564       0.02372700      -0.18631706
Ni       7.74943534       4.42593908       0.08707530        1       1.00000000       0.18558832       0.01601650       0.12680677
Ni      10.23373743       4.39704502       0.08163230        1       1.00000000      -0.01663604       0.00774753       0.26201318
Ni       3.82237684       6.60551412       0.05979465        1       1.00000000      -0.04470884      -0.14100972       0.07635989
Pt       6.44298729       6.65604710       0.00000000        0       0.00000000       0.18028056       0.06837836      -0.45600394
Ni       8.97190104       6.63365556       0.14890049        1       1.00000000      -0.05330496      -0.13760931      -0.10736824
Ni      11.49856995       6.60417475       0.12992245        1       1.00000000      -0.05350625      -0.06785372      -0.27465941
Ni       1.34001195       0.78322930       2.18029658        3       1.00000000       0.06476356       0.11686607       0.01178751
Ni       3.79686840       0.75177455       2.19999489        3       1.00000000      -0.02384431      -0.00619511       0.07842603
Pt       6.31719926       0.76406502       2.29563866        4       0.00000000      -0.08292212       0.06044584       0.17733831
Pt       9.04895925       0.82708702       2.20320876        3       0.00000000      -0.01955382       0.00150819       0.03064250
Ni       2.57820773       2.93553355       2.18409914        3       1.00000000      -0.04513765       0.00198628       0.03131391
Ni       5.03349818       2.96951043       2.24685156        3       1.00000000      -0.17902659       0.00039419       0.25956127
Ni       7.74410327       2.99027435       2.22568653        3       1.00000000       0.14691897       0.03737270       0.12269015
Ni      10.25827483       2.95284429       2.20679315        3       1.00000000       0.05337292      -0.02081843       0.04862580
Ni       3.83553969       5.10607402       2.22457110        3       1.00000000      -0.03390057      -0.10567770       0.14128337
Pt       6.44353690       5.12784187       2.20471082        3       0.00000000       0.06211448      -0.08962473       0.06421579
Ni       8.95913943       5.12271207       2.22664664        3       1.00000000       0.04986454      -0.10777882       0.09141842
Pt      11.50809426       5.06184284       2.18118934        3       0.00000000      -0.03042188      -0.08178462       0.04640770
Pt       5.14642995       7.38407243       2.18711409        3       0.00000000       0.00019172      -0.03910048      -0.04069259
Ni       7.68793348       7.41336255       2.21324211        3       1.00000000      -0.04603222       0.00787148       0.12832298
Pt      10.13150116       7.36820086       2.24277710        3       0.00000000      -0.09492055      -0.05307429       0.15936793
Pt      12.79020652       7.32213496       2.23339000        3       0.00000000      -0.02660629      -0.03278901       0.12480964
Ni       0.01611482       1.50646447       4.40567633        6       1.00000000       0.11489985      -0.04407977      -0.11688715
Pt       2.60169847       1.48592634       4.29001350        5       0.00000000       0.07781803       0.01775580      -0.01832338
Ni       5.10789161       1.44187429       4.40177293        6       1.00000000      -0.05634782       0.01288367      -0.02316232
Pt       7.75136458       1.48437307       4.40064313        6       0.00000000       0.11890401       0.06815007       0.12554670
Pt       1.24258675       3.72546267       4.44199574        6       0.00000000      -0.01085694       0.02157938       0.07952135
Ni       3.83854970       3.73030211       4.35289099        6       1.00000000      -0.00534843       0.02349232      -0.17733868
Pt       6.39906356       3.72248623       4.36479456        6       0.00000000      -0.04878634       0.06339973      -0.07211929
Ni       8.97975669       3.72167544       4.40503677        6       1.00000000      -0.01136114       0.15415316      -0.09083225
Ni       2.56518250       5.87349921       4.39618087        6       1.00000000      -0.04443293      -0.13755915      -0.14976462
Ni       5.08857897       5.88906176       4.38590449        6       1.00000000      -0.01842385      -0.09621316      -0.23754544
Ni       7.73373938       5.88602796       4.37777361        6       1.00000000       0.16689296      -0.04839257      -0.21191794
Ni      10.22270452       5.90345453       4.38367689        6       1.00000000      -0.04267876      -0.00972468      -0.18259373
Pt       3.79817941       8.05693553       4.42852994        6       0.00000000      -0.00018095      -0.05431148       0.00199238
Pt       6.45658729       8.07295074       4.35498118        6       0.00000000       0.15859037      -0.03268518      -0.08485695
Ni       9.00414538       8.11037433       4.38759656        6       1.00000000       0.03163829       0.01659464      -0.02952971
Ni      11.46191248       8.10677720       4.41770874        6       1.00000000      -0.13359579      -0.01689177      -0.09731189
Pt      -0.04498339       0.03570225       6.61097660        9       0.00000000      -0.05411128       0.13606164       0.22992452
Pt       2.58549348      -0.02704242       6.62260345        9       0.00000000      -0.00483865      -0.06598711       0.15782072
Ni       5.15517953      -0.03927533       6.52544408        8       1.00000000      -0.01495343      -0.01711766      -0.14249357
Ni       7.67176272      -0.03649836       6.46270038        8       1.00000000      -0.07975382       0.02529732       0.58029420
Ni       1.24054017       2.25461182       6.55910087        9       1.00000000      -0.01972096      -0.05031515      -0.16306935
Pt       3.80981295       2.25198773       6.58434751        9       0.00000000       0.16377353       0.18165650       0.06159756
Pt       6.45062120       2.17708056       6.53476792        8       0.00000000      -0.15898174       0.08918912       0.92992370
Ni       9.01044875       2.24818918       6.55403578        9       1.00000000       0.02927973       0.12365316      -0.16132866
Ni       2.53362349       4.44437166       6.54339048        8       1.00000000       0.02431513       0.02559325      -0.14029209
Pt       5.09860215       4.53040917       6.57675710        9       0.00000000      -0.02458326      -0.11608004       0.11926859
Ni       7.72317022       4.41031688       6.54153063        8       1.00000000      -0.00682294      -0.12014171      -0.20026525
Ni      10.23804930       4.37371751       6.55465896        9       1.00000000      -0.04551026       0.03579981      -0.16596380
Ni       3.82902711       6.64620415       6.53675050        8       1.00000000      -0.00931987       0.02787537      -0.02202258
Ni       6.39296977       6.63343822       6.43445040        7       1.00000000       0.07147923       0.00535775       0.33599394
Pt       8.95974105       6.56354421       6.52669122        8       0.00000000      -0.00642084      -0.01507992      -0.09088437
Pt      11.57723399       6.62203032       6.53041171        8       0.00000000      -0.05856595      -0.03365791      -0.15565380
