64
Lattice="10.586577239470508 0.004763550841721175 -0.027404507368783047 5.297413975776401 9.174482976866742 -0.01119272923118326 -0.02237568656862007 0.002366002344556032 9.143131023522027" Properties=species:S:1:pos:R:3:tags:I:1:initial_magmoms:R:1:forces:R:3 unique_id=6c83597796aa45d3911b5bf7cff59ff1 stress="-0.00016442160201428357 -1.4418532344783814e-06 2.238888895542887e-06 -1.4418532344783814e-06 -0.00016287275690377717 1.818427895266742e-06 2.238888895542887e-06 1.818427895266742e-06 -0.00012154695431760426" energy=-417.4263090545875 pbc="T T T"
Pt       0.03372507      -0.02936189       0.14217353        4       0.00000000       0.06152809      -0.02564400      -0.01976915
Ni       2.64602216      -0.04209463       0.12276756        4       1.00000000      -0.05186337      -0.08524269       0.20606404
Pt       5.24926428      -0.04699765       0.02006772        4       0.00000000      -0.11646919      -0.04776142      -0.09645160
Ni       7.94051764      -0.00186955       0.10238432        4       1.00000000       0.01056366      -0.03060386       0.22490092
Pt       1.33261681       2.24431211       0.12642149        4       0.00000000      -0.00014671      -0.03680489       0.02186997
Pt       3.96709429       2.25522512       0.00078810        4       0.00000000      -0.02441179      -0.00620382      -0.17425570
Pt       6.62831150       2.26418292       0.02600266        4       0.00000000      -0.05375244      -0.03074418      -0.09940561
Pt       9.23068471       2.25066279       0.13015888        4       0.00000000      -0.04807187      -0.07038176       0.08253552
Pt       2.65764976       4.60009572       0.11800466        4       0.00000000      -0.00884532       0.02897985       0.03623496
Pt       5.31498254       4.64013962       0.13678602        4       0.00000000      -0.02875270       0.08912894       0.05569014
Pt       7.92061959       4.65680690       0.13470701        4       0.00000000      -0.03872058       0.04130862       0.08331796
Pt      10.56414213       4.61626690       0.09555526        4       0.00000000      -0.02855962      -0.03463323       0.08775270
Pt       3.98553374       6.91759658       0.04314194        4       0.00000000      -0.03472339       0.07744632      -0.09717369
Ni       6.64286013       6.90174700       0.12559720        4       1.00000000      -0.00272414       0.04669258       0.22929196
Ni       9.23890243       6.90863927       0.05050541        4       1.00000000      -0.08062933       0.03552966       0.15656820
Pt      11.88049073       6.92587418       0.10185299        4       0.00000000      -0.03665336      -0.00353303       0.12062381
Ni       1.29006146       0.74541861       2.32493958        3       1.00000000      -0.06060018      -0.09601364       0.13804451
Pt       3.95316545       0.73582700       2.28277612        3       0.00000000       0.11744162       0.02140038       0.02614317
Pt       6.68984611       0.78670778       2.30274241        3       0.00000000       0.08123437       0.06604824       0.00090695
Ni       9.26835430       0.76638201       2.32284999        3       1.00000000       0.05307875      -0.05098559       0.22887071
Pt       2.63353632       3.05522664       2.34386695        3       0.00000000       0.02914236      -0.04890239      -0.04544721
Pt       5.33087408       3.10161217       2.31136955        3       0.00000000      -0.00014840      -0.02381546      -0.03194208
Ni       7.93781833       3.05097611       2.29475297        3       1.00000000       0.03507314      -0.00636706       0.04689187
Pt      10.55937269       2.96146307       2.35229929        3       0.00000000       0.05870804      -0.14313541       0.03840248
Ni       3.98362469       5.37937543       2.31358955        3       1.00000000       0.06580741       0.09779550       0.08805980
Ni       6.60305597       5.36891098       2.28580393        3       1.00000000      -0.05060420       0.08304737       0.13391056
Pt       9.22906680       5.37380172       2.29752401        3       0.00000000       0.04365594      -0.03179446       0.06715004
Pt      11.94128142       5.37228578       2.35283973        3       0.00000000       0.09161115      -0.03443363       0.09426520
Pt       5.30478629       7.67078648       2.35575033        3       0.00000000       0.03803138       0.10580007       0.08164811
Pt       7.91710563       7.65139521       2.21209541        3       0.00000000       0.03614874       0.02145355       0.04466308
Ni      10.57494613       7.65168802       2.27413036        3       1.00000000       0.01481377       0.03819542       0.06078356
Pt      13.27763824       7.66425277       2.32042855        3       0.00000000       0.10983987      -0.01001198       0.04593525
Ni      -0.03223193       1.48049614       4.52273486        2       1.00000000      -0.09369074      -0.23475650      -0.13534790
Pt       2.55353478       1.50025333       4.51050620        2       0.00000000      -0.10539364      -0.11533012      -0.07957520
Pt       5.30346464       1.52894462       4.62745833        2       0.00000000      -0.01447496       0.01547437      -0.06046016
Ni       7.96637772       1.50634556       4.50119453        2       1.00000000       0.14084071      -0.10226421      -0.18271779
Ni       1.30880186       3.82101737       4.54987008        2       1.00000000      -0.04136372      -0.03617213      -0.04019792
Pt       3.91372770       3.85618512       4.51241252        2       0.00000000      -0.02478546       0.02154261      -0.06571664
Pt       6.64222529       3.79726610       4.49867813        2       0.00000000       0.04416880       0.01318483      -0.06162755
Pt       9.28032272       3.73698128       4.47513932        2       0.00000000       0.00464331      -0.07118416       0.00200858
Ni       2.65243679       6.12917669       4.55084284        2       1.00000000       0.01511028       0.07665839      -0.02426204
Pt       5.21914228       6.18695610       4.51748513        2       0.00000000      -0.04947071       0.03269194       0.06655171
Pt       7.89700622       6.15391082       4.51258805        2       0.00000000      -0.11374365       0.06316682      -0.03481326
Pt      10.61317696       6.11499440       4.49387936        2       0.00000000      -0.03132114       0.02819961       0.00003913
Ni       3.97184758       8.44288693       4.53433897        2       1.00000000       0.01001815       0.15314868      -0.09279739
Ni       6.57659993       8.43967658       4.51714922        2       1.00000000      -0.05049480       0.03913381      -0.09880257
Pt       9.25612831       8.40236108       4.54599950        2       0.00000000       0.01584234      -0.03331126      -0.05333016
Pt      11.97937865       8.42622376       4.49311472        2       0.00000000       0.05033772       0.02000880      -0.04840468
Pt      -0.02739935      -0.03086473       6.66517692        1       0.00000000       0.02161717      -0.02434958      -0.09243739
Pt       2.70637739      -0.00454318       6.82033246        1       0.00000000       0.11391553       0.02636642       0.11446970
Ni       5.27887584       0.01137236       6.71861292        1       1.00000000       0.05424703       0.00364004      -0.20030704
Pt       7.88766991       0.01895121       6.77007631        1       0.00000000      -0.04240041       0.03517016       0.08778991
Pt       1.33059514       2.29471937       6.70338343        1       0.00000000       0.00317570      -0.00818924      -0.05866548
Ni       3.97541632       2.28334082       6.70517349        1       1.00000000      -0.01028943       0.00193154      -0.28737888
Ni       6.58059086       2.27589651       6.71427493        1       1.00000000      -0.00789805      -0.02166643      -0.19695806
Pt       9.20271792       2.27257720       6.69134543        1       0.00000000      -0.02234042      -0.03350732      -0.00389501
Pt       2.64770095       4.61549758       6.69809135        1       0.00000000      -0.01300227       0.08090842      -0.04519696
Pt       5.27046255       4.55947756       6.73435497        1       0.00000000       0.02044447      -0.05775614      -0.02404230
Pt       7.92705553       4.59862089       6.73774329        1       0.00000000       0.01799337       0.01410211      -0.00077224
Pt      10.56592852       4.61790843       6.70503735        1       0.00000000      -0.01054047       0.00832675      -0.00247738
Ni       3.94876700       6.88894459       6.70768873        1       1.00000000      -0.05678179       0.05363269      -0.25318190
Pt       6.60854903       6.89667727       6.81029025        1       0.00000000       0.02709372       0.00690273       0.12330682
Ni       9.25697883       6.90624508       6.78587645        1       1.00000000       0.03383364       0.03551840      -0.10953383
Pt      11.87825125       6.93080063       6.70851643        1       0.00000000      -0.06629201       0.07296393       0.02265345
