64
Lattice="10.24553854022832 -0.0043162001347947735 0.017554794459760426 5.119031331149608 8.814141818050919 -0.0582150142030447 0.0 0.0 21.554765190571352" Properties=species:S:1:pos:R:3:tags:I:1:initial_magmoms:R:1:forces:R:3 unique_id=641cba44ca7a4b519e4311af09161c9c energy=-372.07208863089926 stress="0.005224688119512664 1.3151269763083516e-05 0.00014434672852437896 1.3151269763083516e-05 0.0046674533043047205 -0.00045366682726304727 0.00014434672852437896 -0.00045366682726304727 -0.0021781172149819283" pbc="T T T"
Ni       0.00879817       0.01160836       0.18011971        2       1.00000000       0.12384606       0.01239925      -0.41905564
Ni       2.56610063      -0.00842711       0.20234425        2       1.00000000       0.02848721       0.01322022      -0.21989523
Ni       5.12891606      -0.04096683       0.08691405        1       1.00000000       0.00605649       0.06459834       0.23221234
Ni       7.69137297      -0.03546544       0.06886502        1       1.00000000      -0.02633307       0.05322157       0.04309232
Ni       1.24846889       2.20527193       0.17621070        2       1.00000000      -0.02865858       0.04690902      -0.02021343
Pt       3.79542603       2.20259854       0.16883366        2       0.00000000      -0.00737184       0.00717997      -0.58911772
Pt       6.45651565       2.19335957       0.18022884        2       0.00000000       0.02230975      -0.03790157      -0.58662862
Ni       9.00409473       2.22556980       0.14398475        1       1.00000000       0.02584053       0.15335245      -0.14037795
Ni       2.55483250       4.42494707       0.03723478        0       1.00000000      -0.01743388      -0.02780402       0.23051612
Ni       5.09366428       4.41654208       0.04799717        0       1.00000000      -0.08782741      -0.07692401       0.06038743
Ni       7.74071971       4.39734138       0.05332915        1       1.00000000       0.18408617      -0.01561304       0.13487137
Ni      10.23543510       4.38690918       0.05867801        1       1.00000000      -0.05636347      -0.03340030       0.27242754
Ni       3.82945860       6.58833326       0.01352991        0       1.00000000       0.07118531      -0.06898489       0.07654438
Pt       6.40234633       6.63198140       0.00000000        0       0.00000000       0.05119351       0.16016962      -0.34582191
Ni       8.97819773       6.58610873       0.10710058        1       1.00000000      -0.05377605      -0.12355500      -0.12682174
Ni      11.52259460       6.59281292       0.00420137        0       1.00000000      -0.09807649      -0.10163864       0.14762441
Ni       1.30222268       0.73671948       2.14389420        3       1.00000000       0.05781336       0.06282815       0.05253223
Ni       3.84782546       0.71769044       2.20275152        4       1.00000000       0.10365928      -0.03508633       0.14057953
Ni       6.38110641       0.73906168       2.24493978        4       1.00000000      -0.06426123       0.06438528       0.27645878
Pt       8.99122880       0.79028824       2.18763685        4       0.00000000      -0.07588848      -0.04393830       0.08561841
Ni       2.55129350       2.92633747       2.19384726        4       1.00000000      -0.02493075       0.06118246       0.04404434
Ni       5.09424513       2.90600403       2.23254347        4       1.00000000      -0.13281951      -0.06950295       0.23228413
Ni       7.73806114       2.93931323       2.20325645        4       1.00000000       0.18952569       0.08999888       0.16129322
Ni      10.24445620       2.92403210       2.19504593        4       1.00000000       0.02662249       0.00763428       0.22782163
Ni       3.84518369       5.07814346       2.13435465        3       1.00000000       0.00228528      -0.15082032      -0.05194461
Pt       6.43107551       5.10584355       2.13841678        3       0.00000000       0.00459593      -0.05255063      -0.08222756
Ni       8.96535630       5.08655068       2.17007352        4       1.00000000       0.04049196      -0.09525867       0.12245808
Pt      11.51102564       5.03989732       2.18121320        4       0.00000000      -0.03921176       0.01629477       0.03893917
Ni       5.13134733       7.33639469       2.12054582        3       1.00000000      -0.03384561      -0.06103032       0.05554733
Ni       7.68918441       7.35013475       2.13693855        3       1.00000000       0.01453040      -0.00733614       0.10452049
Pt      10.18309665       7.35738972       2.17101058        4       0.00000000      -0.01672005      -0.04827453       0.10538258
Pt      12.81817015       7.30668841       2.10175866        3       0.00000000       0.02861442      -0.02115252      -0.02116569
Ni      -0.00335680       1.49687426       4.29916230        6       1.00000000       0.03119020       0.14963830      -0.13045881
Pt       2.58832586       1.49023268       4.20352107        5       0.00000000      -0.03417163       0.02238763       0.05138344
Ni       5.15054642       1.38047820       4.27842416        6       1.00000000      -0.01185623      -0.12040812      -0.24106554
Ni       7.68200824       1.42768671       4.30407855        6       1.00000000      -0.02532426       0.05529320      -0.16065356
Ni       1.26272225       3.68811128       4.31624041        6       1.00000000      -0.06829739      -0.00510320      -0.03587415
Ni       3.81298402       3.66855423       4.28433546        6       1.00000000      -0.13870711      -0.02312024      -0.23435413
Pt       6.44962014       3.59908138       4.28772792        6       0.00000000      -0.00007462      -0.06142942       0.11428765
Ni       9.01311576       3.66758028       4.30189061        6       1.00000000       0.14748199       0.06097934      -0.15726967
Ni       2.50372034       5.80985885       4.34545271        6       1.00000000      -0.19805797      -0.01887138      -0.08175032
Pt       5.05544411       5.80360239       4.33704311        6       0.00000000      -0.09670191      -0.00219176      -0.12153983
Ni       7.75494359       5.82157227       4.29898927        6       1.00000000       0.17996288      -0.03512023      -0.24378163
Ni      10.26619651       5.82274889       4.31878874        6       1.00000000      -0.00236309      -0.01945796      -0.09488476
Pt       3.74819584       8.06616153       4.30982824        6       0.00000000      -0.10474306       0.04774115       0.12466517
Pt       6.44801202       8.02425204       4.20000800        5       0.00000000       0.01817396       0.03751561      -0.06565408
Ni       9.02121692       8.03287587       4.29001028        6       1.00000000      -0.02907130       0.05119481      -0.07604856
Ni      11.48130043       8.04334420       4.33843788        6       1.00000000      -0.12878063      -0.03145939      -0.01497621
Pt      -0.04012770      -0.11219326       6.55476519        9       0.00000000       0.02400988       0.07083938       0.38040833
Pt       2.61666678      -0.07689731       6.53327325        8       0.00000000       0.10058726      -0.03203235       0.28239868
Ni       5.17883578      -0.08976414       6.45458423        8       1.00000000      -0.03378883      -0.04214337      -0.17826538
Ni       7.63257860      -0.10323217       6.49594484        8       1.00000000      -0.04139754      -0.02900405      -0.00250689
Pt       1.28313849       2.26133712       6.48329690        8       0.00000000      -0.05736463      -0.07532514       0.13029257
Pt       3.87896126       2.24284329       6.40061240        7       0.00000000       0.12422240       0.17468565       0.60346641
Pt       6.41396302       2.11017029       6.42533399        7       0.00000000      -0.04006936      -0.03459221       0.69660523
Pt       8.95366425       2.22492158       6.45861356        8       0.00000000       0.02817486      -0.00494670       0.06497435
Ni       2.56190327       4.45263466       6.41802135        7       1.00000000       0.02281076       0.05870477      -0.29250526
Ni       5.12323334       4.41756741       6.46610723        8       1.00000000       0.00887084      -0.06975464      -0.00635581
Ni       7.67670140       4.39559552       6.44496801        7       1.00000000      -0.06657574      -0.03263732      -0.12711346
Ni      10.28264272       4.40649543       6.43197350        7       1.00000000       0.13078470       0.02370322      -0.26633925
Ni       3.78959370       6.52095972       6.44655451        7       1.00000000      -0.07529520       0.01117132      -0.09551399
Ni       6.40398907       6.50742284       6.35681501        7       1.00000000       0.13421332       0.02305006       0.34021358
Pt       9.03151036       6.49394842       6.42481080        7       0.00000000      -0.03314676       0.10841621      -0.06979077
Ni      11.56573357       6.56267837       6.41660342        7       1.00000000       0.01767858      -0.00032525      -0.33387908
