64
Lattice="10.498723587665511 0.01691249620082986 -0.001518664250638007 5.264008445184083 9.10547008581547 -0.04410839657474128 -0.0012399841682230845 -0.04086988990703904 8.988886415896074" Properties=species:S:1:pos:R:3:tags:I:1:initial_magmoms:R:1:forces:R:3 unique_id=a75a2d4b6a4c47b7bb93a9a2f83afa19 stress="-0.0011548471135696473 -8.111541410501276e-06 -3.168405417496301e-06 -8.111541410501276e-06 -0.0011546567119239265 6.334167188595722e-06 -3.168405417496301e-06 6.334167188595722e-06 -0.0009637979384073472" energy=-408.7531011870796 pbc="T T T"
Ni      -0.06737211      -0.02598074       0.18599211        4       1.00000000      -0.16149767      -0.04392203       0.06519880
Ni       2.65464243      -0.03442711       0.18037855        4       1.00000000       0.10737695      -0.06778646       0.10466677
Ni       5.27452621      -0.02986017       0.16127070        4       1.00000000       0.06914538      -0.01545080       0.06291392
Ni       7.90183446      -0.03695200       0.13323736        4       1.00000000       0.00306858      -0.08591731       0.04871447
Pt       1.28656351       2.29071328       0.12175838        4       0.00000000      -0.00985151      -0.00495199      -0.14467523
Pt       3.94616112       2.31957871       0.15397638        4       0.00000000       0.02113561       0.05130310      -0.09454047
Pt       6.59992395       2.19983601       0.13606659        4       0.00000000       0.02238293      -0.10192249      -0.10501161
Ni       9.17741835       2.24670255       0.16068940        4       1.00000000      -0.06321771      -0.11274806       0.08296930
Ni       2.63802024       4.57026331       0.13789028        4       1.00000000       0.03130884      -0.00232090       0.02492151
Ni       5.27463581       4.55743328       0.14158348        4       1.00000000       0.17958755      -0.04069812       0.06402903
Pt       7.94675059       4.57591193       0.13625161        4       0.00000000       0.05351510      -0.02208337      -0.04418662
Ni      10.51168032       4.60297963       0.04453675        4       1.00000000       0.00327687       0.09221325      -0.05096148
Ni       3.92470038       6.86627012       0.15835802        4       1.00000000      -0.01970063       0.07172773       0.06646097
Pt       6.55395067       6.87395669       0.18329393        4       0.00000000      -0.00654014      -0.00666509      -0.00768224
Ni       9.21712864       6.83987077       0.05694695        4       1.00000000      -0.00141756      -0.02097802      -0.00021686
Ni      11.84876472       6.85958857       0.11668009        4       1.00000000       0.10779534       0.05287766       0.01785631
Pt       1.27508370       0.66825849       2.19240004        3       0.00000000      -0.01863834      -0.01675368       0.03544213
Pt       4.00457865       0.76772542       2.25240482        3       0.00000000       0.02541711       0.00938872       0.03993725
Ni       6.60715325       0.73870937       2.26374865        3       1.00000000       0.04242924      -0.04666900      -0.00886392
Ni       9.12610806       0.72356581       2.19789840        3       1.00000000      -0.09052734       0.00747862      -0.01393629
Ni       2.62778088       3.04092668       2.23721065        3       1.00000000      -0.06388557      -0.00440202       0.00111840
Ni       5.28286929       3.03277844       2.26111914        3       1.00000000       0.03895101      -0.00292037      -0.02544266
Pt       7.81557116       3.02478366       2.35526548        3       0.00000000      -0.02014918       0.00047728      -0.02194220
Pt      10.42455770       3.07475501       2.21393921        3       0.00000000      -0.06075754       0.03284637      -0.00762285
Pt       3.99778254       5.32205627       2.13544247        3       0.00000000       0.02727998      -0.01097241       0.03498930
Ni       6.61228415       5.31203284       2.24756402        3       1.00000000       0.07484572      -0.00407360       0.00742740
Ni       9.16321789       5.34539371       2.28726717        3       1.00000000      -0.02578592       0.00828971       0.04933522
Pt      11.80531587       5.32695381       2.14599521        3       0.00000000       0.00751380      -0.01238512       0.01439942
Ni       5.21779305       7.58316098       2.18798632        3       1.00000000      -0.06776478       0.01882700       0.01784388
Ni       7.90308329       7.51939907       2.22200465        3       1.00000000       0.02875786      -0.06801075       0.04685413
Pt      10.50219974       7.56103159       2.13585807        3       0.00000000      -0.00807388      -0.01593572       0.04967608
Ni      13.15325997       7.64672798       2.15083157        3       1.00000000      -0.04994336       0.01451773      -0.01768155
Pt      -0.10878749       1.53077615       4.39512417        2       0.00000000      -0.09481551       0.02514071      -0.03783464
Pt       2.64225960       1.50038949       4.39255535        2       0.00000000      -0.05151816      -0.04072579      -0.04761960
Ni       5.30543434       1.51757700       4.39905811        2       1.00000000       0.04189137       0.03133671      -0.12348661
Ni       7.83981970       1.53732585       4.41719960        2       1.00000000      -0.01535717      -0.00474982      -0.06689716
Pt       1.23692343       3.83905782       4.42941995        2       0.00000000       0.00555425       0.00933449      -0.04647979
Pt       4.01562293       3.73893753       4.33722333        2       0.00000000      -0.01317066       0.02395142      -0.02640628
Ni       6.60962530       3.76500249       4.42584367        2       1.00000000       0.00806312       0.01939528      -0.00146608
Ni       9.15367487       3.83757490       4.41845749        2       1.00000000      -0.02173933       0.02054377      -0.08612839
Pt       2.60319982       6.07596620       4.38799496        2       0.00000000       0.01763142       0.01564870       0.02698634
Pt       5.35424564       6.00001733       4.34310111        2       0.00000000       0.01599361      -0.03255030       0.02350729
Ni       7.94090508       5.99968872       4.36591673        2       1.00000000       0.00461382      -0.05173458      -0.13984328
Ni      10.43856097       6.03111144       4.44869642        2       1.00000000      -0.02010862      -0.01982022      -0.06582064
Pt       3.92232279       8.35148053       4.31931124        2       0.00000000       0.02027074      -0.02174669      -0.01703560
Pt       6.59087287       8.28490562       4.34483110        2       0.00000000      -0.00667306       0.04006802       0.01484043
Pt       9.21479817       8.23400719       4.40336107        2       0.00000000      -0.01892715       0.03850679       0.04461650
Pt      11.82179452       8.41826655       4.36410915        2       0.00000000      -0.01034357      -0.01093168       0.03011991
Pt      -0.04690053      -0.02023409       6.75626566        1       0.00000000      -0.00789136       0.02093955       0.07651076
Pt       2.64918020      -0.06121057       6.75645482        1       0.00000000       0.01599683       0.03196786       0.13860196
Pt       5.27613287      -0.04367384       6.73522290        1       0.00000000       0.01730931       0.03561897       0.06842796
Ni       7.86269831      -0.01335905       6.66452616        1       1.00000000      -0.00540868       0.01481087      -0.07916112
Pt       1.28182667       2.27963120       6.61167056        1       0.00000000       0.00653868      -0.00226215      -0.01554410
Pt       3.95781900       2.24930877       6.60676621        1       0.00000000       0.03062091       0.00317410      -0.01524399
Pt       6.59521296       2.22745322       6.53415161        1       0.00000000       0.01054347       0.02720380      -0.05186438
Pt       9.17235808       2.28140825       6.69633203        1       0.00000000      -0.00586404       0.04003476       0.11951417
Pt       2.59255334       4.54289900       6.72517363        1       0.00000000       0.01232104       0.00259426       0.03685530
Pt       5.28149914       4.53757314       6.68405169        1       0.00000000      -0.00218133       0.03683243       0.05740991
Pt       7.97205284       4.58273240       6.52665803        1       0.00000000      -0.00233594       0.02823989      -0.01810984
Ni      10.47833905       4.57244641       6.62651209        1       1.00000000      -0.00734545       0.01074989      -0.10844484
Pt       3.89849842       6.84328297       6.72672454        1       0.00000000      -0.04184159       0.03317358       0.08292287
Pt       6.62281064       6.80055638       6.61056010        1       0.00000000      -0.00910625       0.03127407       0.01404367
Ni       9.21633325       6.78326016       6.61702234        1       1.00000000      -0.01657720       0.00917810      -0.08713964
Pt      11.73218768       6.78988184       6.69564862        1       0.00000000      -0.03218025      -0.01757667       0.00817858
