64
Lattice="10.440001368791899 0.00998470532125167 0.07984410018467346 5.228647692853453 9.082636093251756 0.0439397217005961 0.06519243480803708 0.0037878971183744965 9.014989664657053" Properties=species:S:1:pos:R:3:tags:I:1:initial_magmoms:R:1:forces:R:3 unique_id=70cc9876554f426db523b6e48796df36 stress="-0.0004021207652581335 -4.0563510481326506e-06 2.4470559813627395e-06 -4.0563510481326506e-06 -0.0004141752029109963 -2.6404073622879433e-06 2.4470559813627395e-06 -2.6404073622879433e-06 -0.00034143852752390597" energy=-407.75226953564805 pbc="T T T"
Pt      -0.06243796       0.04174984       0.04146841        4       0.00000000      -0.05786723       0.04502729      -0.14941010
Ni       2.64808625      -0.02407677       0.08956537        4       1.00000000       0.10112766      -0.05071623       0.10562213
Ni       5.25200593      -0.05130464       0.20214555        4       1.00000000       0.10592138      -0.08923011       0.19501122
Ni       7.80568572      -0.00027507       0.17248042        4       1.00000000      -0.06158222      -0.07530927       0.15361640
Pt       1.25824074       2.28750265      -0.00760060        4       0.00000000       0.02027109       0.06446368      -0.21052424
Pt       3.94104402       2.21118299       0.15303291        4       0.00000000       0.05244714      -0.02881947      -0.06318704
Pt       6.61846535       2.19028650       0.19375667        4       0.00000000       0.03546767      -0.06185446      -0.04780899
Ni       9.13240757       2.30261385       0.15388278        4       1.00000000      -0.00469732       0.08848792       0.11956989
Pt       2.52322165       4.60033145       0.16565910        4       0.00000000      -0.04554365       0.03709040      -0.06855369
Pt       5.30165991       4.51676059       0.20185274        4       0.00000000       0.11483097      -0.06939774      -0.01737834
Ni       7.91126806       4.54551328       0.22510465        4       1.00000000       0.10944349      -0.00128972       0.16015268
Ni      10.38655709       4.59405360       0.16593757        4       1.00000000      -0.09029479       0.12948623       0.08129118
Pt       3.85680376       6.88527170       0.20439392        4       0.00000000       0.03527930       0.01347394      -0.06449253
Pt       6.61544832       6.81328255       0.20663406        4       0.00000000       0.01361914      -0.00590832      -0.05424740
Ni       9.19180210       6.79580646       0.15297344        4       1.00000000       0.09617314      -0.04783060       0.08227081
Ni      11.72098703       6.84231383       0.24263760        4       1.00000000       0.01375430       0.02836068       0.07139683
Pt       1.27557453       0.72829100       2.26155077        3       0.00000000       0.00897906       0.01253087      -0.08015438
Pt       4.04190762       0.74278263       2.32759026        3       0.00000000       0.05893419      -0.06231385       0.12517127
Ni       6.59591939       0.75462774       2.33266780        3       1.00000000       0.08265722      -0.00955668       0.04446451
Ni       9.08910504       0.75728817       2.31764562        3       1.00000000      -0.05971510       0.06503442      -0.06564218
Pt       2.64968220       3.06279562       2.34434760        3       0.00000000      -0.01714850      -0.02098375       0.01928263
Ni       5.27403665       3.02623726       2.38686983        3       1.00000000       0.02517498      -0.01396436       0.11366550
Pt       7.80298782       3.04816711       2.40768007        3       0.00000000      -0.01078146      -0.01610144      -0.01157263
Pt      10.39412069       3.10331529       2.31224102        3       0.00000000       0.01186173      -0.01387925      -0.07913302
Pt       3.97080205       5.32546228       2.34117533        3       0.00000000       0.05166526       0.01937331       0.06129727
Ni       6.59222692       5.26988453       2.34282047        3       1.00000000       0.08585671      -0.06324386       0.04309832
Ni       9.15500082       5.29870284       2.34369102        3       1.00000000       0.01231681      -0.03905292       0.07014742
Ni      11.72780652       5.32948414       2.36166091        3       1.00000000      -0.01893668      -0.03917988       0.06733329
Ni       5.22243907       7.57903850       2.30740886        3       1.00000000       0.02171244       0.03207502      -0.03347010
Pt       7.88458310       7.47434648       2.35647541        3       0.00000000       0.04839331       0.01565825       0.10778015
Pt      10.53393485       7.49756361       2.29511312        3       0.00000000       0.00191912      -0.04959909       0.17816610
Ni      13.07108830       7.63534075       2.36742490        3       1.00000000       0.01167393       0.07813453       0.02567994
Pt      -0.07978330       1.58207589       4.55009798        2       0.00000000      -0.11739912       0.07454779      -0.17735629
Pt       2.66022013       1.53243047       4.51575858        2       0.00000000      -0.07599808       0.00388627      -0.10568617
Ni       5.29687531       1.57560013       4.48310023        2       1.00000000       0.04757757       0.10845822      -0.08454525
Ni       7.84364045       1.56004847       4.50420371        2       1.00000000      -0.05578547       0.03904787      -0.13582938
Pt       1.23356487       3.84023582       4.50310653        2       0.00000000      -0.10156571       0.02074110      -0.10237810
Ni       4.00299373       3.76066819       4.48991703        2       1.00000000       0.05105051       0.01419933      -0.06474100
Ni       6.58767606       3.76051606       4.50156751        2       1.00000000       0.00805883      -0.00422566      -0.00071514
Ni       9.11756003       3.83293684       4.54590164        2       1.00000000      -0.10983714       0.03996746      -0.09365246
Pt       2.58901959       6.06500286       4.44500844        2       0.00000000      -0.05005496       0.07258371      -0.03943065
Pt       5.34781150       5.99786800       4.45050553        2       0.00000000       0.02029740      -0.01747578      -0.06265222
Ni       7.92206893       5.98308721       4.52442590        2       1.00000000       0.05269577      -0.15016204      -0.07866531
Ni      10.41411607       6.03380207       4.57228428        2       1.00000000      -0.11719029      -0.02608714      -0.02187553
Pt       3.92849410       8.37653704       4.43432505        2       0.00000000      -0.03632633      -0.00564274      -0.13935923
Pt       6.55465006       8.33174050       4.54479802        2       0.00000000      -0.03100528       0.07987248      -0.07769893
Pt       9.18483309       8.24928231       4.61552818        2       0.00000000      -0.06580540      -0.02497988       0.09803069
Pt      11.77713092       8.42566059       4.53354513        2       0.00000000      -0.04522650       0.09546396       0.10411600
Ni       0.03970626       0.05973864       6.62155493        1       1.00000000      -0.04621838       0.06171809      -0.15495210
Ni       2.62427052       0.01742367       6.72190799        1       1.00000000      -0.11073218       0.08022923      -0.01934036
Pt       5.22638279      -0.01848660       6.80178121        1       0.00000000      -0.05732473      -0.00123790       0.21099672
Ni       7.90358048       0.03737506       6.74944690        1       1.00000000       0.03796952       0.00893701      -0.07860038
Ni       1.28953088       2.24617906       6.60951354        1       1.00000000      -0.10350933      -0.02251811      -0.19315280
Pt       3.92900170       2.23848734       6.64126352        1       0.00000000       0.04223843       0.00768303       0.07307217
Pt       6.66259244       2.22903501       6.62006636        1       0.00000000       0.02759420      -0.04456001      -0.03105936
Ni       9.21232640       2.26941257       6.77906574        1       1.00000000       0.03180953      -0.01495110       0.03806967
Pt       2.59485827       4.50419209       6.65627390        1       0.00000000       0.02234889      -0.02312623       0.01503898
Pt       5.29844183       4.52737912       6.64970847        1       0.00000000       0.03560690      -0.02125825       0.03430300
Pt       8.00030887       4.54725222       6.72504167        1       0.00000000       0.01717299      -0.03146513       0.11919503
Ni      10.46642155       4.52608680       6.76942495        1       1.00000000      -0.00172974      -0.08947203      -0.02755752
Pt       3.96087782       6.90309097       6.68383855        1       0.00000000      -0.00678510       0.03948661      -0.01458110
Pt       6.65931255       6.86914132       6.69923121        1       0.00000000       0.05076548      -0.00792216       0.07485086
Ni       9.18555495       6.80172113       6.77099260        1       1.00000000      -0.01290194      -0.07346290       0.00005281
Pt      11.71028676       6.79449146       6.82284966        1       0.00000000      -0.05270341      -0.05924069       0.05666048
