64
Lattice="10.405324161276749 -0.013199085797898313 0.060010492028585355 5.1912313370307235 8.965041916995677 0.05949036765058133 0.048998361561130854 0.027798839270840037 8.90803981706179" Properties=species:S:1:pos:R:3:tags:I:1:initial_magmoms:R:1:forces:R:3 unique_id=4f3e0c41082c4f4285984e50fcc4b7b2 stress="0.0004828139632055764 1.8463937461601201e-06 -8.599965005049131e-06 1.8463937461601201e-06 0.0004946123129137489 6.1505138692374725e-06 -8.599965005049131e-06 6.1505138692374725e-06 0.00043516541003077447" energy=-403.5077040868625 pbc="T T T"
Ni      -0.03226568       0.00376832       0.19096072        4       1.00000000      -0.15777741       0.03889394       0.38824308
Ni       2.62474077      -0.01410290       0.11954408        4       1.00000000       0.12603617      -0.01331017       0.26593749
Ni       5.20865818      -0.02232206       0.17768667        4       1.00000000       0.07751654       0.06871264       0.18625973
Ni       7.82995744      -0.04114988       0.23730062        4       1.00000000       0.11961746      -0.11895576       0.37644231
Pt       1.27074846       2.21669425       0.16239324        4       0.00000000      -0.06509371      -0.01342802       0.19732668
Pt       3.88947484       2.18206162       0.14450508        4       0.00000000       0.06932183      -0.02552814      -0.05540572
Pt       6.55756447       2.14156047       0.16326926        4       0.00000000       0.12123566      -0.14741617      -0.07729854
Ni       9.10963396       2.20298226       0.21452990        4       1.00000000       0.01200561      -0.14895865       0.21658097
Ni       2.58542413       4.51745842       0.16166681        4       1.00000000       0.09826762      -0.00732219       0.17315642
Pt       5.17590940       4.50171292       0.18803696        4       0.00000000       0.02902602       0.04731724       0.18417141
Pt       7.86902222       4.47321841       0.18783152        4       0.00000000       0.20711001       0.04409018       0.19016397
Ni      10.42107058       4.50576473       0.13750959        4       1.00000000       0.06671575       0.08222988       0.14009545
Ni       3.85550581       6.76901924       0.14268965        4       1.00000000      -0.05202319       0.13062025       0.21900818
Pt       6.50583387       6.82146191       0.26273976        4       0.00000000       0.01838564       0.07498093       0.13619958
Ni       9.12883224       6.74974770       0.14582360        4       1.00000000       0.06248602       0.07338890       0.14503222
Ni      11.71659888       6.73127915       0.14975842        4       1.00000000       0.14749347       0.11053829       0.01811009
Ni       1.32913127       0.72529428       2.24320309        3       1.00000000       0.03829254       0.06206658      -0.11707081
Ni       3.87596111       0.76720284       2.26243681        3       1.00000000      -0.15584501       0.04501756       0.06194449
Ni       6.55240753       0.76034046       2.28214967        3       1.00000000       0.13053822       0.02369006       0.12074450
Ni       9.09234150       0.71997067       2.26425175        3       1.00000000      -0.11292462      -0.05186645      -0.04097098
Ni       2.64079775       2.95143505       2.28694414        3       1.00000000       0.05115752      -0.11790990       0.03584091
Ni       5.21434216       2.96585090       2.29924968        3       1.00000000      -0.04320134      -0.01462199      -0.07697601
Ni       7.79404683       2.93132339       2.31310342        3       1.00000000      -0.00738735      -0.19169091      -0.08603202
Pt      10.34735612       2.89675663       2.35677281        3       0.00000000      -0.08109076      -0.12956433      -0.07911149
Pt       3.90753415       5.25706223       2.31450844        3       0.00000000      -0.04296324      -0.02138145      -0.08379398
Ni       6.51004766       5.23959741       2.30867431        3       1.00000000      -0.00522256       0.09502534      -0.10069598
Pt       9.05412832       5.25229181       2.37222967        3       0.00000000      -0.18676883      -0.03819003      -0.02353184
Pt      11.72695097       5.24014052       2.25582553        3       0.00000000      -0.10690402       0.01682761      -0.02568968
Ni       5.18929477       7.52321861       2.27581365        3       1.00000000      -0.10571657       0.12149970      -0.05883613
Ni       7.79438771       7.51546508       2.30961199        3       1.00000000       0.04678985       0.12697297      -0.00683140
Pt      10.40637687       7.54707611       2.23043348        3       0.00000000       0.02175705       0.04721382      -0.00642334
Ni      13.03841620       7.50696005       2.29766197        3       1.00000000       0.02270779       0.04597438      -0.06708406
Ni       0.00289178       1.51801970       4.41770910        2       1.00000000      -0.04695695       0.00432374       0.00199308
Ni       2.63381480       1.52178136       4.41528004        2       1.00000000       0.02648945       0.04386219      -0.26433704
Pt       5.18978539       1.54926747       4.40983434        2       0.00000000       0.02704031       0.00765928      -0.11704772
Ni       7.84868742       1.52186794       4.44444253        2       1.00000000       0.04359345      -0.01630939      -0.18596210
Pt       1.35694150       3.71527469       4.39879715        2       0.00000000       0.11648996      -0.07112899       0.01783198
Ni       3.89614652       3.72702332       4.44252369        2       1.00000000      -0.00973223      -0.00171299      -0.14335170
Pt       6.59007906       3.72229153       4.36865277        2       0.00000000       0.06223299       0.07047762      -0.10078295
Ni       9.12987295       3.70297821       4.47524400        2       1.00000000       0.05340704      -0.15500569      -0.04557442
Ni       2.62253246       5.98996384       4.48022057        2       1.00000000      -0.02320870       0.07646985      -0.04209038
Pt       5.20643230       5.98411977       4.43316278        2       0.00000000       0.09671291       0.03572061       0.14495572
Ni       7.81618442       5.98430894       4.46850556        2       1.00000000      -0.12904123       0.11558313      -0.10528969
Pt      10.39801432       5.94072313       4.60339981        2       0.00000000       0.01656728      -0.04494353       0.09933263
Pt       3.91210011       8.27609461       4.38590389        2       0.00000000      -0.12583141       0.09733832      -0.04426008
Pt       6.52266123       8.30794137       4.38188793        2       0.00000000      -0.04296924       0.10342238      -0.00355217
Pt       9.07386543       8.23411842       4.49416242        2       0.00000000      -0.07682087      -0.01395388      -0.04989453
Pt      11.74148804       8.22484257       4.47342580        2       0.00000000       0.04088331       0.06161446      -0.02702001
Pt       0.03944372      -0.00892620       6.66100344        1       0.00000000      -0.08677346      -0.12392366       0.21255097
Ni       2.65305732       0.01159331       6.63685009        1       1.00000000      -0.05065824      -0.03605578      -0.11391291
Pt       5.16984444      -0.00247656       6.71175027        1       0.00000000      -0.13110528       0.01447185       0.12030441
Pt       7.80103170      -0.03738729       6.72103767        1       0.00000000      -0.14039427      -0.12566697       0.23931772
Pt       1.39279910       2.22699798       6.56159469        1       0.00000000       0.09711621      -0.01742475      -0.24933143
Ni       3.92844683       2.24082696       6.56740633        1       1.00000000      -0.05599893      -0.01566359      -0.22835417
Ni       6.52148823       2.23877291       6.59287870        1       1.00000000       0.00403080      -0.09406890      -0.25747388
Pt       9.12806687       2.26884397       6.64603761        1       0.00000000      -0.01528715      -0.04939670       0.03399415
Pt       2.59316380       4.57101865       6.65299065        1       0.00000000      -0.08391514       0.07330901       0.05003722
Pt       5.20615826       4.42985774       6.59642988        1       0.00000000       0.02176510      -0.13437912      -0.30846597
Pt       7.89814694       4.52185187       6.58277933        1       0.00000000       0.08668911      -0.03141467      -0.32764983
Ni      10.43908694       4.51699390       6.70064668        1       1.00000000       0.04190038      -0.08588185      -0.04390838
Ni       3.90147814       6.73534262       6.66384655        1       1.00000000      -0.01413193      -0.00670025      -0.14439706
Pt       6.58298375       6.75756174       6.62825859        1       0.00000000       0.03475737       0.06409586      -0.11599912
Ni       9.15685469       6.73011496       6.70603079        1       1.00000000       0.05320374       0.00738976      -0.03227398
Ni      11.71443906       6.71082372       6.71712779        1       1.00000000      -0.13359653       0.03297651      -0.11889383
