64
Lattice="10.791125646702621 0.003210738204451721 0.004141604366478602 5.398343404201325 9.353583909748878 0.009157583616890183 0.0 0.0 21.989934716335533" Properties=species:S:1:pos:R:3:tags:I:1:initial_magmoms:R:1:forces:R:3 unique_id=7a4e61578d1c4523ae83c1b60a1d01e2 energy=-406.5798657752069 stress="0.002447288031917575 -5.246203898663505e-05 -2.760522740515192e-05 -5.246203898663505e-05 0.0024657955538885494 -4.864265796716611e-05 -2.760522740515192e-05 -4.864265796716611e-05 -0.002246083558411294" pbc="T T T"
Pt      -0.01494075       0.03133036       0.00149879        0       0.00000000       0.00867491       0.00888040      -0.28133303
Pt       2.69072718       0.00565568       0.00000000        0       0.00000000      -0.09360229       0.03588940      -0.29119224
Pt       5.40168320       0.00230589       0.00230968        0       0.00000000       0.05253851       0.01116051      -0.27734783
Pt       8.11030990       0.02868487       0.00818182        0       0.00000000       0.03876613       0.01173065      -0.19637324
Pt       1.30546701       2.34653580       0.02620414        0       0.00000000      -0.19275175       0.04688628      -0.12664282
Pt       4.04314263       2.34174012       0.00745879        0       0.00000000      -0.05395386       0.03077483      -0.21570859
Pt       6.77972181       2.34087505       0.00721531        0       0.00000000       0.04705639       0.00497645      -0.23216435
Ni       9.44489409       2.34240802       0.00167635        0       1.00000000       0.04313818       0.02028296       0.42759785
Pt       2.68377134       4.67863265       0.02563461        0       0.00000000      -0.17420856       0.04713447      -0.22156569
Pt       5.39887402       4.67633187       0.00512492        0       0.00000000       0.04461087      -0.00500410      -0.30232434
Pt       8.11669586       4.65090371       0.01252069        0       0.00000000       0.04377349       0.01189025      -0.20334112
Pt      10.78655253       4.64412237       0.05115755        1       0.00000000       0.12467397      -0.13312294      -0.00386334
Pt       4.04753502       7.01894995       0.00617710        0       0.00000000       0.02688174       0.06935776      -0.33715678
Pt       6.74695494       7.01644872       0.00377963        0       0.00000000      -0.00707441       0.00886352      -0.35266025
Pt       9.44630373       7.00737230       0.01248841        0       0.00000000      -0.02771130      -0.08876349      -0.24653352
Pt      12.14135196       7.00521057       0.02918684        0       0.00000000       0.00399965      -0.17925414      -0.18064910
Pt       1.33188278       0.81716592       2.29322848        2       0.00000000      -0.00775494       0.09149874       0.51910419
Pt       4.04217873       0.78579459       2.29534630        2       0.00000000      -0.05201966       0.05026389       0.53690424
Pt       6.75360415       0.78155554       2.29378676        2       0.00000000       0.04020658      -0.01844684       0.53620513
Pt       9.46023576       0.82808141       2.26727659        2       0.00000000       0.05951265       0.18014696       0.33846112
Pt       2.63551233       3.15533129       2.29545815        2       0.00000000      -0.21982913       0.11628944       0.46081401
Pt       5.39544991       3.12360567       2.29460395        2       0.00000000      -0.01812827       0.02621392       0.54691671
Pt       8.14828527       3.11803785       2.26876068        2       0.00000000       0.24163625      -0.00963987       0.31749298
Ni      10.79612844       3.13207783       2.27229666        2       1.00000000      -0.02348944       0.03056792       0.41596257
Pt       4.01091703       5.45429600       2.29982319        2       0.00000000      -0.09433798      -0.02869900       0.50917904
Pt       6.75465086       5.45219451       2.29833654        2       0.00000000       0.08368679      -0.05643396       0.56779790
Pt       9.50547460       5.42161501       2.29987740        2       0.00000000       0.19603575      -0.10089062       0.48046596
Ni      12.13517949       5.44636146       2.28396107        2       1.00000000      -0.04090856      -0.07026911       0.51553342
Pt       5.39108762       7.80305860       2.30000214        2       0.00000000      -0.05306681       0.05745599       0.55503440
Pt       8.10188204       7.79368130       2.30316984        2       0.00000000       0.03746384      -0.04821698       0.54787212
Pt      10.80966632       7.76304555       2.30420762        2       0.00000000       0.03120463      -0.10200430       0.49018138
Pt      13.47833862       7.77502244       2.30290307        2       0.00000000       0.00454190       0.00543310       0.52930219
Pt      -0.00045169       1.57777547       4.58561053        3       0.00000000      -0.04429641       0.05352254      -0.55030820
Pt       2.69487934       1.56838255       4.61140272        3       0.00000000      -0.04860517       0.03726686      -0.54319531
Pt       5.39864617       1.56454530       4.61821999        3       0.00000000       0.02526955       0.00581498      -0.54095152
Pt       8.10325026       1.56890764       4.61216925        3       0.00000000       0.06554691       0.03769905      -0.51347938
Pt       1.34136439       3.90749406       4.56568375        3       0.00000000      -0.05699959       0.02380632      -0.64801447
Pt       4.04297922       3.90176739       4.61058078        3       0.00000000      -0.04575953      -0.00568679      -0.54769945
Pt       6.75025493       3.90228967       4.61843003        3       0.00000000       0.05472818      -0.01775659      -0.55833130
Pt       9.45645352       3.89415829       4.59044585        3       0.00000000       0.00142170      -0.06525388      -0.53300096
Pt       2.68925672       6.22986242       4.59156274        3       0.00000000      -0.03767271      -0.04111417      -0.57886596
Pt       5.39578959       6.23946637       4.61378289        3       0.00000000      -0.02484919      -0.00231073      -0.55384014
Pt       8.10218828       6.23634683       4.61678260        3       0.00000000       0.05778797      -0.05372204      -0.57014252
Pt      10.80463960       6.23100890       4.59566323        3       0.00000000       0.00659462      -0.04521523      -0.56255736
Pt       4.05008726       8.57712101       4.61802972        3       0.00000000      -0.00285846       0.03949863      -0.56523874
Pt       6.74635319       8.58156581       4.61967568        3       0.00000000      -0.03026007       0.04310005      -0.54445379
Pt       9.44818013       8.57599373       4.62146679        3       0.00000000       0.01129668      -0.02286389      -0.54450969
Pt      12.14546165       8.57704548       4.62434639        3       0.00000000       0.01537343       0.00851983      -0.52469144
Pt       0.00073377       0.00825414       6.91966941        4       0.00000000       0.00652133       0.01162801       0.26579641
Pt       2.70055518       0.00548519       6.91330929        4       0.00000000      -0.01783771       0.01855490       0.32127209
Pt       5.39763389       0.00636497       6.91575859        4       0.00000000       0.01134005      -0.00866280       0.35020811
Pt       8.09700639       0.01108126       6.92151336        4       0.00000000      -0.00696370      -0.02283580       0.29937698
Pt       1.34627073       2.34259809       6.92425877        4       0.00000000      -0.00472844       0.04586578       0.18414406
Pt       4.04964369       2.34363965       6.91637276        4       0.00000000      -0.02335597       0.01964453       0.32450306
Pt       6.75149530       2.34397685       6.92315972        4       0.00000000      -0.01204251       0.00317469       0.31083645
Pt       9.44591633       2.34584177       6.98993472        5       0.00000000       0.03932092       0.02646445      -0.07595803
Pt       2.70039943       4.68259788       6.92217610        4       0.00000000      -0.06244424      -0.00803331       0.21659048
Pt       5.39928468       4.68209115       6.91824878        4       0.00000000      -0.00875914      -0.00575967       0.31955325
Pt       8.09920908       4.68046155       6.92748322        4       0.00000000       0.02657666       0.00454748       0.27648399
Pt      10.79401152       4.67974788       6.92816761        4       0.00000000       0.03953547      -0.00115633       0.11114145
Pt       4.05119271       7.02031258       6.92134349        4       0.00000000      -0.02955685      -0.00844790       0.30159892
Pt       6.74927067       7.02062155       6.91896313        4       0.00000000      -0.00451990      -0.00653840       0.30339047
Pt       9.44612222       7.02184565       6.92431533        4       0.00000000       0.03068663      -0.04145211       0.30953975
Pt      12.14419273       7.02067878       6.92468465        4       0.00000000      -0.00005578      -0.04725061       0.23483382
