64
Lattice="10.222013291071548 -0.03116740192004413 0.011726057806534263 5.084014883703055 8.791487181006833 -0.005314550099956403 0.009574286106796141 -0.010538322547236965 8.706608913039439" Properties=species:S:1:pos:R:3:tags:I:1:initial_magmoms:R:1:forces:R:3 unique_id=6dde286a8999404e90ad84358b9ea8fc stress="0.00012607646214403412 4.5054230716994845e-06 -1.7774356817010244e-05 4.5054230716994845e-06 0.0001279843942758735 -7.739570386582758e-06 -1.7774356817010244e-05 -7.739570386582758e-06 0.00013232032312521236" energy=-393.47461940293977 pbc="T T T"
Ni       0.00811674       0.00981254       0.17825757        4       1.00000000       0.05625438       0.00652687       0.20991906
Ni       2.54875947      -0.01188982       0.21620772        4       1.00000000       0.00218863      -0.02587611       0.35073158
Ni       5.11193186      -0.02737069       0.16751338        4       1.00000000      -0.00027309       0.09686187       0.19792906
Ni       7.66610629      -0.06350166       0.18445916        4       1.00000000      -0.05951879      -0.09156861       0.28367889
Ni       1.23545315       2.20795980       0.19945184        4       1.00000000      -0.09172937       0.04720600       0.33257100
Pt       3.77845621       2.20755149       0.18763493        4       0.00000000      -0.07166027       0.02537687       0.18835137
Pt       6.43656692       2.19552101       0.11424817        4       0.00000000       0.09836967       0.03256926      -0.03108888
Ni       8.97521785       2.20759715       0.16233564        4       1.00000000       0.11961490       0.14667758       0.11646293
Ni       2.53788787       4.42612769       0.07444212        4       1.00000000      -0.00304085       0.05107830       0.00211016
Ni       5.08088013       4.40895386       0.10711367        4       1.00000000      -0.03215256       0.00261907       0.20438481
Ni       7.69232800       4.38788030       0.11601975        4       1.00000000       0.13432539       0.02624704       0.19098816
Ni      10.19826342       4.36512708       0.09365657        4       1.00000000      -0.03013679      -0.00997662       0.07557988
Ni       3.78283983       6.58540039       0.10206443        4       1.00000000      -0.04152776      -0.01666375       0.15399214
Pt       6.36224578       6.57763998       0.10474157        4       0.00000000      -0.02554856      -0.02206029      -0.17002637
Ni       8.93070469       6.55709160       0.16629057        4       1.00000000      -0.05020009      -0.08508832       0.21250942
Ni      11.50135455       6.56390377       0.06915151        4       1.00000000       0.07205941      -0.05189271      -0.08021932
Ni       1.28334671       0.72312212       2.16415783        3       1.00000000      -0.04991619      -0.03475764       0.06296784
Ni       3.83173002       0.72439916       2.19407934        3       1.00000000       0.08285133       0.02271137      -0.00185724
Ni       6.38100037       0.73526040       2.23148708        3       1.00000000      -0.00736466       0.10471098       0.13953363
Pt       8.94755291       0.74871605       2.17318014        3       0.00000000      -0.03638545       0.13076352       0.01871790
Ni       2.53703562       2.94068986       2.20352039        3       1.00000000       0.02415268       0.07862040      -0.03154604
Ni       5.10435775       2.93720826       2.23199995        3       1.00000000      -0.06869991       0.00596566       0.00447368
Ni       7.67998895       2.95014482       2.20630632        3       1.00000000       0.09895335       0.09326762      -0.00126153
Ni      10.20905316       2.90971295       2.20494871        3       1.00000000      -0.00441842       0.08304178       0.16061675
Ni       3.84220856       5.11315344       2.15880921        3       1.00000000       0.03767261      -0.03602714      -0.09235637
Ni       6.39031775       5.09991669       2.17918969        3       1.00000000       0.06517447      -0.02903330      -0.08485309
Ni       8.89538155       5.07329616       2.19611547        3       1.00000000      -0.00475694      -0.02657768       0.08363872
Pt      11.51103155       5.05199007       2.19957494        3       0.00000000       0.03894449      -0.02619905      -0.03530364
Ni       5.09741420       7.30567617       2.17599002        3       1.00000000       0.00529705      -0.03769425      -0.05608804
Ni       7.61281733       7.30391817       2.19596638        3       1.00000000      -0.08611063      -0.11433656       0.07370819
Pt      10.22296960       7.30939950       2.14715642        3       0.00000000       0.05269856      -0.04040243       0.02089790
Ni      12.77491760       7.27817327       2.16398029        3       1.00000000       0.06817077      -0.11169962      -0.04530536
Ni      -0.01687628       1.50538103       4.29414302        2       1.00000000      -0.05278645       0.11618186      -0.00682661
Pt       2.51848561       1.50442520       4.20583355        2       0.00000000      -0.03653043       0.05022673       0.14337442
Ni       5.15255528       1.44141508       4.27358081        2       1.00000000      -0.01457432      -0.07823199      -0.16401837
Ni       7.65123388       1.44154077       4.30663357        2       1.00000000       0.00012215      -0.05830234      -0.07306378
Ni       1.24861581       3.70926279       4.31946807        2       1.00000000      -0.03863048      -0.00523640      -0.02687353
Ni       3.79771160       3.69554002       4.27554995        2       1.00000000      -0.10508680       0.03770000      -0.24198039
Pt       6.42222408       3.60866426       4.30111073        2       0.00000000       0.03372926      -0.05639658      -0.07017229
Ni       8.97292749       3.66862366       4.29169944        2       1.00000000       0.09712326       0.05734898      -0.19446375
Ni       2.50354316       5.82600505       4.35083325        2       1.00000000      -0.04633804      -0.02062953      -0.10842808
Pt       5.09241626       5.83026459       4.30240650        2       0.00000000       0.00001657      -0.00724597      -0.18586695
Ni       7.67031727       5.81126092       4.29389335        2       1.00000000       0.07609112      -0.09018269      -0.22882367
Ni      10.23726264       5.78397552       4.34001733        2       1.00000000      -0.00352506      -0.02266632      -0.09898788
Pt       3.77470504       8.04273880       4.25075148        2       0.00000000      -0.03478839      -0.03632561       0.12086009
Ni       6.36652719       8.03406141       4.26907722        2       1.00000000      -0.06617458       0.01282100      -0.17333564
Pt       8.91908494       7.99888410       4.25738665        2       0.00000000      -0.06366636      -0.07589285       0.10294936
Ni      11.48326701       8.01210749       4.29578736        2       1.00000000      -0.02393140      -0.06849140      -0.09619812
Pt       0.00051168      -0.07827232       6.48894963        1       0.00000000       0.02428713      -0.07670355       0.03324666
Pt       2.55182739      -0.05536274       6.51112384        1       0.00000000      -0.07351881       0.00746063       0.20242989
Pt       5.14382893      -0.03230631       6.47757174        1       0.00000000       0.08236149      -0.04885601       0.00859158
Pt       7.65746878      -0.08515580       6.50067395        1       0.00000000      -0.07985655      -0.12860247       0.12204493
Pt       1.26852337       2.30293543       6.47956913        1       0.00000000       0.03021202       0.06576633       0.20084579
Pt       3.89788009       2.29946001       6.38361948        1       0.00000000       0.06226806       0.22524950      -0.32679477
Ni       6.39376897       2.21098839       6.38459939        1       1.00000000      -0.03353148      -0.03115623      -0.22912604
Pt       8.88446475       2.26246125       6.44337807        1       0.00000000      -0.03350097       0.10878008      -0.01466734
Ni       2.55124272       4.46980566       6.42468332        1       1.00000000       0.04440070       0.09978536      -0.22755767
Ni       5.12068334       4.43060713       6.46326320        1       1.00000000       0.04400305       0.14680132      -0.06889716
Ni       7.61155939       4.37629093       6.45300104        1       1.00000000      -0.22091175      -0.00273731      -0.09514509
Ni      10.24948963       4.39717374       6.43368941        1       1.00000000       0.13927379       0.00917619      -0.21446984
Ni       3.79793003       6.50971570       6.45745182        1       1.00000000      -0.01476617      -0.10394938      -0.09448990
Ni       6.36092821       6.51191368       6.37850572        1       1.00000000       0.03930141      -0.04439072      -0.29303608
Pt       8.94281308       6.43160488       6.47910374        1       0.00000000      -0.03387535      -0.10791871       0.09428676
Ni      11.51536081       6.49211178       6.43382534        1       1.00000000       0.00951597      -0.06777207      -0.24926372
