64
Lattice="10.547138370467252 0.004476114826934416 0.030661296817965148 5.277445614384011 9.068222614877405 -0.008645821422240555 0.0 0.0 21.788707188951403" Properties=species:S:1:pos:R:3:tags:I:1:initial_magmoms:R:1:forces:R:3 unique_id=0a10131ceeb64766bcffb862bc1ed306 energy=-387.0041757128588 stress="0.006003605467905411 -0.00010575940330797017 0.00020948765947235027 -0.00010575940330797017 0.005267597821628625 -9.745731869060183e-05 0.00020948765947235027 -9.745731869060183e-05 -0.0027744821827889714" pbc="T T T"
Pt       0.01812183       0.03416249       0.00000000        0       0.00000000       0.04782227      -0.16605580      -0.06585584
Pt       2.65424281       0.05714079       0.00622016        0       0.00000000      -0.01608596      -0.04556617      -0.22119195
Pt       5.26809485      -0.04976420       0.03114189        0       0.00000000       0.02315795      -0.02536905      -0.14755368
Pt       7.90443972      -0.03425284       0.05995975        1       0.00000000       0.00724677      -0.02774652       0.01769321
Ni       1.34371139       2.30698170       0.06034161        1       1.00000000       0.00547553       0.03505084       0.31489365
Ni       3.93224780       2.28747263       0.16068335        2       1.00000000       0.00779215      -0.06658874      -0.22788296
Pt       6.60477638       2.29860192       0.14493382        1       0.00000000       0.11248931      -0.03115483      -0.52468796
Pt       9.26237660       2.33346268       0.05379939        1       0.00000000      -0.02901762       0.09687785       0.15115452
Ni       2.61749982       4.52151285       0.15871103        2       1.00000000      -0.03609174       0.10425738      -0.05610186
Pt       5.21534409       4.50638738       0.05025009        1       0.00000000      -0.17629410       0.14458549      -0.05333398
Ni       7.94907147       4.54571798       0.16823842        2       1.00000000       0.13440677      -0.04496878       0.00831701
Pt      10.59730955       4.60549672       0.10212795        1       0.00000000       0.06884987       0.09925169       0.34582095
Pt       3.87280138       6.73920794       0.15768138        2       0.00000000      -0.03455993      -0.10660851      -0.57999617
Pt       6.65266513       6.76292685       0.11140814        1       0.00000000      -0.08644642       0.07976592      -0.85367602
Ni       9.25266436       6.77625369       0.17759451        2       1.00000000      -0.02194366      -0.00386643      -0.21546892
Ni      11.86941440       6.77476013       0.17608945        2       1.00000000       0.10334056      -0.00566275      -0.13466103
Pt       1.29157565       0.77578586       2.33373642        4       0.00000000      -0.08157297       0.12489546       0.07692636
Pt       3.96835774       0.76934479       2.29856193        4       0.00000000       0.05491118       0.04657300       0.23942293
Pt       6.65158910       0.71590903       2.38093329        5       0.00000000       0.01799121      -0.07727335       0.21586915
Pt       9.20973194       0.77740266       2.44362092        5       0.00000000       0.02629265       0.09223543       0.24343043
Pt       2.60224194       3.11081125       2.22873850        3       0.00000000      -0.07332507      -0.01068087       0.13612942
Pt       5.29000849       3.04931657       2.32994912        4       0.00000000      -0.08506088      -0.02685749       0.31756557
Ni       7.94320236       3.03697449       2.34339376        4       1.00000000       0.05000102      -0.04911951       0.32535492
Pt      10.50689810       3.11182046       2.41337582        5       0.00000000      -0.04294592       0.06293426       0.22817200
Ni       3.92377100       5.29662301       2.28020856        4       1.00000000       0.01889437       0.00651575       0.25494864
Pt       6.65713200       5.21235590       2.29189182        4       0.00000000       0.04696487      -0.09422570       0.11833785
Ni       9.24493915       5.26094563       2.27921251        4       1.00000000      -0.02542705      -0.00879129       0.14684038
Ni      11.90025704       5.30211899       2.28414752        4       1.00000000       0.06811898       0.04491801       0.13008557
Pt       5.22124774       7.53768327       2.34498627        4       0.00000000      -0.04895546       0.05216416       0.22302422
Pt       7.95153527       7.52620717       2.31047575        4       0.00000000       0.04804349       0.01882685       0.25483561
Pt      10.62731917       7.45568213       2.28274262        4       0.00000000       0.03230307      -0.06310794       0.17762021
Ni      13.18010718       7.52177523       2.32708177        4       1.00000000       0.02980634       0.02880603       0.20648614
Ni      -0.03622146       1.51165068       4.56544949        8       1.00000000      -0.09322194       0.05712194      -0.03005647
Pt       2.52268540       1.51784300       4.57603605        8       0.00000000      -0.10019531       0.08306066      -0.06629692
Pt       5.35418038       1.48434828       4.53709293        7       0.00000000      -0.08176189      -0.03028807      -0.20812968
Ni       7.98558568       1.50811821       4.55519678        8       1.00000000       0.14077812       0.03283416      -0.15660790
Ni       1.28138894       3.73867545       4.52638574        7       1.00000000      -0.07672258      -0.07244067      -0.03011116
Pt       3.95660284       3.77373971       4.52062896        7       0.00000000      -0.06488930      -0.02444431      -0.13828192
Ni       6.66246002       3.73460767       4.51464209        7       1.00000000       0.10495969      -0.07592211      -0.33181903
Ni       9.24493121       3.69652898       4.53872739        7       1.00000000      -0.07420776      -0.19486906      -0.07899100
Pt       2.63089192       6.08703386       4.38218848        6       0.00000000      -0.01950770       0.06684923      -0.24412869
Pt       5.29127100       6.04510155       4.49314620        7       0.00000000       0.02969849      -0.10420576      -0.22964653
Pt       7.95183957       5.95698617       4.47673956        7       0.00000000       0.04379257      -0.12852675      -0.17825600
Pt      10.57784599       5.93886351       4.48846957        7       0.00000000       0.01490975      -0.13479664      -0.16848799
Ni       3.96108183       8.37015328       4.52898746        7       1.00000000      -0.02037994       0.12685495      -0.15200131
Ni       6.55483275       8.33826989       4.52869656        7       1.00000000      -0.16847997       0.01524002      -0.27511633
Pt       9.25074929       8.29966339       4.55886164        8       0.00000000       0.01055370      -0.10967873      -0.14157760
Ni      11.93098047       8.31553509       4.53894464        7       1.00000000       0.11633190       0.01311850      -0.15740214
Ni       0.01051829       0.04987175       6.57188593        9       1.00000000      -0.02278440       0.05598515      -0.18303617
Ni       2.60877768       0.00635182       6.62502487        9       1.00000000      -0.17455383      -0.04216484       0.20514254
Ni       5.30150775      -0.00792101       6.63901490        9       1.00000000       0.07919209      -0.04921282       0.26831164
Ni       7.95304047       0.01298622       6.60575058        9       1.00000000       0.09993082       0.04167722      -0.19409397
Ni       1.27145741       2.23186833       6.69450728       10       1.00000000      -0.15606410       0.01651503      -0.40063185
Pt       3.94644605       2.19502756       6.77854023       11       0.00000000       0.01594833      -0.08436008       0.18519188
Pt       6.67843872       2.20828908       6.64033494        9       0.00000000       0.24684230      -0.02019643       0.64387703
Ni       9.29198277       2.22367956       6.60424960        9       1.00000000       0.03183301      -0.03448293      -0.23242876
Pt       2.58499802       4.48280804       6.73481721       10       0.00000000      -0.17177898       0.05033194      -0.07588142
Ni       5.29696868       4.51554025       6.63137870        9       1.00000000       0.05673387      -0.04169500       0.02144089
Pt       7.97913473       4.46493484       6.71402955       10       0.00000000       0.10952652      -0.10279513       0.00552406
Ni      10.56373929       4.46526149       6.65139289       10       1.00000000      -0.04099780      -0.12050841      -0.12667890
Pt       3.96550750       6.85672975       6.64126868        9       0.00000000      -0.09680599       0.25121293       0.42666785
Pt       6.60799200       6.86185635       6.63684708        9       0.00000000       0.10812778       0.23858502       0.78154498
Pt       9.25967927       6.80843458       6.78870719       11       0.00000000      -0.05393567       0.01476896       0.25764048
Pt      11.87464443       6.85547193       6.74647003       10       0.00000000       0.06094663       0.12241767      -0.04819796
