64
Lattice="10.191857396827553 -0.027745183812034238 0.024552232230431337 5.071900664399884 8.800969081749992 0.046673922821433816 0.020046813670290823 0.0324305631732148 8.720518904675952" Properties=species:S:1:pos:R:3:tags:I:1:initial_magmoms:R:1:forces:R:3 unique_id=e73ed858487d4dbfa9be6da316b235e3 stress="-0.005617795667547533 1.7381481269443794e-05 -3.3602771850032234e-05 1.7381481269443794e-05 -0.005645404449532758 -1.7163602452774565e-05 -3.3602771850032234e-05 -1.7163602452774565e-05 -0.005002000229266314" energy=-392.19065847165615 pbc="T T T"
Ni       0.04667221       0.03307773       0.15308322        4       1.00000000       0.17366370       0.12280301       0.04347590
Ni       2.53446149      -0.03636713       0.22843195        4       1.00000000       0.01919871      -0.03820736       0.18716194
Ni       5.08073186      -0.05250913       0.07782296        4       1.00000000      -0.07021467      -0.02316226      -0.00961180
Ni       7.65993341      -0.04683451       0.06285258        4       1.00000000       0.07421187       0.00254595      -0.02531141
Ni       1.22562124       2.22758153       0.12747382        4       1.00000000      -0.02115018       0.12342229       0.06207149
Pt       3.75363649       2.21264259       0.23634879        4       0.00000000      -0.01131463       0.01332128      -0.02816543
Pt       6.43194514       2.25741393       0.04063965        4       0.00000000       0.05735141       0.17659615      -0.12999660
Ni       8.97151120       2.23887749       0.09362566        4       1.00000000       0.11853344       0.16212323       0.00408479
Ni       2.50059637       4.43793889       0.12966245        4       1.00000000      -0.06405057       0.05212290       0.05061593
Ni       5.06684080       4.44818005       0.10390679        4       1.00000000      -0.05595612       0.06069161       0.01705236
Ni       7.70260929       4.42477921       0.10673065        4       1.00000000       0.21900991       0.07633332      -0.00506923
Ni      10.19096414       4.38061245       0.14623876        4       1.00000000       0.04123848       0.07559126       0.04927513
Ni       3.80751379       6.56839006       0.07127373        4       1.00000000       0.02189885      -0.04504008      -0.07930573
Ni       6.38556196       6.59446348       0.07953510        4       1.00000000       0.09077700       0.02626686      -0.12573431
Ni       8.87366072       6.56521822       0.20184280        4       1.00000000      -0.06484804      -0.03435821       0.12806820
Ni      11.43529881       6.54855462       0.09257295        4       1.00000000      -0.09922366      -0.04554948      -0.11710074
Ni       1.32187331       0.79062922       2.14871925        3       1.00000000       0.02729936       0.09272924       0.06658147
Ni       3.77476205       0.70125285       2.20746064        3       1.00000000      -0.00136957      -0.09734097       0.12171016
Pt       6.34004429       0.74481285       2.16974271        3       0.00000000       0.00840336       0.00592873      -0.07265748
Pt       8.99185076       0.81631002       2.16340558        3       0.00000000       0.03458332      -0.01440654       0.00979188
Ni       2.50045723       2.99444718       2.21311289        3       1.00000000      -0.08781003       0.09769570       0.06570620
Ni       5.05108269       2.96833873       2.24830583        3       1.00000000      -0.02070211      -0.00568908       0.09037108
Ni       7.70134755       2.96881153       2.21691468        3       1.00000000       0.07864747       0.00103560       0.01355976
Ni      10.21458788       2.97843415       2.20189711        3       1.00000000       0.02323513       0.02780790       0.03306504
Ni       3.79009349       5.06511389       2.21511776        3       1.00000000       0.00116640      -0.05895946      -0.00114699
Pt       6.41273317       5.09753501       2.17021752        3       0.00000000       0.05109295      -0.03603621      -0.06817312
Ni       8.93608043       5.06407125       2.23253819        3       1.00000000       0.07056404      -0.09580942       0.05580178
Ni      11.43632711       5.05854599       2.19876776        3       1.00000000      -0.05278390      -0.00322422      -0.05329242
Pt       5.12110627       7.31010370       2.15090282        3       0.00000000      -0.00397895      -0.03877132      -0.00472133
Ni       7.64067013       7.33416096       2.21917357        3       1.00000000      -0.02631087      -0.07075045       0.09574322
Pt      10.09436887       7.25150623       2.25494169        3       0.00000000       0.00922362      -0.01347830       0.02114836
Pt      12.70145238       7.20792840       2.20086768        3       0.00000000      -0.01156930      -0.04484007      -0.06435832
Ni       0.01119399       1.52161986       4.35502549        2       1.00000000       0.03031099      -0.00932918       0.00306611
Pt       2.51404340       1.50648221       4.26390160        2       0.00000000      -0.03644681      -0.01787000       0.06235184
Pt       5.08750004       1.42395817       4.35734537        2       0.00000000       0.03048577      -0.05565228      -0.04099227
Pt       7.71901189       1.50057080       4.42600267        2       0.00000000       0.01670228       0.00076578      -0.07429334
Pt       1.23058466       3.76081735       4.35170043        2       0.00000000      -0.03327399      -0.01425271      -0.00660001
Ni       3.80792299       3.76349179       4.32688192        2       1.00000000      -0.06122863       0.05165232      -0.07168906
Pt       6.36841514       3.75125929       4.41578473        2       0.00000000      -0.01983719       0.02991417      -0.04542625
Ni       8.93342796       3.72225030       4.37959190        2       1.00000000      -0.01409467       0.07440183      -0.02806949
Ni       2.52656439       5.85512305       4.40216346        2       1.00000000      -0.04942049      -0.01571049      -0.07940889
Ni       5.04669252       5.84303521       4.40794200        2       1.00000000      -0.06614513      -0.01755546      -0.09799049
Ni       7.70307993       5.85460685       4.36753959        2       1.00000000       0.13098405      -0.01798703      -0.08628435
Ni      10.18189227       5.86983067       4.38391621        2       1.00000000       0.00120885      -0.01277140      -0.00355076
Pt       3.75636172       8.00144257       4.42400655        2       0.00000000      -0.02339523      -0.01442680      -0.04288969
Pt       6.39846925       7.99099114       4.36409235        2       0.00000000       0.00305289      -0.03471648       0.06893309
Ni       8.93333531       8.01848202       4.38613839        2       1.00000000      -0.01591919      -0.05729692       0.06090731
Ni      11.41792564       7.99226715       4.44830825        2       1.00000000      -0.03937627      -0.06274731      -0.06731489
Pt      -0.06353032       0.04562315       6.54247253        1       0.00000000      -0.11366185      -0.01721137       0.10534249
Pt       2.59086361       0.00015693       6.55814051        1       0.00000000       0.01410729      -0.01194908       0.20984977
Ni       5.17126881      -0.02528564       6.47283019        1       1.00000000       0.01391636      -0.08922780      -0.03585273
Ni       7.58942068      -0.03041920       6.49960993        1       1.00000000      -0.12460335      -0.08664806      -0.04420779
Ni       1.23664491       2.27301047       6.48995376        1       1.00000000      -0.04373354       0.00866379       0.01389080
Pt       3.83931107       2.33401659       6.46175946        1       0.00000000      -0.04593103       0.14220142       0.15175021
Ni       6.40756336       2.21069333       6.41694549        1       1.00000000      -0.01609262      -0.03405851      -0.06361339
Ni       8.92767101       2.26328022       6.50649677        1       1.00000000       0.00129807       0.09783392      -0.03858984
Ni       2.53097312       4.48777697       6.48677230        1       1.00000000      -0.07143217       0.07201030       0.00456520
Ni       5.09574453       4.48905979       6.49778968        1       1.00000000      -0.03632536       0.09313570      -0.00866332
Ni       7.64447206       4.38329737       6.51094052        1       1.00000000      -0.01649862      -0.07207574      -0.00664564
Ni      10.20481116       4.37097986       6.51742661        1       1.00000000       0.02509805      -0.05265526       0.04725627
Ni       3.78967895       6.55549734       6.50199886        1       1.00000000      -0.03955226      -0.07468477      -0.06775130
Ni       6.33475916       6.54057582       6.49540848        1       1.00000000       0.00728552      -0.08413738      -0.13900835
Pt       8.96391435       6.51915329       6.51907161        1       0.00000000       0.02403599      -0.09012547       0.12886881
Ni      11.50253557       6.59191727       6.48649198        1       1.00000000       0.03966594      -0.07888134      -0.13857983
