64
Lattice="10.472845519129288 -0.007030351183037417 0.03296662172913607 5.230334296842606 9.086130045197105 -0.016366020494865362 0.0 0.0 21.67991653443714" Properties=species:S:1:pos:R:3:tags:I:1:initial_magmoms:R:1:forces:R:3 unique_id=bd902723dcae49d69e8a24be74191194 stress="0.004116435924516824 -0.0002479751799183303 0.0003487232121366018 -0.0002479751799183303 0.004024540151718317 -0.0002739247848550122 0.0003487232121366018 -0.0002739247848550122 -0.00352445563413757" energy=-384.89762350893847 pbc="T T T"
Ni      -0.05172320      -0.02611224       0.08818373        1       1.00000000      -0.22358472      -0.06491558      -0.07442727
Ni       2.64115904      -0.03506991       0.00023510        0       1.00000000       0.09481225      -0.01730745       0.30198617
Ni       5.25900922      -0.04574971       0.08308882        1       1.00000000       0.15589304       0.03964527      -0.14392650
Ni       7.88109879      -0.04580482       0.06419385        1       1.00000000       0.00197426      -0.09662623       0.61864941
Pt       1.26127453       2.26366892       0.02431635        0       0.00000000      -0.01842373      -0.02106685      -1.19533866
Pt       3.95335079       2.26950331       0.04629959        0       0.00000000       0.18676387       0.06299939      -1.07966053
Pt       6.58578565       2.18944339       0.08182150        1       0.00000000      -0.07301846      -0.16303663      -0.22045034
Ni       9.15187443       2.23220746       0.09619334        1       1.00000000      -0.01007537      -0.16259485       0.01487986
Ni       2.62226613       4.57660917       0.05641945        1       1.00000000       0.01366506       0.01136607      -0.30517959
Ni       5.24171829       4.54497240       0.07447323        1       1.00000000       0.18230671      -0.06985120      -0.05385900
Pt       7.91392434       4.56178522       0.08604191        1       0.00000000      -0.00550881       0.06624178      -0.09920385
Ni      10.47814673       4.57088678       0.00000000        0       1.00000000       0.01580621       0.09480501       0.28741649
Ni       3.90226096       6.85098525       0.08133138        1       1.00000000      -0.05900419       0.18338701       0.03736068
Pt       6.52984306       6.85803469       0.12548027        1       0.00000000      -0.06480757      -0.01944418      -0.30119716
Ni       9.18186433       6.82177794       0.00716590        0       1.00000000      -0.01006534      -0.03599356       0.44215500
Ni      11.79730035       6.82842052       0.07549794        1       1.00000000       0.17897354       0.11566845      -0.04413000
Pt       1.27491136       0.64239321       2.12031532        2       0.00000000       0.00794550      -0.16916736       0.13720075
Pt       3.99937369       0.72687258       2.18708170        3       0.00000000       0.04461770      -0.09742340       0.19606893
Ni       6.59334720       0.72709608       2.21083759        3       1.00000000       0.11294463      -0.07617148       0.17057649
Ni       9.11378713       0.70531408       2.15965119        3       1.00000000      -0.15162669      -0.02349213      -0.01436473
Pt       2.63531459       3.04710861       2.17652854        3       0.00000000      -0.05075468       0.08232778       0.38823066
Ni       5.27771431       3.02411956       2.20740055        3       1.00000000       0.06260089       0.04559282       0.29915628
Pt       7.79482427       3.00692395       2.30861423        4       0.00000000      -0.05867388      -0.02556881       0.24712570
Pt      10.38066181       3.04710940       2.17657614        3       0.00000000      -0.24043656       0.14701323       0.12399702
Pt       4.00384653       5.35835039       2.08208037        2       0.00000000       0.07632855       0.05589569       0.08384164
Ni       6.58702910       5.29719985       2.19842078        3       1.00000000       0.12239595      -0.03683541       0.29449931
Ni       9.13396072       5.32103536       2.23699747        3       1.00000000      -0.10619740       0.08546745       0.25057734
Pt      11.75153882       5.33335449       2.11883856        2       0.00000000      -0.01062911      -0.03406965       0.10803531
Ni       5.20720797       7.57113822       2.13945128        2       1.00000000      -0.12074723       0.04193203       0.17687180
Ni       7.86791092       7.50629318       2.18148870        3       1.00000000       0.10274188      -0.15262106       0.18204222
Pt      10.46240094       7.54111508       2.10609708        2       0.00000000      -0.06333694      -0.00268066       0.07448037
Ni      13.11138442       7.61640325       2.13571180        2       1.00000000      -0.00353380       0.13172025      -0.01827222
Pt      -0.09168901       1.53254551       4.32788763        5       0.00000000      -0.16067799       0.03114734      -0.27230376
Pt       2.65541460       1.46233000       4.37791558        6       0.00000000      -0.04552917      -0.09603104      -0.24043245
Ni       5.30161122       1.50386648       4.35790985        6       1.00000000       0.08425790       0.03395078      -0.40525047
Ni       7.83325530       1.52288296       4.37971809        6       1.00000000      -0.05890095       0.04457522      -0.22818712
Pt       1.22292884       3.83910757       4.39762034        6       0.00000000      -0.09454671       0.09146309      -0.13518689
Pt       4.02867395       3.73869485       4.33603234        5       0.00000000       0.05113228       0.05248318      -0.20086413
Ni       6.60139154       3.75226124       4.38162997        6       1.00000000       0.05848927       0.00868165      -0.24376138
Ni       9.13122768       3.81234035       4.38848771        6       1.00000000      -0.08752275       0.05627160      -0.29226108
Pt       2.59507957       6.06789908       4.33691934        5       0.00000000       0.03217570      -0.00342912      -0.15499582
Pt       5.34367343       6.00177650       4.31095882        5       0.00000000       0.07397740      -0.08788634      -0.18751280
Ni       7.91703341       5.98758627       4.34278393        5       1.00000000       0.11490089      -0.13378885      -0.37370729
Ni      10.41581228       6.01611194       4.42426303        6       1.00000000      -0.08672208      -0.01981703      -0.11599512
Pt       3.90791173       8.34304499       4.28430990        5       0.00000000       0.02496209       0.00107972      -0.17719958
Pt       6.57275054       8.27404668       4.32960960        5       0.00000000      -0.06264356       0.09528200      -0.19573097
Pt       9.18006097       8.21176154       4.40519201        6       0.00000000       0.02552024      -0.10867772      -0.07309917
Pt      11.78192238       8.38605835       4.34993319        5       0.00000000      -0.07764817       0.07614865      -0.10868089
Pt       0.01311877      -0.01710840       6.67974682        9       0.00000000       0.09510039       0.03842457       0.06731608
Ni       2.64989200      -0.04416805       6.62444124        8       1.00000000      -0.03313757       0.05978489      -0.14020508
Pt       5.21636029      -0.06569489       6.67991653        9       0.00000000      -0.01374548       0.12399730       0.02697920
Ni       7.86126455      -0.02575265       6.62957354        8       1.00000000      -0.03480789      -0.05485803      -0.30590164
Pt       1.30819013       2.24769314       6.55038383        8       0.00000000      -0.03913245      -0.05616553       0.98465775
Pt       3.94718017       2.20756002       6.55044237        8       0.00000000       0.17507009      -0.01995928       0.96161436
Pt       6.58292940       2.20500146       6.49691204        7       0.00000000      -0.09722113       0.06528573       0.34853616
Pt       9.16831578       2.25791171       6.65327771        9       0.00000000      -0.05944245       0.11781354       0.00188297
Pt       2.59279317       4.53171515       6.66765842        9       0.00000000       0.07268551      -0.05774884       0.28156480
Pt       5.28223360       4.52922983       6.63724048        8       0.00000000       0.19187177       0.00631050       0.24134932
Pt       7.95624632       4.56797918       6.49370898        7       0.00000000      -0.12523241      -0.02500607       0.21770594
Ni      10.46377001       4.54464141       6.60930222        8       1.00000000      -0.00593828       0.00616650      -0.18061730
Pt       3.90848643       6.83449877       6.66782791        9       0.00000000       0.07703128      -0.02887289       0.03272397
Pt       6.65589631       6.83033985       6.57486535        8       0.00000000      -0.01697394      -0.08745077       0.36278828
Ni       9.18561843       6.78362472       6.59735654        8       1.00000000       0.05847083       0.00051276      -0.22755025
Pt      11.70994296       6.77244612       6.67067413        9       0.00000000      -0.12516824      -0.02488326      -0.15281725
