64
Lattice="10.503029892141544 0.013294048131833963 0.018985000240256913 5.263027929472072 9.100850047234728 -0.01717255352070414 0.0 0.0 21.7547281795096" Properties=species:S:1:pos:R:3:tags:I:1:initial_magmoms:R:1:forces:R:3 unique_id=e197a341c0bd4e279e968fad770d90a8 energy=-385.40462074457537 stress="0.0057771528076244975 0.0001267883411439399 6.918521809736347e-06 0.0001267883411439399 0.005491722269396692 -6.898444916171764e-05 6.918521809736347e-06 -6.898444916171764e-05 -0.0008638583217891946" pbc="T T T"
Pt      -0.01378845       0.03889575       0.03048254        0       0.00000000      -0.12922925      -0.02465883      -0.13007339
Pt       2.67707214      -0.00591230       0.10469452        1       0.00000000       0.05138542      -0.07800132      -0.80550441
Ni       5.26613083      -0.00173932       0.06932159        1       1.00000000      -0.09130872      -0.02734511       0.23993134
Pt       7.77914687       0.03891452       0.06110245        1       0.00000000       0.07196781       0.06043293       0.07654890
Ni       1.31469535       2.31507191       0.05060692        1       1.00000000       0.05124656       0.06549663       0.29381935
Pt       3.94978572       2.27346693       0.00000000        0       0.00000000      -0.04236514      -0.01036914      -0.21066382
Ni       6.56406019       2.26814649       0.07150847        1       1.00000000      -0.05075595       0.01269051       0.33096467
Pt       9.20044953       2.36116276       0.01076236        0       0.00000000      -0.01008932      -0.01082016      -0.08746759
Ni       2.59045591       4.54207458       0.11800950        1       1.00000000      -0.03570053      -0.01355747       0.08472672
Pt       5.27088367       4.51025157       0.10545377        1       0.00000000      -0.10669057       0.07969064      -0.50705030
Ni       7.91786832       4.55389079       0.15190878        2       1.00000000       0.15223811       0.09541133       0.01521908
Ni      10.51508207       4.58278964       0.07945120        1       1.00000000      -0.02217039       0.13095103       0.52293642
Pt       3.86686505       6.77149594       0.01899983        0       0.00000000      -0.10093554      -0.13242442      -0.15854801
Pt       6.62840021       6.79046614       0.07815710        1       0.00000000       0.02596042      -0.02920926      -0.86110811
Ni       9.24692027       6.79145004       0.14352063        1       1.00000000       0.05827220      -0.19355396      -0.03990490
Ni      11.79152504       6.81515594       0.13087942        1       1.00000000      -0.03795766      -0.10604920      -0.05472643
Pt       1.26689106       0.77326164       2.34062574        4       0.00000000      -0.06758266       0.05222485       0.16325361
Pt       4.00821588       0.76239983       2.29656260        4       0.00000000       0.02783968       0.06276842       0.19848612
Ni       6.58777929       0.76169770       2.27953962        4       1.00000000       0.08684027      -0.01014874       0.16922299
Ni       9.16681914       0.77104295       2.30734481        4       1.00000000      -0.04282058      -0.01976069       0.14539628
Pt       2.64412745       3.08134456       2.29012088        4       0.00000000       0.04061044      -0.02231434       0.05624026
Pt       5.27377397       3.03033040       2.34919686        4       0.00000000       0.04106039      -0.01414608       0.22150715
Pt       7.88794699       2.98970393       2.27702675        4       0.00000000       0.08004059      -0.19219645       0.05663167
Pt      10.49655528       3.06086290       2.29538686        4       0.00000000      -0.01745573       0.03887085       0.04733398
Ni       3.92930214       5.30349115       2.29200646        4       1.00000000      -0.02902390       0.05373881       0.22991291
Pt       6.60101837       5.26955435       2.30245384        4       0.00000000       0.06853586      -0.03353341       0.11011356
Ni       9.22128343       5.30161197       2.24874304        3       1.00000000       0.03462651      -0.07443514       0.07874620
Pt      11.81869518       5.32190629       2.28990322        4       0.00000000      -0.01640352       0.05427474       0.15760882
Pt       5.23547047       7.57960096       2.31116810        4       0.00000000      -0.00186948      -0.03089876       0.12764450
Pt       7.91544479       7.55275197       2.29617050        4       0.00000000      -0.08780899       0.01252480       0.24465562
Pt      10.53001293       7.56317518       2.21015484        3       0.00000000       0.03813814       0.10472384       0.08038235
Pt      13.14166716       7.60919045       2.31293962        4       0.00000000       0.09503672       0.05694402       0.17806851
Ni       0.01659555       1.50492058       4.54221758        5       1.00000000       0.06661031       0.03990670      -0.03591267
Pt       2.55997789       1.60615461       4.54386961        5       0.00000000      -0.03696718       0.17221432       0.02068670
Pt       5.27287514       1.57146492       4.59784995        6       0.00000000      -0.02551571       0.06149096       0.09750196
Pt       7.91712078       1.53840973       4.56666641        6       0.00000000       0.02718950       0.15541071      -0.11853309
Ni       1.32704425       3.80492583       4.52026096        5       1.00000000      -0.00280614       0.21023052      -0.10823986
Ni       3.91662722       3.80014829       4.49848734        5       1.00000000      -0.17519509       0.08559998      -0.28522009
Ni       6.58128162       3.77442841       4.51196438        5       1.00000000       0.12785113       0.03678111      -0.14591966
Pt       9.30290653       3.78708344       4.54959183        5       0.00000000       0.20596791       0.00377330      -0.01041090
Ni       2.62661525       6.01222001       4.49042514        5       1.00000000      -0.17238419      -0.09520893      -0.25371710
Pt       5.18041731       6.00614224       4.47104414        5       0.00000000      -0.12749165      -0.12232138      -0.10508319
Pt       7.91398921       6.02199172       4.48388465        5       0.00000000       0.02631906      -0.05307454      -0.07659894
Ni      10.55525313       6.02914737       4.50984289        5       1.00000000       0.15353917      -0.01375052      -0.09460735
Pt       4.00085480       8.36231416       4.57181506        6       0.00000000       0.06852126      -0.03083587      -0.08408161
Ni       6.56220446       8.36078504       4.51053557        5       1.00000000       0.04715035       0.01115862      -0.25319575
Pt       9.22069208       8.33017182       4.51683612        5       0.00000000      -0.03817408       0.00372993      -0.03049785
Pt      11.84342173       8.30635087       4.53321883        5       0.00000000       0.02120013      -0.04216939      -0.11060770
Ni      -0.01142865       0.02624210       6.62910333        7       1.00000000       0.05706267       0.23323839      -0.03460416
Pt       2.60961886       0.06633819       6.66790572        8       0.00000000      -0.21599244      -0.00425565       0.75926641
Ni       5.28837516       0.02269136       6.73823152        8       1.00000000       0.02417456       0.02394801      -0.28626861
Ni       7.88878930       0.01885937       6.67085436        8       1.00000000       0.04263566       0.08127832       0.02477432
Ni       1.28210194       2.27440203       6.70487374        8       1.00000000      -0.22459507      -0.01041567      -0.46568305
Ni       3.95091256       2.26145559       6.64309118        7       1.00000000      -0.05178188       0.04676517       0.20814100
Ni       6.57937587       2.22937815       6.73225454        8       1.00000000       0.06048335      -0.04420488      -0.30095248
Ni       9.23730404       2.24319113       6.64908917        7       1.00000000       0.14525950      -0.15976438       0.02861142
Pt       2.59374072       4.47772476       6.66144946        8       0.00000000       0.09472232      -0.07472538      -0.30322194
Pt       5.24687582       4.45566687       6.62417947        7       0.00000000      -0.00636707      -0.20763984       0.44313863
Pt       7.91958264       4.44607826       6.75191800        9       0.00000000      -0.12217291      -0.17964276       0.04007543
Ni      10.53565361       4.51304205       6.72097213        8       1.00000000       0.02780816      -0.03734732      -0.35246444
Ni       3.94041047       6.82214647       6.62649968        7       1.00000000      -0.08838828      -0.04421499       0.03517439
Pt       6.52292702       6.86404249       6.63222952        7       0.00000000      -0.08020322       0.13264071       0.66103452
Pt       9.25828392       6.79468052       6.75472818        9       0.00000000      -0.01126604      -0.01061240       0.13214420
Pt      11.87857144       6.82939123       6.74565728        8       0.00000000       0.14917473      -0.02530375       0.03096738
