64
Lattice="10.363203400474728 -0.0018106049732031708 0.043777693939085614 5.180033670334351 8.953007698338938 0.03129080234489882 0.035744337422163826 0.008864248536436664 8.873135847158716" Properties=species:S:1:pos:R:3:tags:I:1:initial_magmoms:R:1:forces:R:3 unique_id=51850b3dc54f41f1b3a06273614d22cd stress="0.0003417099888444325 2.4204527685265764e-06 -2.552334339147241e-05 2.4204527685265764e-06 0.00033625818211215075 -3.978782089083088e-06 -2.552334339147241e-05 -3.978782089083088e-06 0.00032055874335795015" energy=-401.0756405104637 pbc="T T T"
Ni      -0.03180895       0.01277299       0.16773353        4       1.00000000      -0.23108747      -0.00087999       0.18264578
Ni       2.61829603      -0.00904596       0.17980062        4       1.00000000       0.24685277      -0.11095361       0.25564688
Ni       5.18743802      -0.02017032       0.18109852        4       1.00000000       0.00410508       0.09583887       0.22756565
Ni       7.79724970      -0.04010225       0.13737286        4       1.00000000       0.06676968      -0.12719270       0.20115881
Ni       1.28181435       2.25224449       0.07042352        4       1.00000000      -0.06102195       0.08122738       0.01850165
Pt       3.82762794       2.24263788       0.20789678        4       0.00000000      -0.08293636       0.05173905       0.20053267
Pt       6.48662561       2.16251848       0.17872438        4       0.00000000       0.06548554      -0.08547068       0.19972947
Ni       9.09985668       2.20486628       0.17418246        4       1.00000000       0.02129185      -0.14791858       0.12371150
Ni       2.57757564       4.49034002       0.07914111        4       1.00000000      -0.01407400       0.05147276       0.03471259
Ni       5.17567234       4.48058652       0.18616365        4       1.00000000       0.17563355      -0.08592226       0.26564333
Pt       7.84857585       4.50504008       0.10444043        4       0.00000000       0.15981271      -0.01487902      -0.13386736
Ni      10.39965565       4.48892394       0.09645392        4       1.00000000       0.14428976       0.07599029       0.00736675
Ni       3.85844369       6.74002583       0.19296244        4       1.00000000      -0.05899718       0.13762102       0.22162148
Pt       6.46098931       6.76674426       0.23396815        4       0.00000000      -0.03448118       0.06688382       0.15348074
Ni       9.09882777       6.73177026       0.12230125        4       1.00000000       0.05488292       0.04804817       0.02859549
Ni      11.67567279       6.72338747       0.11513366        4       1.00000000       0.13059207       0.08467701      -0.03695699
Pt       1.30925996       0.72104045       2.15313795        3       0.00000000      -0.00985763       0.00547820      -0.06120782
Ni       3.92023119       0.75525442       2.24808763        3       1.00000000       0.11392426       0.03515600       0.07732869
Ni       6.49061009       0.72679440       2.28017025        3       1.00000000       0.03657062      -0.02183499       0.11254320
Ni       9.04741962       0.71131658       2.23655348        3       1.00000000      -0.09654364      -0.02590163      -0.09747519
Ni       2.60986920       2.99691820       2.25266374        3       1.00000000      -0.04205098       0.12415772       0.04285357
Ni       5.16863539       2.96412855       2.28856392        3       1.00000000      -0.03391519      -0.13495930       0.11069918
Pt       7.78121743       2.95458234       2.31442071        3       0.00000000      -0.00819155      -0.06608610      -0.16194719
Pt      10.36724052       2.97728792       2.24952129        3       0.00000000       0.05298044       0.07406725       0.01985923
Pt       3.91413625       5.21055909       2.20391985        3       0.00000000      -0.01960421      -0.05937711      -0.00561943
Ni       6.50988961       5.23273817       2.27067981        3       1.00000000       0.13342927      -0.00082715       0.00399574
Ni       9.05361707       5.25156704       2.30524097        3       1.00000000      -0.02369154       0.02414187       0.13952075
Pt      11.66908831       5.25166651       2.24164279        3       0.00000000      -0.03547459       0.06876818       0.00398507
Ni       5.15502350       7.47606500       2.23671187        3       1.00000000      -0.14131442       0.02167670      -0.04921362
Ni       7.79634033       7.43350596       2.26847311        3       1.00000000       0.04257636      -0.13205850       0.04653360
Pt      10.34799829       7.48367702       2.19530085        3       0.00000000       0.00486856      -0.05626047      -0.01633752
Ni      12.98063442       7.49897033       2.25148460        3       1.00000000      -0.02416981       0.05669484      -0.08608840
Ni      -0.00797980       1.53530891       4.40649186        2       1.00000000      -0.01961430       0.11164771      -0.11621598
Pt       2.62398751       1.54749205       4.34202254        2       0.00000000       0.08174487       0.05173124      -0.01140035
Ni       5.21189095       1.50242417       4.38587626        2       1.00000000       0.02143785      -0.02815344      -0.16761126
Ni       7.81315073       1.49769878       4.42064233        2       1.00000000       0.05393239       0.02617318      -0.09335436
Pt       1.28247554       3.79379330       4.49765109        2       0.00000000      -0.01535113       0.01424286      -0.03740057
Ni       3.89744622       3.74485634       4.40337692        2       1.00000000      -0.03441709       0.00799910      -0.12679054
Pt       6.51532221       3.72592529       4.40005569        2       0.00000000      -0.10504794      -0.02269456       0.11978968
Ni       9.09260970       3.76588022       4.46506428        2       1.00000000       0.03250679       0.11193652      -0.15945915
Ni       2.57698048       5.95745980       4.44566073        2       1.00000000      -0.05971272       0.03452221      -0.09071438
Pt       5.16999414       5.94597446       4.36696375        2       0.00000000      -0.05767045       0.06170781       0.08628377
Ni       7.85456935       5.92370108       4.42500752        2       1.00000000       0.10710815      -0.10329350      -0.19114772
Ni      10.35667731       5.94566437       4.50163724        2       1.00000000      -0.05365563       0.00238902      -0.06721058
Pt       3.87675772       8.26777259       4.35173361        2       0.00000000       0.01399971       0.06142544      -0.06874814
Pt       6.49264448       8.20006582       4.36879678        2       0.00000000       0.02663784      -0.04022302       0.04596918
Pt       9.09349106       8.15030797       4.42390824        2       0.00000000      -0.03147651      -0.01322758       0.06282899
Pt      11.69425699       8.19883126       4.43863935        2       0.00000000      -0.01577443      -0.02666524      -0.03838607
Pt      -0.00941271       0.04530101       6.63689043        1       0.00000000      -0.06754278       0.00300303       0.10729313
Pt       2.62027436       0.00548973       6.67132104        1       0.00000000      -0.03198368      -0.00849653       0.11250823
Pt       5.24906261      -0.09089509       6.66785255        1       0.00000000       0.01902175      -0.25019803       0.12916009
Ni       7.79041276      -0.00091262       6.62500694        1       1.00000000       0.02757036       0.03356757      -0.14112661
Ni       1.30408120       2.29370652       6.60153973        1       1.00000000      -0.01347121       0.07525378      -0.14300962
Pt       3.85382949       2.29032433       6.55063150        1       0.00000000      -0.10122552      -0.02588955      -0.21200944
Pt       6.54278075       2.20324537       6.54431966        1       0.00000000       0.00779777      -0.06579695      -0.26003452
Pt       9.13894442       2.32970026       6.60388128        1       0.00000000       0.11315586       0.17169239       0.02806492
Ni       2.54626808       4.49285185       6.60093205        1       1.00000000      -0.18997976       0.03817759      -0.08919288
Pt       5.18074759       4.48255286       6.65419364        1       0.00000000      -0.06815211       0.02795514       0.11437680
Ni       7.85403183       4.49902966       6.52927167        1       1.00000000       0.12548551       0.04191513      -0.31661487
Ni      10.38947831       4.52562077       6.62871021        1       1.00000000      -0.03952508       0.20380522      -0.09909351
Pt       3.77507877       6.71790978       6.65697129        1       0.00000000      -0.19798115       0.01695173       0.15350298
Pt       6.57200898       6.66798995       6.58146606        1       0.00000000       0.05362019      -0.03713809      -0.15005766
Ni       9.13144715       6.64637717       6.62221170        1       1.00000000       0.08387539      -0.23988827      -0.19015340
Ni      11.64865670       6.66344304       6.63896946        1       1.00000000      -0.20196672      -0.26754895      -0.21956445
