64
Lattice="10.353798883390025 -0.01858871763440573 0.02196766973863594 5.160801139999844 8.87443389124702 0.005787177866430959 0.01793652723254573 -0.004899455208322465 8.797655388837894" Properties=species:S:1:pos:R:3:tags:I:1:initial_magmoms:R:1:forces:R:3 unique_id=e6e1c869a1694facbbe596c9d6eba4c2 stress="0.00026143559258214044 5.3770267240768965e-06 -1.8637709768049636e-05 5.3770267240768965e-06 0.00027209024539267407 1.695326641315867e-05 -1.8637709768049636e-05 1.695326641315867e-05 0.00025933343211440724" energy=-398.02060944442286 pbc="T T T"
Ni      -0.01961378       0.03390822       0.20970569        4       1.00000000      -0.08213471       0.15267710       0.31710182
Ni       2.58524634       0.00410406       0.21929393        4       1.00000000      -0.02844197       0.04499311       0.41669110
Ni       5.17360084      -0.01576237       0.17372233        4       1.00000000      -0.00827617       0.15805752       0.25062804
Ni       7.79297998      -0.04134928       0.22540236        4       1.00000000       0.10389869      -0.00847214       0.42440444
Ni       1.25535473       2.22155613       0.19358759        4       1.00000000      -0.15582050       0.00604609       0.32127853
Pt       3.81830751       2.22089321       0.12160257        4       0.00000000      -0.05322072       0.05623103      -0.14784182
Pt       6.49775443       2.16038365       0.21324079        4       0.00000000       0.09856095      -0.06001766       0.20867967
Ni       9.09653118       2.18468886       0.20156595        4       1.00000000       0.11603840      -0.07048800       0.24907945
Ni       2.56256597       4.45569628       0.06107080        4       1.00000000      -0.05384479       0.01269675      -0.08743771
Ni       5.16328555       4.43918877       0.16786245        4       1.00000000       0.20090285      -0.08414094       0.21654135
Pt       7.83787657       4.43917559       0.12472762        4       0.00000000       0.16478610      -0.01637706      -0.11454704
Ni      10.36966639       4.41742127       0.09571578        4       1.00000000       0.07365330      -0.10042327       0.09654939
Ni       3.83561144       6.68194336       0.09552195        4       1.00000000      -0.08294644       0.13622470       0.07940913
Pt       6.43304897       6.70531383       0.20997662        4       0.00000000      -0.06944551       0.05713584       0.13704386
Ni       9.07092572       6.66070512       0.09470892        4       1.00000000      -0.00470591       0.03010724       0.03132019
Ni      11.65509183       6.64553241       0.08203360        4       1.00000000       0.12569019       0.01521386      -0.02060879
Ni       1.27322533       0.76189481       2.16677608        3       1.00000000      -0.11190046       0.13051122      -0.01501102
Ni       3.87567540       0.75575521       2.20890604        3       1.00000000       0.04074918       0.05850013       0.01992495
Ni       6.50334237       0.74080908       2.25377586        3       1.00000000       0.09460607       0.09484150       0.14857329
Ni       9.06823809       0.75239488       2.20541100        3       1.00000000      -0.00108374       0.15841240       0.06538623
Ni       2.56557753       2.93331740       2.20822324        3       1.00000000      -0.10292174       0.03246247      -0.07124222
Ni       5.16899817       2.92491596       2.25072703        3       1.00000000      -0.10158901      -0.12833218       0.03464865
Ni       7.81637864       2.92565311       2.25602232        3       1.00000000       0.26613472      -0.10110383      -0.05705343
Ni      10.33017352       2.89820174       2.23279863        3       1.00000000      -0.06147201      -0.08660718       0.11118965
Pt       3.88756026       5.15972972       2.16347317        3       0.00000000      -0.07715653      -0.02632263      -0.04828636
Ni       6.50331551       5.15921177       2.22788102        3       1.00000000       0.11964002       0.02244474      -0.08455114
Ni       9.03051130       5.14026148       2.25251048        3       1.00000000      -0.03953256      -0.10402411       0.14613515
Pt      11.62085840       5.09280195       2.19204813        3       0.00000000      -0.06794636      -0.11063279      -0.01780540
Ni       5.14371429       7.43734682       2.19224007        3       1.00000000      -0.15219500       0.08240892      -0.12074809
Ni       7.75788212       7.38872490       2.21359059        3       1.00000000       0.03951751      -0.07783574      -0.03605962
Pt      10.32622760       7.39742429       2.12812677        3       0.00000000       0.03455091      -0.12803620      -0.06811463
Ni      12.95276251       7.40257705       2.18363965        3       1.00000000      -0.01646489      -0.07781856      -0.08200728
Ni      -0.01361259       1.54258208       4.31751037        2       1.00000000       0.00774370       0.18086320      -0.18323293
Pt       2.60710042       1.57871539       4.28311767        2       0.00000000      -0.07051128       0.02599608      -0.02950731
Ni       5.17822081       1.49728389       4.33715420        2       1.00000000       0.01029395       0.03126551      -0.18571756
Ni       7.80073578       1.48782873       4.32631418        2       1.00000000       0.10133542       0.02203040      -0.18140619
Ni       1.29519349       3.70460855       4.36256758        2       1.00000000      -0.01069450      -0.03630203      -0.15990652
Ni       3.85937628       3.69487112       4.37236950        2       1.00000000      -0.02070077       0.06764172      -0.18496168
Pt       6.52723717       3.66187325       4.26711101        2       0.00000000      -0.00815158      -0.10704934       0.03981456
Ni       9.07440786       3.65774744       4.34718822        2       1.00000000       0.07461750      -0.14726986      -0.28521889
Ni       2.57297052       5.86916438       4.41482941        2       1.00000000      -0.04166812      -0.04912646      -0.08350715
Pt       5.13960166       5.87801903       4.32573734        2       0.00000000       0.06579559       0.04283620       0.01476562
Ni       7.79081822       5.86329636       4.35362777        2       1.00000000       0.01411092      -0.05090576      -0.24638047
Pt      10.34253581       5.80064266       4.45218461        2       0.00000000      -0.02756068      -0.01239815      -0.09165433
Pt       3.86300261       8.17202839       4.27075330        2       0.00000000      -0.05438356       0.12420839       0.00215801
Pt       6.46167898       8.16215226       4.25181766        2       0.00000000      -0.05374806       0.06735907      -0.00273895
Pt       9.04250939       8.11062685       4.32867943        2       0.00000000      -0.05985376       0.05092975       0.06332539
Pt      11.65698496       8.13810971       4.32673175        2       0.00000000       0.06868918       0.01708377       0.04257353
Pt       0.00879228      -0.02190912       6.58609387        1       0.00000000      -0.01080088      -0.00274681       0.16313439
Pt       2.62269679       0.00328791       6.61482202        1       0.00000000       0.02404781       0.07156228       0.22896628
Pt       5.18142944      -0.07819550       6.59560590        1       0.00000000      -0.03686598      -0.24792877       0.07678854
Pt       7.77486986      -0.09996061       6.62341569        1       0.00000000       0.03027316      -0.15239206       0.23465228
Pt       1.33964573       2.33857086       6.55546931        1       0.00000000       0.04627922       0.18058104       0.19867536
Ni       3.88181745       2.23132785       6.45619064        1       1.00000000      -0.01381921      -0.05380105      -0.30842806
Pt       6.46093642       2.21210475       6.47719845        1       0.00000000      -0.03056555       0.01115852      -0.23668022
Pt       9.07646786       2.29160771       6.52458880        1       0.00000000       0.01693513       0.02805482       0.06761827
Ni       2.56896034       4.48491028       6.50780510        1       1.00000000      -0.14316274       0.21421694      -0.27924137
Pt       5.07196491       4.41190159       6.57112268        1       0.00000000      -0.17268444      -0.00404764       0.06566575
Ni       7.81209323       4.44805455       6.45624315        1       1.00000000       0.06862040      -0.00027021      -0.32980260
Ni      10.36470060       4.46568068       6.55566561        1       1.00000000      -0.00528101       0.08882494      -0.02295838
Ni       3.83520368       6.60983651       6.53703437        1       1.00000000      -0.08909406      -0.04028609      -0.18315755
Pt       6.52585243       6.57874703       6.49919107        1       0.00000000       0.05128750      -0.07659546      -0.23790510
Ni       9.08893931       6.57851125       6.55181674        1       1.00000000       0.02396610      -0.13942558      -0.12131826
Ni      11.65827539       6.56198767       6.55714798        1       1.00000000       0.03792070      -0.17239967      -0.14768481
