64
Lattice="10.117409258049987 0.004271112495676114 -0.02798285618551705 5.062403520948669 8.72011819988835 -0.06832025982436572 -0.02284790640006692 -0.05122171377515019 8.662313741272575" Properties=species:S:1:pos:R:3:tags:I:1:initial_magmoms:R:1:forces:R:3 unique_id=45c93361de1f4f9499f94effc44fa0d8 stress="-0.00024351621343532415 4.7499793649958375e-06 -1.3744118131210779e-05 4.7499793649958375e-06 -0.0002372382904834297 1.2778116264546407e-05 -1.3744118131210779e-05 1.2778116264546407e-05 -0.00018048554916376414" energy=-389.07752150390024 pbc="T T T"
Pt       0.04580673       0.05055833       0.17084719        4       0.00000000      -0.01323459       0.02851455       0.28016878
Ni       2.51107216       0.01543778       0.11281935        4       1.00000000      -0.06698883       0.09585737       0.15504612
Pt       4.96298386       0.02394700       0.12235796        4       0.00000000      -0.04758596       0.01177267       0.36235453
Ni       7.60227123       0.02669769       0.16058585        4       1.00000000       0.03423148      -0.07425302       0.39570270
Ni       1.29835673       2.21496073       0.09142791        4       1.00000000       0.05516552      -0.02763112       0.13132491
Ni       3.74763129       2.21370302       0.08468129        4       1.00000000      -0.11937917      -0.06536477       0.15732867
Ni       6.30622641       2.18224926       0.04602995        4       1.00000000      -0.03101438      -0.08253729       0.13459934
Ni       8.88167389       2.17518235       0.04040395        4       1.00000000       0.05277839      -0.03694019       0.12720837
Ni       2.52815176       4.27583455       0.07133278        4       1.00000000      -0.03441025      -0.05291048       0.10434271
Ni       5.02799199       4.28332436       0.03411579        4       1.00000000      -0.07318971      -0.19945948       0.03410680
Pt       7.61425127       4.36607931      -0.07816220        4       0.00000000      -0.00337311      -0.05324334      -0.33270717
Ni      10.14309558       4.28851135       0.05542272        4       1.00000000       0.04462201      -0.18247549       0.14672596
Pt       3.83633877       6.46730416       0.04845771        4       0.00000000       0.04932865      -0.15383656       0.06800782
Ni       6.36114406       6.56732670       0.02745827        4       1.00000000       0.06758779       0.10288003       0.08576100
Ni       8.81539354       6.54143020       0.13045483        4       1.00000000      -0.06941739      -0.00337804       0.30432001
Pt      11.34272494       6.46433371       0.02823342        4       0.00000000      -0.05025323      -0.13708266      -0.04294538
Ni       1.29684970       0.74601807       2.24253987        3       1.00000000      -0.06159893       0.05011158       0.02227156
Ni       3.69403963       0.72837425       2.19594059        3       1.00000000      -0.04565002       0.03702028       0.01803998
Pt       6.32521489       0.65642949       2.19676289        3       0.00000000      -0.07216208      -0.08697825      -0.08909464
Ni       8.90738049       0.69710396       2.20364204        3       1.00000000       0.16228210       0.02126827       0.09971144
Ni       2.51104238       2.89729803       2.16753052        3       1.00000000      -0.01572130      -0.00957570       0.15883420
Ni       4.98216122       2.91020149       2.11921160        3       1.00000000      -0.05056739       0.02397645      -0.02830523
Pt       7.66633506       2.91515087       2.14912931        3       0.00000000       0.11379049       0.02466318      -0.07957055
Ni      10.18884701       2.89921214       2.14614042        3       1.00000000       0.10714283      -0.02302194       0.08861465
Ni       3.72278347       5.03021250       2.16366247        3       1.00000000      -0.08456905      -0.08445803       0.03848396
Pt       6.29628717       5.13165875       2.12588751        3       0.00000000       0.00086999       0.02480631      -0.24983204
Ni       8.91857045       5.11151463       2.16107811        3       1.00000000       0.06172521      -0.02321477       0.03327775
Ni      11.38009128       5.03643202       2.17232933        3       1.00000000      -0.00119911      -0.06009679       0.05864167
Ni       5.05513016       7.30171380       2.18372963        3       1.00000000       0.02416313       0.10474400      -0.00329238
Ni       7.60220875       7.30389463       2.12997283        3       1.00000000      -0.04135428       0.05445530       0.03290627
Ni      10.07686804       7.20155158       2.18441274        3       1.00000000       0.03621713      -0.02435390       0.06546393
Ni      12.66455548       7.20637221       2.16543688        3       1.00000000       0.00280909      -0.19003785       0.03646901
Ni       0.05773419       1.47363058       4.25584852        2       1.00000000       0.05979691       0.08403696      -0.03930967
Ni       2.45921118       1.44202481       4.29484594        2       1.00000000      -0.03437188       0.07825468       0.02956996
Pt       4.95168395       1.51307553       4.24645251        2       0.00000000      -0.11812584       0.07783683       0.16002224
Pt       7.65651741       1.46255610       4.32629541        2       0.00000000       0.05509340       0.02694537       0.25809098
Ni       1.25821375       3.61292415       4.28271567        2       1.00000000       0.01805596       0.03794215      -0.06959946
Ni       3.70483419       3.63791320       4.28147707        2       1.00000000      -0.19245773       0.09917801      -0.07337642
Ni       6.31775746       3.63970350       4.29947526        2       1.00000000      -0.05323301       0.04686027      -0.20577831
Ni       8.91365581       3.66770112       4.28360153        2       1.00000000       0.18509198       0.07204008      -0.11837657
Ni       2.47597162       5.76052655       4.24995387        2       1.00000000      -0.05384751      -0.05679169      -0.10967371
Pt       5.02324424       5.79475137       4.29150937        2       0.00000000      -0.03659278       0.04722438      -0.01068395
Ni       7.60334619       5.78949756       4.21987060        2       1.00000000       0.08122832       0.04960088      -0.12595697
Ni      10.12558127       5.76449720       4.20656925        2       1.00000000      -0.01696350      -0.01839288      -0.03233133
Ni       3.78279369       7.94560124       4.18570057        2       1.00000000      -0.02632575       0.06196678       0.03118105
Ni       6.36913043       7.98838598       4.17563765        2       1.00000000      -0.00028612       0.02951518      -0.05087639
Ni       8.79760400       7.93596678       4.16620502        2       1.00000000       0.03511908       0.00163113      -0.03039310
Ni      11.37304379       7.87850855       4.19648477        2       1.00000000      -0.02195323      -0.05364690       0.06437391
Pt       0.05890250      -0.01361591       6.31254988        1       0.00000000       0.10031242       0.06100018      -0.38185439
Ni       2.51057732      -0.00163582       6.37804856        1       1.00000000       0.04806539       0.05522448      -0.16756533
Pt       4.99753206      -0.00886514       6.32382019        1       0.00000000       0.00492329       0.10040028      -0.40810026
Pt       7.58540838      -0.06760400       6.43895784        1       0.00000000       0.00125431      -0.00210670       0.12607973
Ni       1.27943915       2.20487605       6.37229110        1       1.00000000       0.05515268       0.12200407      -0.07717667
Ni       3.72728583       2.21890888       6.40019250        1       1.00000000      -0.07885755       0.14484527      -0.00701684
Ni       6.29918282       2.22936460       6.39578174        1       1.00000000      -0.06008496       0.07465341      -0.00131348
Ni       8.87514749       2.23124901       6.38409524        1       1.00000000       0.17718695       0.14800716       0.00672517
Ni       2.50973637       4.31901752       6.35080403        1       1.00000000      -0.01343731       0.07529612      -0.07798673
Ni       5.03551817       4.31007206       6.37092504        1       1.00000000      -0.05876729       0.00078300      -0.07051255
Ni       7.55211352       4.29214928       6.22115910        1       1.00000000      -0.01106822      -0.03321723      -0.47980180
Ni      10.13983716       4.29158201       6.32750843        1       1.00000000       0.13569586       0.00796125      -0.08458720
Ni       3.75832451       6.45186942       6.29652124        1       1.00000000      -0.07267704      -0.06943019      -0.16186096
Ni       6.30703889       6.47353243       6.35413046        1       1.00000000       0.00272769      -0.05247033      -0.08939048
Pt       8.80751726       6.43208940       6.33932094        1       0.00000000      -0.01830631      -0.11525283       0.10158744
Ni      11.38940707       6.43622225       6.22835114        1       1.00000000      -0.02339324      -0.11111954      -0.21807267
