64
Lattice="10.285567802174613 0.004598456296300637 -0.0012345254250584292 5.146766281058095 8.848613282304957 -0.0391496195003648 0.0 0.0 21.544471130554395" Properties=species:S:1:pos:R:3:tags:I:1:initial_magmoms:R:1:forces:R:3 unique_id=635697c9f8d6458bb54b010e00244c84 energy=-374.15812302436575 stress="0.00559358339081697 0.00011506124182621989 -7.810409192906967e-05 0.00011506124182621989 0.004852776735872789 -9.499115357949339e-05 -7.810409192906967e-05 -9.499115357949339e-05 -0.0020595962672291194" pbc="T T T"
Ni       0.01295517      -0.00460530       0.14304110        1       1.00000000       0.11726926       0.05584281      -0.17125401
Ni       2.56413446       0.00145443       0.16240430        2       1.00000000      -0.03491821       0.02574641      -0.02783205
Ni       5.14064494      -0.01971008       0.13193704        1       1.00000000      -0.05021996       0.12521249      -0.53007919
Ni       7.70564512      -0.05371381       0.15200822        2       1.00000000      -0.06525246      -0.02344204      -0.25412200
Ni       1.28447539       2.21915425       0.06366071        1       1.00000000      -0.01289816       0.01680996       0.37992225
Pt       3.77209406       2.17826116       0.14191753        1       0.00000000       0.03335307       0.02522926      -0.46866916
Pt       6.44274954       2.17272374       0.05734534        1       0.00000000      -0.01294415      -0.07150181      -0.14421584
Pt       9.07223293       2.26223213       0.07488168        1       0.00000000       0.02918545       0.06847528      -0.57036585
Ni       2.53655514       4.44896771       0.00992499        0       1.00000000      -0.02327205      -0.00965758       0.20081227
Pt       5.09905788       4.46785348       0.04140804        0       0.00000000      -0.09385481      -0.02839761      -0.05010364
Ni       7.73184968       4.44615127       0.01887284        0       1.00000000      -0.01496256       0.02815172       0.08191083
Ni      10.31776496       4.45363116       0.00524574        0       1.00000000       0.08845688       0.06864358       0.23206428
Ni       3.81135812       6.66176186       0.03813838        0       1.00000000      -0.02354434       0.03420952       0.32568810
Pt       6.45640359       6.69464374       0.03724444        0       0.00000000       0.00234770       0.07395329      -0.02716260
Ni       9.01321700       6.63550388       0.07313437        1       1.00000000      -0.07479747       0.00215707      -0.36212483
Ni      11.59825864       6.63495988       0.00000000        0       1.00000000       0.07152069      -0.01047354       0.20937371
Ni       1.31655696       0.74143002       2.18023565        4       1.00000000       0.03678763       0.07934140       0.18688579
Ni       3.80673794       0.73776668       2.17473744        4       1.00000000      -0.18905850       0.00969310       0.14295632
Ni       6.43539376       0.74806133       2.16446915        4       1.00000000       0.03391109       0.06684140       0.16896735
Pt       9.01940591       0.73618213       2.18546892        4       0.00000000       0.07400007       0.14081805       0.00617192
Ni       2.55869563       2.91306378       2.21947719        4       1.00000000       0.00847816      -0.12050989       0.27115032
Ni       5.12876990       2.96682819       2.18086242        4       1.00000000      -0.07347522       0.14470347       0.13776303
Ni       7.69506819       2.93955641       2.18808398        4       1.00000000      -0.04946514      -0.06080291       0.11395015
Ni      10.33732462       2.92351373       2.20715487        4       1.00000000       0.15602243      -0.12091911       0.26393967
Ni       3.86582815       5.15235271       2.16221170        4       1.00000000       0.01841270      -0.07757729       0.08343875
Ni       6.41690740       5.15891501       2.15640643        4       1.00000000      -0.01459442      -0.01693480       0.06662034
Pt       8.94940292       5.10971224       2.16239192        4       0.00000000      -0.02104389      -0.13548701      -0.00389760
Pt      11.63954755       5.10611126       2.15924863        4       0.00000000       0.04253731      -0.11035792       0.10432376
Ni       5.16040395       7.34917269       2.12967940        3       1.00000000       0.03244596      -0.05720301       0.07549526
Ni       7.66636398       7.39619215       2.14099711        3       1.00000000      -0.20467959       0.02554856       0.19302064
Pt      10.29439538       7.39320744       2.06029787        3       0.00000000       0.04768894      -0.07206860       0.01754116
Ni      12.89494344       7.34202616       2.09118992        3       1.00000000       0.13960643      -0.09582952       0.03598866
Ni       0.05933213       1.50350410       4.29127484        6       1.00000000       0.16758133       0.06855635      -0.18363390
Ni       2.49919140       1.50294933       4.27226477        6       1.00000000      -0.11586615       0.05145571      -0.19321099
Pt       5.12032724       1.49421629       4.21776593        5       0.00000000      -0.11243785      -0.02811189      -0.11613141
Ni       7.73502673       1.48209374       4.29689910        6       1.00000000       0.04625829      -0.08280730      -0.25079918
Ni       1.28940712       3.65569225       4.33398887        6       1.00000000       0.02425659      -0.07284292      -0.05144013
Ni       3.79127868       3.70549916       4.26705717        6       1.00000000      -0.16307733      -0.02439201      -0.29829557
Pt       6.50918126       3.68418974       4.29356807        6       0.00000000       0.09905305      -0.06165542      -0.13899779
Ni       9.05060724       3.69568877       4.28226172        6       1.00000000       0.19908780      -0.00288141      -0.17583881
Ni       2.56319139       5.81376693       4.33468280        6       1.00000000      -0.01478555      -0.14698494      -0.03944298
Pt       5.14200565       5.86442457       4.28321714        6       0.00000000       0.02630288      -0.04956866      -0.14939432
Ni       7.71825409       5.86684828       4.29760591        6       1.00000000      -0.00136564       0.00336226      -0.19279957
Ni      10.30627627       5.80561611       4.32721950        6       1.00000000       0.06677289      -0.14148882      -0.05634483
Pt       3.89915564       8.09257297       4.24722582        5       0.00000000      -0.00159009       0.07603275      -0.00712685
Ni       6.42859719       8.10990882       4.23950208        5       1.00000000      -0.05815478       0.10808282      -0.31501707
Pt       8.91233858       8.06537803       4.21567437        5       0.00000000      -0.06778363       0.02350206      -0.04133049
Pt      11.58968148       8.02391687       4.24586518        5       0.00000000      -0.04341566      -0.11154247       0.02030161
Pt       0.01470966      -0.05344192       6.50702150        9       0.00000000       0.05297482       0.09143828       0.31203162
Pt       2.54498383      -0.01540732       6.50064553        9       0.00000000       0.03739539       0.08231639       0.23191982
Pt       5.14963737      -0.03012817       6.54447113        9       0.00000000      -0.10071141       0.09890137       0.51859581
Pt       7.71946317      -0.05896967       6.54184032        9       0.00000000       0.00220044       0.17963190       0.41968276
Ni       1.27933036       2.24923565       6.42865913        8       1.00000000       0.01600810       0.10479660      -0.28109853
Pt       3.81843754       2.31449855       6.39689583        8       0.00000000      -0.08622457       0.11809733       0.47339403
Ni       6.43471679       2.22902575       6.39283837        8       1.00000000      -0.01379180      -0.02290991       0.20424370
Pt       9.01901898       2.29003511       6.34091804        7       0.00000000      -0.00975347      -0.08699676       0.52956950
Ni       2.53734492       4.44215392       6.42033087        8       1.00000000       0.00810208       0.01656328      -0.35951319
Ni       5.15046901       4.43234996       6.38396464        8       1.00000000      -0.05353283       0.00364196       0.10375586
Ni       7.68482886       4.40214518       6.44298307        8       1.00000000      -0.07305420      -0.01288919      -0.10873966
Ni      10.34820171       4.39941335       6.42065477        8       1.00000000       0.15022726      -0.03398577      -0.30932465
Ni       3.84381284       6.54169041       6.44792864        8       1.00000000      -0.04516487      -0.11469820      -0.23676538
Ni       6.42185428       6.56250174       6.36618041        8       1.00000000       0.05791960       0.02490927       0.10379855
Pt       9.01007443       6.47971434       6.45627232        9       0.00000000       0.03674546      -0.03620543       0.10155131
Ni      11.60301335       6.53520286       6.44066094        8       1.00000000      -0.00321900      -0.00154200      -0.20175709
