64
Lattice="10.676064731102706 -0.0019277170654411135 -0.011713107823761486 5.336362913601372 9.267119011428026 0.012797040302575719 0.0 0.0 21.908570035260745" Properties=species:S:1:pos:R:3:tags:I:1:initial_magmoms:R:1:forces:R:3 unique_id=f098a8dcacee497c899a0b6b6f1c224c energy=-398.6605689478009 stress="0.004088899103281366 8.514423340737869e-06 -4.991008242932236e-05 8.514423340737869e-06 0.0042012517334122906 -7.05135807428275e-06 -4.991008242932236e-05 -7.05135807428275e-06 -0.0005722487929265066" pbc="T T T"
Ni       0.00288361       0.01082226       0.06650431        1       1.00000000      -0.07360144      -0.02908629       0.38571286
Pt       2.62247874       0.03452269       0.07733652        1       0.00000000       0.10266933       0.16786315      -0.20180422
Pt       5.34419746      -0.02534956       0.07149070        1       0.00000000      -0.15650005       0.10693723      -0.34044034
Pt       8.03775305      -0.01223241       0.07081452        1       0.00000000       0.16378238       0.17753277      -0.24194087
Ni       1.32570298       2.30491580       0.06242040        1       1.00000000       0.01444869       0.02660504       0.32942745
Pt       3.97839601       2.30620031       0.09892841        1       0.00000000       0.04601226      -0.10675632      -0.26197622
Pt       6.67355864       2.31852880       0.07112531        1       0.00000000      -0.07470400      -0.03782183      -0.42625746
Pt       9.39616749       2.26977208       0.00000000        0       0.00000000       0.16323835      -0.24499208       0.16152939
Pt       2.63568570       4.64037339       0.07132266        1       0.00000000       0.01296095      -0.01733941      -0.33765024
Pt       5.33476229       4.62904294       0.07648213        1       0.00000000      -0.15637658      -0.12664001      -0.39738028
Pt       8.02191067       4.63686569       0.00020111        0       0.00000000       0.23071732       0.04185478      -0.00699072
Pt      10.68770458       4.63193942       0.06321851        1       0.00000000      -0.13386451      -0.02509611      -0.32431495
Pt       3.99900664       6.98416652       0.08743523        1       0.00000000       0.12549056       0.04918432      -0.30260463
Pt       6.64561811       6.98646008       0.01464288        0       0.00000000      -0.12177884       0.21660356       0.11269308
Pt       9.36333422       6.93869526       0.07500370        1       0.00000000      -0.05624805      -0.12701958      -0.31055495
Ni      12.01009111       6.94760004       0.00824074        0       1.00000000       0.01506386      -0.03240977       0.48829470
Pt       1.29455559       0.75752646       2.26837931        2       0.00000000      -0.25042395      -0.06747091       0.12469841
Ni       3.99916372       0.79077616       2.29524202        2       1.00000000      -0.06757685      -0.01420107       0.47100494
Pt       6.64592873       0.80540234       2.30358068        2       0.00000000      -0.02695355       0.09101335       0.38366108
Ni       9.35544174       0.76084626       2.26846268        2       1.00000000       0.07038285      -0.05708057       0.28462079
Pt       2.69653156       3.03358050       2.31583251        2       0.00000000      -0.10242933      -0.26954237       0.40931382
Ni       5.32628257       3.07881550       2.29174818        2       1.00000000       0.01790917      -0.00044278       0.45109983
Pt       8.01342769       3.09483568       2.30774427        2       0.00000000       0.09724748       0.03956868       0.30521338
Pt      10.66169934       3.06831437       2.27361589        2       0.00000000       0.05631451      -0.06740057       0.25857406
Pt       4.02650811       5.40487841       2.31194225        2       0.00000000       0.04871139      -0.05403122       0.44693050
Pt       6.68250410       5.41706447       2.31445750        2       0.00000000       0.10688195       0.05165292       0.30388009
Ni       9.33387477       5.40585917       2.28751455        2       1.00000000      -0.06612436      -0.04270103       0.39310167
Pt      11.98180146       5.42299296       2.28824016        2       0.00000000       0.00651163       0.08213736       0.28620004
Ni       5.33211938       7.74852113       2.28799523        2       1.00000000       0.02862812       0.12801635       0.29164194
Pt       7.98979205       7.73427883       2.31365340        2       0.00000000      -0.08779915       0.02997050       0.33905750
Pt      10.65989660       7.72467711       2.30104338        2       0.00000000       0.05672044       0.01243935       0.28287086
Pt      13.37714875       7.75278569       2.29244101        2       0.00000000      -0.06866884       0.02495447       0.26235037
Pt       0.01649946       1.55150526       4.57295556        4       0.00000000       0.07907248      -0.00448191      -0.34099561
Ni       2.66521029       1.55085494       4.57847447        4       1.00000000      -0.05511487      -0.02482676      -0.44054074
Pt       5.29234879       1.55809531       4.51533181        3       0.00000000      -0.06908917       0.02648590      -0.59922360
Pt       8.02136700       1.55307770       4.57179879        4       0.00000000       0.06216175      -0.03932391      -0.38617450
Pt       1.34308766       3.82653906       4.57839987        4       0.00000000       0.05112696      -0.15232088      -0.42769689
Pt       3.99640530       3.84196900       4.55265778        4       0.00000000       0.02475678       0.04617538      -0.44233917
Pt       6.66728067       3.86732228       4.57015576        4       0.00000000      -0.01480511      -0.03338279      -0.40063691
Pt       9.32654348       3.87054640       4.61335583        4       0.00000000      -0.01121684      -0.04897912      -0.21627475
Pt       2.65290630       6.19055737       4.59967569        4       0.00000000      -0.06762393       0.01298980      -0.32062945
Pt       5.34419527       6.20573172       4.58588072        4       0.00000000       0.00338876       0.08525400      -0.38772179
Pt       8.00093231       6.17897284       4.61407693        4       0.00000000      -0.01789417       0.00015364      -0.19930153
Pt      10.66428807       6.18562110       4.57886861        4       0.00000000       0.00804208       0.01118950      -0.36962166
Pt       4.02024959       8.51797116       4.53924426        3       0.00000000       0.11401605       0.08560276      -0.57468993
Pt       6.66956392       8.51734088       4.58186476        4       0.00000000       0.00088615       0.03657233      -0.33548117
Pt       9.30998886       8.54634127       4.55671190        4       0.00000000      -0.09189093       0.13254992      -0.52093814
Pt      12.00135200       8.49434101       4.59345859        4       0.00000000      -0.00961043      -0.04698406      -0.28553074
Pt      -0.01223660       0.01360991       6.90857004        6       0.00000000      -0.10804468      -0.08958108      -0.04403683
Pt       2.64695584      -0.00562793       6.82457620        5       0.00000000       0.02450167       0.01535821       0.35954576
Pt       5.34727746      -0.02447877       6.83315551        5       0.00000000      -0.02159884       0.02112898       0.42127416
Pt       8.00830765       0.01019876       6.83685625        5       0.00000000       0.09163865       0.03003245       0.40535299
Pt       1.29571365       2.32693057       6.90668598        6       0.00000000       0.01904523      -0.00134376       0.07063093
Pt       3.98858172       2.32279198       6.82076420        5       0.00000000       0.05759983      -0.03024500       0.30250180
Pt       6.72052028       2.36207147       6.83250534        5       0.00000000       0.06621082       0.01090289       0.34973879
Ni       9.33469597       2.33354680       6.83707122        5       1.00000000      -0.01681644      -0.00257669      -0.30677915
Pt       2.63734930       4.67702970       6.84870560        5       0.00000000       0.01323685       0.01681207       0.51205722
Pt       5.38760419       4.67548189       6.83779064        5       0.00000000       0.06515691       0.04022061       0.38444156
Ni       8.00044578       4.64685161       6.83693236        5       1.00000000       0.03399427       0.02116126      -0.27420429
Pt      10.63082563       4.64253887       6.83564733        5       0.00000000      -0.11718607      -0.02042597       0.37458460
Pt       3.99881474       6.97066455       6.85550774        6       0.00000000       0.08150756       0.06157799       0.40080296
Ni       6.66727939       6.95460673       6.84546659        5       1.00000000       0.00999980      -0.00072215      -0.28929939
Pt       9.31401314       6.92763094       6.84113295        5       0.00000000      -0.09755097      -0.05065877       0.36606547
Ni      11.99989148       6.96103702       6.89469395        6       1.00000000      -0.02854189      -0.03461677      -0.40484187
