64
Lattice="10.208778094323549 -0.03901643094802399 0.02608097435015505 5.070599826795784 8.808946359888518 0.02796735063016314 0.021295026384165326 0.014073181827915698 8.743718333305583" Properties=species:S:1:pos:R:3:tags:I:1:initial_magmoms:R:1:forces:R:3 unique_id=b9ecb45e366c45e89d7c005d18193a2a stress="-6.702788475912436e-05 6.078714821908857e-06 -2.3958433879541924e-05 6.078714821908857e-06 -6.344977613316483e-05 4.232778928125724e-06 -2.3958433879541924e-05 4.232778928125724e-06 -3.6565284618393645e-05" energy=-394.6977008309596 pbc="T T T"
Ni       0.03912575      -0.01178995       0.14457932        4       1.00000000       0.17189744       0.05659506       0.23659893
Ni       2.51627313      -0.02395932       0.19184004        4       1.00000000      -0.09706632      -0.10558140       0.31683338
Ni       5.11575392      -0.04674874       0.12371852        4       1.00000000       0.00929237      -0.04688984       0.24852365
Ni       7.64700151      -0.06632968       0.17024612        4       1.00000000       0.02064937      -0.00774561       0.31345343
Ni       1.26973494       2.18643861       0.11826184        4       1.00000000       0.06128948      -0.03656794       0.26078536
Pt       3.76534568       2.14416949       0.19885462        4       0.00000000      -0.04385680      -0.12503229       0.15437002
Pt       6.35963737       2.16307689       0.06754733        4       0.00000000       0.01003951      -0.03710337      -0.10535865
Pt       9.01247866       2.20333583       0.02484089        4       0.00000000       0.10495285       0.01239921      -0.22982469
Pt       2.49846053       4.46071101       0.10857609        4       0.00000000      -0.01508972       0.08975081      -0.04221119
Ni       5.08656247       4.43538613       0.18511842        4       1.00000000      -0.09973016      -0.01389407       0.41251655
Ni       7.63908520       4.41553002       0.08499011        4       1.00000000       0.02486321       0.03104557       0.07450208
Ni      10.19534793       4.39867335       0.13392990        4       1.00000000      -0.00343154       0.14638012       0.25591289
Ni       3.81828747       6.62459737       0.08530515        4       1.00000000       0.06268173       0.06470726       0.07719921
Ni       6.34277348       6.60724210       0.08114217        4       1.00000000       0.01292439       0.03061577      -0.04245222
Pt       8.90978244       6.59620139       0.20698992        4       0.00000000      -0.05698665       0.06299494       0.18333006
Ni      11.45061500       6.60029715       0.10644919        4       1.00000000      -0.07284396       0.09091394       0.01463538
Ni       1.34887633       0.76935948       2.21725533        3       1.00000000       0.14431659       0.10167263       0.15931397
Ni       3.83000973       0.69277744       2.27076132        3       1.00000000       0.02229658      -0.01756418       0.11258659
Ni       6.30678672       0.69296629       2.25006729        3       1.00000000      -0.13847151      -0.01886789       0.12294219
Pt       8.97297582       0.73315060       2.24386848        3       0.00000000       0.05250479       0.13587923      -0.02256437
Ni       2.53811381       2.92513647       2.25856888        3       1.00000000       0.09264914      -0.03272347       0.02988942
Ni       5.03989723       2.90459575       2.26213693        3       1.00000000      -0.14673426      -0.11615032       0.06435632
Pt       7.65693893       2.92381961       2.24132778        3       0.00000000       0.03794639      -0.08139181      -0.19764444
Ni      10.27542772       2.93414015       2.22233650        3       1.00000000       0.11685943      -0.00210770      -0.02159708
Ni       3.79023002       5.09534709       2.25250396        3       1.00000000      -0.07642800      -0.06212397       0.18238858
Pt       6.38427802       5.15217079       2.20189197        3       0.00000000       0.11763969       0.08733199       0.01149346
Ni       8.97325843       5.14286001       2.26230380        3       1.00000000       0.10418493       0.12307073       0.11487766
Ni      11.42616145       5.09013184       2.24775235        3       1.00000000      -0.12259381      -0.01289618       0.03556506
Pt       5.13756322       7.34671692       2.20641621        3       0.00000000       0.06439421      -0.01794302       0.02180030
Ni       7.67833674       7.38146931       2.28249560        3       1.00000000       0.10890803       0.08704390       0.20691615
Ni      10.15087008       7.33819333       2.29129120        3       1.00000000      -0.14191011       0.02832481       0.14893894
Pt      12.64115519       7.24675596       2.23227316        3       0.00000000      -0.08785930      -0.10271500       0.05413953
Ni       0.04830520       1.47387971       4.35435428        2       1.00000000       0.15414581      -0.05582845      -0.07112230
Ni       2.56349096       1.43918330       4.28862291        2       1.00000000       0.09715867      -0.09675193      -0.13480118
Ni       5.09727684       1.39730367       4.31867846        2       1.00000000      -0.08579396      -0.14149115      -0.16650816
Ni       7.62959280       1.42445486       4.38714965        2       1.00000000      -0.08211037      -0.10564106      -0.08885411
Pt       1.33495482       3.68065827       4.34183786        2       0.00000000       0.05173866      -0.04688037      -0.01555878
Ni       3.81594537       3.68725570       4.30602779        2       1.00000000       0.03118138       0.01515373      -0.15709365
Pt       6.31915830       3.64042273       4.38933583        2       0.00000000      -0.12941622       0.02486355       0.09681827
Pt       8.95767779       3.68818876       4.41568731        2       0.00000000       0.02234763       0.16055680      -0.07693285
Ni       2.53418129       5.87064543       4.39148356        2       1.00000000      -0.00612840      -0.04186258      -0.05564497
Ni       5.08280961       5.88034436       4.38366082        2       1.00000000      -0.01476525      -0.02194665      -0.03296499
Ni       7.63552267       5.91294498       4.35905555        2       1.00000000       0.02482938       0.12619835      -0.11099399
Ni      10.23284053       5.89616016       4.34151072        2       1.00000000       0.13155108       0.09813032      -0.22147024
Pt       3.79396247       8.04371361       4.38603786        2       0.00000000      -0.06430691       0.04995765       0.20785486
Ni       6.40948608       8.06785025       4.35144285        2       1.00000000       0.10884217       0.02962729      -0.08244176
Ni       8.92940775       8.07644825       4.32788087        2       1.00000000      -0.00214432      -0.04671660      -0.08080515
Ni      11.39676395       8.05093294       4.38506052        2       1.00000000      -0.14100250      -0.01262786      -0.06175968
Pt       0.01265910       0.02173926       6.51399947        1       0.00000000      -0.05767912       0.01260242       0.08787693
Pt       2.58376478      -0.02214400       6.46618843        1       0.00000000       0.01681371      -0.00731946       0.05885056
Ni       5.12759042      -0.02010275       6.46010470        1       1.00000000      -0.12302868      -0.03290561      -0.24320882
Pt       7.58227813      -0.02168090       6.52643130        1       0.00000000      -0.16377477      -0.05458868       0.16505157
Ni       1.25786988       2.24884124       6.48334660        1       1.00000000      -0.00540413       0.02196291      -0.10680677
Pt       3.84244381       2.21973868       6.38264831        1       0.00000000      -0.01750096       0.07803487      -0.26061654
Ni       6.40971410       2.18640493       6.41096554        1       1.00000000      -0.03564877      -0.00017449      -0.29789192
Ni       8.93849334       2.20550733       6.40581732        1       1.00000000      -0.05935691      -0.07045782      -0.43067497
Ni       2.52261112       4.45219691       6.41934928        1       1.00000000      -0.01249582       0.07781331      -0.20058069
Pt       5.09753537       4.48611047       6.54439954        1       0.00000000      -0.01529398       0.13370223       0.19565368
Ni       7.66713897       4.37596619       6.51925723        1       1.00000000      -0.03566735      -0.06962615      -0.09358271
Ni      10.23673575       4.36391179       6.53004925        1       1.00000000       0.13646889      -0.09522851      -0.00719596
Ni       3.78870372       6.59429796       6.49760516        1       1.00000000      -0.17102250       0.03637976      -0.12909705
Ni       6.37201442       6.59459607       6.48577208        1       1.00000000       0.06398158       0.06006255      -0.31762898
Pt       8.96869828       6.53272346       6.41619342        1       0.00000000       0.10810481      -0.17370617      -0.23333289
Ni      11.49177755       6.54694383       6.49267432        1       1.00000000       0.03808914      -0.16272013      -0.28675321
