64
Lattice="10.678193804080053 0.015504105703820511 -0.014089396448538299 5.352523851442552 9.266968395940685 0.009254438973678364 -0.011503944027566777 0.01536697392021141 9.264210490403498" Properties=species:S:1:pos:R:3:tags:I:1:initial_magmoms:R:1:forces:R:3 unique_id=052a61b9df194f81abf5c873ac9968c5 stress="6.267833330477618e-05 -9.173506196751103e-07 7.692418811928304e-06 -9.173506196751103e-07 5.8590265096913896e-05 -1.836394301234232e-06 7.692418811928304e-06 -1.836394301234232e-06 4.311308648030643e-05" energy=-422.88444965517436 pbc="T T T"
Pt       0.04366722       0.01045246       0.00647132        4       0.00000000       0.01178334       0.01011649      -0.13104850
Ni       2.67963103       0.02645362       0.12438375        4       1.00000000      -0.00547583       0.05097619       0.29474786
Pt       5.24736784       0.06668089       0.03042213        4       0.00000000      -0.12544067       0.07815884      -0.05100286
Pt       7.99909213       0.03059917       0.07418262        4       0.00000000      -0.03850985       0.03534875       0.05151687
Pt       1.39128090       2.28128845       0.01461615        4       0.00000000       0.06287680      -0.04016487      -0.17596650
Ni       3.99886868       2.29897583       0.12631829        4       1.00000000      -0.03695134      -0.02247584       0.26893398
Pt       6.64126942       2.31865103       0.00304049        4       0.00000000      -0.01573729      -0.00136474      -0.12483259
Pt       9.36258952       2.33188286       0.01261771        4       0.00000000       0.02835930      -0.02197928      -0.13099762
Pt       2.69314945       4.59015235       0.10432290        4       0.00000000       0.00515285      -0.01434464      -0.00558379
Pt       5.34217209       4.61193815       0.12010941        4       0.00000000       0.00649990      -0.00270633      -0.00115829
Pt       8.00614017       4.63974488       0.10801673        4       0.00000000       0.00314105      -0.02824217       0.02736207
Pt      10.68771505       4.62249016       0.01764521        4       0.00000000       0.02398247      -0.03891578      -0.10324408
Pt       4.02226334       6.95274667       0.10187026        4       0.00000000      -0.02147053       0.03647463      -0.01012368
Pt       6.69862157       6.97197791       0.12901717        4       0.00000000       0.00197969      -0.00073779       0.04996496
Pt       9.34169147       6.99266382       0.10385739        4       0.00000000      -0.00156161       0.00685586       0.04703330
Pt      12.00775315       6.96853258       0.09900223        4       0.00000000      -0.04153591       0.03777450       0.05942218
Pt       1.34751467       0.80635292       2.34093337        3       0.00000000      -0.03878828       0.04450169       0.04195447
Ni       3.99299248       0.78630503       2.29883187        3       1.00000000      -0.01039627       0.01381126       0.04821463
Pt       6.65141784       0.80878547       2.37070380        3       0.00000000       0.05256983       0.02124641       0.07633171
Pt       9.37866119       0.85533064       2.39867010        3       0.00000000       0.06751043       0.08933560       0.06735347
Pt       2.66853294       3.04200814       2.32306239        3       0.00000000      -0.00135130      -0.03644105       0.03828123
Pt       5.33912651       3.07142241       2.32584928        3       0.00000000       0.04162602      -0.04229973       0.05307357
Pt       8.04046927       3.10915678       2.40189603        3       0.00000000       0.03620735      -0.02440527       0.02242074
Ni      10.67680588       3.10034402       2.35763776        3       1.00000000       0.00202692      -0.02460431       0.09110692
Pt       4.03894198       5.39529485       2.35311041        3       0.00000000       0.00920354      -0.00770290       0.02634840
Ni       6.68963575       5.40868897       2.32451960        3       1.00000000       0.04343339      -0.03319228       0.03589398
Pt       9.33471223       5.37314830       2.37258482        3       0.00000000       0.01947501      -0.03884198       0.03395947
Pt      11.98624332       5.36414262       2.35126202        3       0.00000000      -0.03180445      -0.08758153       0.05386599
Pt       5.36924698       7.73258256       2.36814558        3       0.00000000      -0.01361713       0.08048201       0.05717515
Pt       8.02251442       7.76168851       2.33696964        3       0.00000000       0.01145498       0.04537971       0.09813860
Pt      10.66089289       7.77431758       2.36321419        3       0.00000000       0.02464338       0.02264967       0.09423891
Pt      13.35824799       7.75184199       2.35126398        3       0.00000000       0.01739729       0.03731627       0.07907200
Ni      -0.04730581       1.58819932       4.66798444        2       1.00000000      -0.13652222       0.04870271       0.07850911
Pt       2.62731009       1.56559798       4.62263625        2       0.00000000       0.01227098       0.00621082       0.04743411
Pt       5.37180452       1.55865200       4.65581514        2       0.00000000      -0.00689935       0.00399664       0.03087513
Ni       8.05370493       1.60062395       4.64113178        2       1.00000000       0.12370495       0.13127871       0.01457794
Pt       1.20806279       3.78289976       4.65144080        2       0.00000000      -0.13488412      -0.10550876      -0.06341297
Pt       3.99243117       3.84473834       4.60529025        2       0.00000000      -0.05456595      -0.03601133       0.01304377
Pt       6.74935670       3.81571171       4.60511682        2       0.00000000       0.02159144      -0.02803767      -0.02391140
Ni       9.35370115       3.81132999       4.63294874        2       1.00000000      -0.02842440      -0.20111105      -0.02133391
Pt       2.66425904       6.18120144       4.61054294        2       0.00000000      -0.01488871      -0.04641649      -0.02912345
Pt       5.36701168       6.17772800       4.58211826        2       0.00000000       0.00644359      -0.02781880      -0.03654630
Pt       8.01344807       6.15122459       4.57413120        2       0.00000000      -0.02424045      -0.02726332      -0.05222016
Pt      10.65698554       6.13516685       4.62807133        2       0.00000000      -0.04673220      -0.04057332       0.01811202
Pt       4.02633395       8.61085538       4.64928628        2       0.00000000      -0.00326088       0.09302477       0.01696308
Pt       6.65352250       8.56317237       4.64567091        2       0.00000000      -0.01293461       0.05717618       0.04439822
Pt       9.34767179       8.53750321       4.62022156        2       0.00000000      -0.03802787       0.03954256       0.03037949
Pt      12.02982147       8.55138514       4.63824303        2       0.00000000       0.02130258       0.00585069       0.01378605
Ni      -0.00933091       0.05732567       6.81777419        1       1.00000000       0.00276960       0.17748300      -0.21876355
Pt       2.62877905       0.05932319       6.93258523        1       0.00000000      -0.08119775       0.03637856       0.18233921
Ni       5.33496642       0.03591300       6.83521344        1       1.00000000       0.01439169       0.00518384      -0.15271664
Pt       8.00735098       0.14750819       6.80462546        1       0.00000000       0.02762381       0.20533585       0.02516324
Ni       1.28464388       2.31880189       6.82200694        1       1.00000000      -0.17285557      -0.06970583      -0.23760952
Pt       4.02522502       2.28771400       6.93145681        1       0.00000000       0.06075757      -0.03902460       0.17035000
Ni       6.68201757       2.32202524       6.81280141        1       1.00000000       0.04034773       0.01556257      -0.22674017
Ni       9.36619899       2.33443588       6.77487842        1       1.00000000       0.18431943      -0.01710681      -0.30907384
Pt       2.60369297       4.59156143       6.84322595        1       0.00000000      -0.07665931      -0.09522402      -0.03472682
Pt       5.36493254       4.60811895       6.84105295        1       0.00000000       0.06358676      -0.03732469      -0.03801814
Pt       8.08715231       4.55567007       6.81699043        1       0.00000000       0.16230523      -0.12916877      -0.00164911
Ni      10.66933222       4.61576018       6.81263364        1       1.00000000      -0.01520921      -0.13440071      -0.20221764
Pt       4.00683778       7.00625774       6.83842710        1       0.00000000      -0.00363335       0.06672085      -0.04833469
Pt       6.67694987       6.98617625       6.84949708        1       0.00000000       0.01953437      -0.06522762      -0.00153322
Pt       9.36085270       6.96777014       6.84839539        1       0.00000000      -0.02512864       0.00183199       0.00772659
Pt      11.99427414       6.98902749       6.83526777        1       0.00000000       0.02843181       0.06121668       0.02182103
