64
Lattice="10.238791049905366 0.001646654352133906 0.011978624509496003 5.1208215694528825 8.748505991702801 -0.07353763024324242 0.00978050595622059 -0.07497872043648242 8.728309647569167" Properties=species:S:1:pos:R:3:tags:I:1:initial_magmoms:R:1:forces:R:3 unique_id=ae40878b4fe1466e8897514e77ed10d9 stress="-0.006668903591099763 -8.193273008289115e-06 -7.128329722763656e-07 -8.193273008289115e-06 -0.006591122543782912 9.212546054372066e-06 -7.128329722763656e-07 9.212546054372066e-06 -0.005717760090483408" energy=-392.8600468683001 pbc="T T T"
Ni       0.04751357      -0.04965289       0.20374271        4       1.00000000       0.09731698      -0.03763167       0.18073927
Ni       2.50095692      -0.03448461       0.23036530        4       1.00000000      -0.00569191       0.01646863       0.24726105
Pt       5.10490440      -0.05514453       0.15106095        4       0.00000000      -0.03471613       0.06582700      -0.24902831
Ni       7.70372744      -0.05626372       0.21919745        4       1.00000000      -0.03222600       0.01634144       0.20833877
Ni       1.27697898       2.18749921       0.10679734        4       1.00000000       0.01248070      -0.01236172       0.15585868
Pt       3.73566813       2.20543570       0.16943826        4       0.00000000       0.00442371       0.02131983      -0.06617144
Pt       6.43571394       2.21108798       0.08711266        4       0.00000000      -0.01570112       0.01196575      -0.10953379
Pt       9.04649991       2.23109029       0.12387054        4       0.00000000       0.06231048       0.03469576      -0.09312815
Ni       2.52907315       4.40703251       0.01996436        4       1.00000000       0.02668034       0.03024860      -0.06144795
Pt       5.10983646       4.49894362       0.04869500        4       0.00000000      -0.03627392       0.07645688      -0.13078746
Ni       7.68762108       4.43222001       0.03313935        4       1.00000000      -0.04678796       0.02751785      -0.04110720
Ni      10.27830893       4.41095143       0.02558033        4       1.00000000       0.07953344       0.04806321      -0.03362144
Ni       3.81703005       6.60612881       0.05264028        4       1.00000000       0.00116794       0.09348796       0.03752645
Ni       6.42514363       6.60619799       0.06018853        4       1.00000000       0.03713004       0.03183688       0.00465724
Ni       8.91690894       6.51823190       0.01333206        4       1.00000000      -0.08495900      -0.06721309      -0.06364575
Ni      11.56152650       6.51696544       0.02123743        4       1.00000000       0.08217055      -0.04921809      -0.04175155
Ni       1.31409528       0.71414409       2.21927835        3       1.00000000       0.01072210      -0.01260534       0.18416522
Ni       3.79210869       0.74602006       2.24544207        3       1.00000000      -0.01811876       0.00160423       0.06353427
Ni       6.40038237       0.75722499       2.24310684        3       1.00000000      -0.04173150       0.03512146       0.06283714
Pt       8.99203390       0.70980872       2.23526181        3       0.00000000       0.03080801      -0.03419889       0.16687982
Ni       2.55573675       2.85926325       2.26489908        3       1.00000000       0.02150212      -0.06812894       0.13804256
Ni       5.09473081       2.91093175       2.23037890        3       1.00000000      -0.07069585       0.04499125      -0.04680987
Ni       7.65373379       2.88790309       2.22843918        3       1.00000000      -0.03617542      -0.08464595       0.00146722
Ni      10.30110149       2.86965516       2.25249677        3       1.00000000       0.08974163      -0.04529593       0.13566867
Ni       3.87582201       5.09056942       2.20581072        3       1.00000000       0.05915325      -0.01376570       0.07519922
Ni       6.37091542       5.11699679       2.17681771        3       1.00000000      -0.03622342      -0.01245498       0.00485126
Pt       8.88586216       5.02625794       2.17166574        3       0.00000000       0.00739658      -0.06177899      -0.01436132
Pt      11.60346845       5.01553578       2.18672310        3       0.00000000       0.01707571      -0.05819378       0.04476374
Ni       5.16623462       7.22107564       2.10981128        3       1.00000000      -0.00328067      -0.06306311       0.02442264
Ni       7.59862291       7.27972111       2.11363281        3       1.00000000      -0.03747248      -0.08877433       0.05748824
Pt      10.23002945       7.24051825       2.12342553        3       0.00000000      -0.01359400      -0.14250683       0.05291612
Ni      12.85148081       7.23207669       2.09909099        3       1.00000000       0.07290481      -0.09995148       0.05100767
Ni       0.07428689       1.46096190       4.29753827        2       1.00000000       0.08699137      -0.04168035       0.02342096
Ni       2.51677227       1.46712651       4.27127376        2       1.00000000      -0.02547191      -0.00413740       0.02363735
Ni       5.10474495       1.45620689       4.26078485        2       1.00000000      -0.08222011       0.00739899      -0.13413971
Ni       7.68386220       1.45019950       4.30641616        2       1.00000000       0.01329861      -0.04986988      -0.02967236
Ni       1.29019931       3.59666137       4.33968213        2       1.00000000       0.00002117      -0.00459331       0.02001345
Ni       3.81017073       3.65073776       4.24627169        2       1.00000000      -0.00986350       0.01364804      -0.12035573
Pt       6.40153514       3.62866607       4.28921872        2       0.00000000       0.01423552      -0.04305699      -0.09446538
Ni       8.99722798       3.64040981       4.28369449        2       1.00000000       0.02451520       0.00096574      -0.10158188
Ni       2.58673859       5.71539740       4.32404844        2       1.00000000       0.03042959      -0.04820709      -0.02393867
Ni       5.13848920       5.77116685       4.28645633        2       1.00000000       0.04733800      -0.03964933      -0.10142424
Ni       7.65511767       5.78691630       4.32657551        2       1.00000000      -0.04647146       0.01459769      -0.05812291
Ni      10.24495059       5.72817798       4.35820099        2       1.00000000      -0.00132346      -0.00102750      -0.06853899
Pt       3.92080162       7.90144303       4.23613490        2       0.00000000       0.01211111      -0.01232060       0.06552899
Ni       6.39754748       7.95882290       4.21292872        2       1.00000000      -0.02085042      -0.01314158      -0.05067732
Pt       8.86450389       7.96765630       4.21527842        2       0.00000000      -0.05766797      -0.01559611      -0.04483070
Pt      11.56381624       7.94792937       4.21852985        2       0.00000000       0.05538949      -0.07461124      -0.11246742
Pt       0.02840196      -0.09406622       6.52356180        1       0.00000000      -0.04668540       0.03534913       0.19117918
Pt       2.54226460      -0.09230548       6.53560688        1       0.00000000       0.04589931       0.03419843       0.25625800
Pt       5.12183795      -0.07687182       6.40156223        1       0.00000000      -0.05107763       0.11698128       0.10244293
Pt       7.68562652      -0.09349173       6.55599297        1       0.00000000       0.00668617       0.02025850       0.22970882
Ni       1.28513025       2.20731062       6.40774062        1       1.00000000      -0.01190620       0.09671151      -0.04676084
Pt       3.82436982       2.25751627       6.33050792        1       0.00000000      -0.01963813       0.08334833      -0.01286104
Ni       6.40684505       2.18648999       6.35481892        1       1.00000000      -0.01645236       0.05740756      -0.13114183
Pt       8.98078261       2.25436874       6.32530416        1       0.00000000      -0.00991573       0.04894122       0.02450436
Ni       2.52698548       4.37173708       6.38346407        1       1.00000000      -0.07140985       0.06310546      -0.10984220
Ni       5.13135088       4.38188084       6.33565059        1       1.00000000      -0.02270369       0.07659737      -0.14484234
Ni       7.67823411       4.38531850       6.41173537        1       1.00000000      -0.01754604       0.07986594      -0.08628382
Ni      10.27844177       4.37574176       6.39817585        1       1.00000000       0.02641650       0.06117975      -0.08573567
Ni       3.84680414       6.41454133       6.40255663        1       1.00000000      -0.00823336      -0.07476989      -0.03252065
Ni       6.40839114       6.43617096       6.39001623        1       1.00000000      -0.02584835       0.00406430      -0.09803560
Ni       8.96196078       6.41537609       6.39892703        1       1.00000000      -0.00210008      -0.02124956      -0.10931275
Ni      11.52675852       6.42605944       6.40656695        1       1.00000000      -0.01481664       0.02513368      -0.08537304
