64
Lattice="10.519859380987144 0.01336871122497731 0.026979563624537083 5.2715073340302645 9.142140160466665 0.04116489648501751 0.0 0.0 21.80093192596263" Properties=species:S:1:pos:R:3:tags:I:1:initial_magmoms:R:1:forces:R:3 unique_id=a94ce674a2ec4cf1bbfbf5d91d289bba energy=-388.7919934706261 stress="0.006048236344507211 -7.763744375864372e-05 8.677965865824483e-06 -7.763744375864372e-05 0.006597782163079225 8.902249930186674e-05 8.677965865824483e-06 8.902249930186674e-05 3.480663710412127e-05" pbc="T T T"
Pt       0.01296036       0.04498122       0.00976966        0       0.00000000      -0.08780418      -0.01484347      -0.23607577
Ni       2.63635838       0.01566341       0.03159333        0       1.00000000       0.01406379      -0.02387483       0.35622158
Pt       5.22080251       0.00215454       0.01467627        0       0.00000000       0.12496016      -0.04339111      -0.08770812
Pt       7.89390175       0.04047909       0.12233313        1       0.00000000      -0.03631098       0.13821686      -0.48940069
Pt       1.31158095       2.30071421       0.00000000        0       0.00000000      -0.00200183       0.17777852      -0.10502687
Ni       3.93763194       2.28414917       0.12246717        1       1.00000000      -0.00220142       0.10423486       0.07732120
Pt       6.60665981       2.32612436       0.13004555        1       0.00000000      -0.02549616       0.00613710      -0.33299952
Ni       9.21599595       2.33010401       0.07874751        1       1.00000000       0.00537144       0.11012141       0.46979333
Pt       2.56948352       4.58832099       0.13174264        1       0.00000000      -0.17830776       0.15273989      -0.46576730
Pt       5.29074958       4.53982388       0.16325541        2       0.00000000       0.04807436      -0.03192559      -0.37748199
Ni       7.93272125       4.56701692       0.14345703        1       1.00000000       0.09381572       0.02504532       0.31910092
Ni      10.50634372       4.58154334       0.08977522        1       1.00000000      -0.02782418      -0.01914586       0.42309229
Pt       3.92941893       6.85113370       0.11656525        1       0.00000000       0.05294210      -0.06527867      -0.92974245
Pt       6.63158090       6.84601913       0.14392228        1       0.00000000       0.03284021      -0.21772267      -0.60880260
Pt       9.25714586       6.78906518       0.06397392        1       0.00000000       0.11057315      -0.30411943       0.08841588
Ni      11.82470627       6.85303130       0.15167067        2       1.00000000      -0.04553004      -0.01208890       0.10544869
Pt       1.29877769       0.77929826       2.28676024        3       0.00000000      -0.03441193       0.07945453       0.22319662
Pt       3.96617872       0.79015460       2.25943820        3       0.00000000       0.08008459      -0.18042150       0.09993168
Pt       6.61639209       0.80639091       2.38072970        4       0.00000000       0.11536246       0.03462045       0.41062639
Ni       9.20647237       0.80456249       2.30586857        3       1.00000000       0.01793796       0.22787964       0.24015487
Pt       2.65777029       3.07557974       2.31994859        3       0.00000000      -0.07484294      -0.02449003       0.31931718
Ni       5.28606749       3.07436723       2.32777767        3       1.00000000       0.09141861       0.01106438       0.49767062
Pt       7.88685454       3.13881228       2.36819130        4       0.00000000      -0.05024916       0.17453503       0.34397266
Pt      10.48329196       3.13753737       2.29017628        3       0.00000000      -0.04563929       0.14761583       0.04241255
Pt       3.98673153       5.29021360       2.36981226        4       0.00000000       0.08995525      -0.09670159       0.30466772
Ni       6.61864381       5.31214497       2.32801775        3       1.00000000       0.15512032      -0.08846137       0.38302117
Ni       9.21146631       5.33507986       2.33240538        3       1.00000000      -0.04869945      -0.01081347       0.30210381
Ni      11.81299702       5.34985122       2.31531723        3       1.00000000      -0.12744489      -0.07435129       0.18371706
Pt       5.26647787       7.62533497       2.33890539        3       0.00000000      -0.02669255       0.02891973       0.20213411
Pt       7.93301914       7.54643028       2.36084501        4       0.00000000       0.13083758      -0.10236840       0.38384631
Pt      10.54695216       7.54141748       2.37165357        4       0.00000000      -0.05772621      -0.11747034       0.37308839
Pt      13.13231401       7.62122635       2.35500672        4       0.00000000      -0.06040551      -0.14678716       0.11528093
Pt      -0.07207485       1.59075868       4.60290382        6       0.00000000      -0.24252239       0.21084478      -0.07883587
Pt       2.64621788       1.56029050       4.57673313        6       0.00000000      -0.03673794       0.08577760      -0.16811727
Pt       5.32490624       1.57534396       4.52876502        5       0.00000000      -0.00148648       0.10062669      -0.22934782
Ni       7.90820531       1.57844130       4.53994430        5       1.00000000       0.00119893       0.25509807      -0.30842418
Pt       1.24398962       3.86281090       4.55102741        6       0.00000000      -0.39236848       0.13377067      -0.18100835
Ni       3.98104300       3.81178323       4.54074283        5       1.00000000       0.05599156      -0.06812341      -0.32420731
Ni       6.62548413       3.82913983       4.52734341        5       1.00000000       0.20209659      -0.00721826      -0.39578193
Ni       9.19128379       3.85956615       4.56188863        6       1.00000000      -0.20807515       0.18217644      -0.20819980
Pt       2.58278440       6.11244012       4.51736051        5       0.00000000      -0.17013643       0.04762284      -0.21637450
Pt       5.34801320       6.03181119       4.50251985        5       0.00000000       0.26402610      -0.12362121      -0.20059311
Ni       7.94670366       6.06653768       4.55831250        6       1.00000000       0.23347649      -0.26392984      -0.37070568
Ni      10.50367188       6.09697839       4.57507809        6       1.00000000      -0.24039843      -0.15920431      -0.15764592
Pt       3.92767413       8.44424909       4.52735220        5       0.00000000      -0.05168125       0.03729840      -0.35009985
Pt       6.61945011       8.39911662       4.59678681        6       0.00000000       0.01139752       0.06386310      -0.12071233
Pt       9.28068540       8.32194755       4.66331828        7       0.00000000       0.05488937      -0.09021200      -0.01830858
Ni      11.84436543       8.40449150       4.59856679        6       1.00000000      -0.05176557       0.00757708      -0.24662544
Ni       0.03495719       0.05513690       6.69798059        8       1.00000000       0.06041547       0.04594493      -0.11771100
Ni       2.64669218       0.02314777       6.77577675        9       1.00000000      -0.05379918      -0.05502113      -0.38276043
Ni       5.25281052       0.00815611       6.70411379        8       1.00000000       0.01878797      -0.00248979      -0.06349603
Pt       7.90959042       0.06882504       6.69418983        8       0.00000000      -0.09419015       0.04743651       0.40474340
Ni       1.29546196       2.28507565       6.71062404        8       1.00000000      -0.10420864      -0.06633999      -0.07661710
Pt       3.92348122       2.22975224       6.80093193        9       0.00000000       0.01420606       0.03912948       0.18215207
Pt       6.63731709       2.30543905       6.70043869        8       0.00000000       0.15243911       0.11273906       0.42344148
Ni       9.25000938       2.31948735       6.78590454        9       1.00000000       0.06123679       0.02050871      -0.47044518
Pt       2.58830414       4.55012018       6.72293718        8       0.00000000       0.04801582      -0.17031212       0.54675992
Pt       5.29492728       4.56423522       6.70721753        8       0.00000000       0.03482741      -0.16817860       0.46790243
Pt       8.02239477       4.59715312       6.74379138        8       0.00000000       0.10549571       0.09132567      -0.37340462
Ni      10.52395248       4.58682690       6.79482929        9       1.00000000       0.00187318      -0.04328564      -0.54370019
Pt       3.97932065       6.90497827       6.73179988        8       0.00000000       0.05206489      -0.00592191       0.67981333
Pt       6.67522517       6.92268399       6.74509505        8       0.00000000       0.26814616      -0.09426407       0.55188040
Ni       9.23544700       6.88120130       6.73955713        8       1.00000000      -0.03929126      -0.08451961      -0.08416935
Pt      11.74677638       6.89033810       6.79131224        9       0.00000000      -0.18569302       0.07679399      -0.20093187
