64
Lattice="10.172199606575903 0.038794223642413944 -0.04393853723223706 5.119696586482433 8.798200118660189 -0.06003301505598717 0.0 0.0 21.484201752050055" Properties=species:S:1:pos:R:3:tags:I:1:initial_magmoms:R:1:forces:R:3 unique_id=e76d6a7369d24f1aa09e9cb7dc4ad7e9 energy=-368.5696653251079 stress="0.004901227996660951 -5.0134365632911194e-05 -0.0002716349149645922 -5.0134365632911194e-05 0.004457810961031266 -8.552234170360669e-05 -0.0002716349149645922 -8.552234170360669e-05 -0.0014055536393317155" pbc="T T T"
Ni       0.03115673      -0.04732633       0.18110879        2       1.00000000       0.07914378      -0.02028563      -0.20019328
Ni       2.49222534      -0.01890123       0.19019391        2       1.00000000       0.01114409       0.01599178      -0.16019608
Pt       5.10943816       0.00197029       0.13281503        1       0.00000000      -0.10203475       0.10175736      -1.01362252
Ni       7.64493595      -0.01377243       0.14134993        1       1.00000000      -0.00582245      -0.08018093      -0.30573929
Ni       1.27134779       2.21117314       0.09990183        1       1.00000000      -0.05407817       0.03948478       0.37244510
Pt       3.78147983       2.28003191       0.15569654        2       0.00000000      -0.02979800       0.01311911      -0.55160219
Ni       6.37014734       2.26354926       0.07371180        1       1.00000000      -0.04043440       0.04491517       0.17968321
Pt       8.91103473       2.28377704       0.07077320        1       0.00000000       0.05766999       0.12652242      -0.59211067
Ni       2.53308522       4.44090583       0.06957862        1       1.00000000       0.02861516       0.02754943       0.43361459
Ni       5.12077727       4.45199848       0.06126891        1       1.00000000      -0.09129089       0.06670487       0.34812331
Ni       7.61280967       4.45551183       0.05603680        1       1.00000000       0.03177974       0.04086912       0.28575144
Ni      10.21326414       4.45696465       0.04048958        0       1.00000000       0.00037679       0.03935740       0.39892216
Ni       3.84389938       6.57561977       0.05941459        1       1.00000000       0.04284012      -0.02469057       0.37418675
Ni       6.36797629       6.59308686       0.05563667        1       1.00000000      -0.04396204       0.02783905       0.29944931
Ni       8.88388100       6.56288786       0.11866962        1       1.00000000      -0.09616037      -0.03711863      -0.32926771
Ni      11.50648880       6.57150074       0.00000000        0       1.00000000       0.04914138       0.03272025       0.23457433
Ni       1.29250646       0.74158411       2.18771349        4       1.00000000       0.00148305       0.12698895       0.15326031
Ni       3.74329131       0.75752487       2.16757586        4       1.00000000      -0.18872681       0.00722623       0.05277020
Ni       6.38004400       0.78193255       2.16249046        4       1.00000000       0.07662716       0.03975756       0.04337454
Pt       8.91839542       0.75646697       2.17138618        4       0.00000000       0.12508696       0.06194841       0.00476609
Ni       2.50521789       2.95731364       2.22237464        4       1.00000000       0.01112608       0.01814667       0.12050789
Ni       5.10045067       2.99250269       2.14002378        3       1.00000000      -0.03757366       0.14225507      -0.06348400
Ni       7.60978029       2.99128647       2.14982653        3       1.00000000       0.01294333       0.03456237       0.06282734
Ni      10.22290537       2.99714753       2.16966740        4       1.00000000       0.08497079      -0.00378086       0.13210897
Ni       3.82042730       5.12171040       2.14010058        3       1.00000000      -0.02651231      -0.05756930       0.04644088
Ni       6.34695613       5.14470327       2.07652679        3       1.00000000      -0.06410630       0.00167127      -0.05317247
Ni       8.90614161       5.08977696       2.09833899        3       1.00000000       0.01694781      -0.21869794       0.00078172
Ni      11.48895721       5.10134451       2.11633318        3       1.00000000       0.13675343      -0.19620111       0.15390228
Ni       5.13391595       7.27182257       2.09955313        3       1.00000000      -0.03787593      -0.10730974       0.05565668
Ni       7.58414398       7.32619087       2.06593597        3       1.00000000      -0.08532275      -0.03414922       0.00972495
Pt      10.24177169       7.23941361       2.13495988        3       0.00000000       0.06811933      -0.14745022      -0.04670844
Ni      12.75417171       7.29034727       2.06492907        3       1.00000000       0.12695586      -0.17635160       0.02403688
Ni       0.04239463       1.48500594       4.28078002        6       1.00000000       0.09693200       0.03136040      -0.12929676
Ni       2.45937568       1.51154632       4.24372926        5       1.00000000      -0.06695079       0.09105513      -0.19795042
Pt       5.08068240       1.48337891       4.17119647        5       0.00000000      -0.04784425      -0.02726143      -0.09566246
Ni       7.63190126       1.47765958       4.24823370        5       1.00000000       0.02174028      -0.06846112      -0.19288991
Ni       1.27287639       3.65231862       4.29258700        6       1.00000000       0.04758644      -0.02120320      -0.12617583
Ni       3.74837973       3.73070319       4.23399155        5       1.00000000      -0.08917724       0.07498518      -0.21935773
Pt       6.34610096       3.67405519       4.26731054        6       0.00000000      -0.00247301      -0.04820155       0.01101665
Ni       8.96465616       3.68922387       4.19718001        5       1.00000000       0.11453316       0.00724643      -0.25673141
Ni       2.52905335       5.79183070       4.28183561        6       1.00000000      -0.07607316      -0.09073033      -0.20022914
Ni       5.04766457       5.83067927       4.27024054        6       1.00000000      -0.01291586      -0.11141385      -0.18577827
Pt       7.61049194       5.85355509       4.19007673        5       0.00000000      -0.01403333       0.01334627      -0.07274116
Ni      10.24338783       5.80661606       4.25337721        6       1.00000000       0.03772541      -0.07185207      -0.05698251
Pt       3.82837233       7.95790936       4.21557262        5       0.00000000      -0.00111917      -0.06448502       0.07680864
Ni       6.34217062       8.06896770       4.19222780        5       1.00000000      -0.10405274       0.06263479      -0.25503516
Pt       8.86398011       8.07105285       4.15995588        5       0.00000000      -0.07044915       0.08507044      -0.10935411
Ni      11.48581683       8.01049785       4.20147437        5       1.00000000      -0.00253698      -0.12828463      -0.10672988
Pt      -0.01631585      -0.06560750       6.48420175        9       0.00000000       0.01669654       0.12787158       0.22811537
Pt       2.49783170      -0.00154660       6.47020891        9       0.00000000       0.01720441       0.09017284       0.32465804
Pt       5.08681697      -0.01003918       6.37459469        8       0.00000000       0.08703740      -0.04345291       1.15995277
Pt       7.60673005      -0.03790763       6.44697746        8       0.00000000      -0.06318156       0.11660918       0.33702924
Ni       1.24759164       2.24482809       6.39428197        8       1.00000000       0.04819322       0.04512919      -0.20271367
Pt       3.77188382       2.32649221       6.34788492        7       0.00000000      -0.11309257       0.07726947       0.52737567
Ni       6.34584545       2.25065170       6.41669950        8       1.00000000       0.00715440       0.00137480       0.01268898
Pt       8.89675738       2.30659781       6.27913656        7       0.00000000      -0.00539414      -0.08903754       0.60345096
Ni       2.50480867       4.43635130       6.38442609        8       1.00000000       0.04723575      -0.03040802      -0.37446419
Ni       5.08347916       4.44508362       6.40491168        8       1.00000000      -0.10132323       0.05252169      -0.21188624
Ni       7.56926981       4.39619922       6.41616178        8       1.00000000      -0.02915735      -0.00576464      -0.07111410
Ni      10.24059153       4.39879639       6.35377971        8       1.00000000       0.07492557      -0.00333483      -0.28488508
Ni       3.81229672       6.48706086       6.39817657        8       1.00000000      -0.00575951      -0.08321204      -0.25217642
Ni       6.32048751       6.52164915       6.39551758        8       1.00000000      -0.00021076       0.02780797      -0.21625904
Pt       8.92620952       6.46685183       6.44984298        8       0.00000000       0.13949673      -0.01134375       0.27772468
Ni      11.48866551       6.52887267       6.34248154        7       1.00000000      -0.00874254       0.08839004      -0.21121981
