64
Lattice="10.158674037236116 0.008731223947861261 0.010160565166335307 5.086898480363092 8.76439330562266 -0.0012894779010972116 0.0 0.0 21.379714197438506" Properties=species:S:1:pos:R:3:tags:I:1:initial_magmoms:R:1:forces:R:3 unique_id=fda58b5f8e0a47a79c73b4537a3fcf44 energy=-369.3804333547436 stress="0.0026260141586903017 -3.817600953661892e-06 0.00018175588967038773 -3.817600953661892e-06 0.0018168496765213222 6.534446465175852e-05 0.00018175588967038773 6.534446465175852e-05 -0.005157254376641468" pbc="T T T"
Ni       0.03033010      -0.01775969       0.09770964        1       1.00000000       0.03076126       0.04980297      -0.42205949
Ni       2.49104813      -0.00011523       0.11948208        1       1.00000000       0.06239458      -0.02478532      -0.18643950
Pt       5.13814215      -0.00774798       0.13716593        1       0.00000000      -0.12179159      -0.02596953      -0.81718926
Ni       7.64660249      -0.03941431       0.09480619        1       1.00000000       0.00665445      -0.08622425      -0.31028829
Ni       1.26957343       2.20842175       0.05038497        1       1.00000000      -0.02231731       0.01819228       0.22529012
Pt       3.77317659       2.26529378       0.12522217        1       0.00000000       0.00173108      -0.04192767      -0.66371126
Ni       6.35749871       2.24355090       0.05299617        1       1.00000000      -0.04779136      -0.03665748       0.14752589
Pt       8.89570434       2.25650644       0.08033697        1       0.00000000       0.05597723       0.12657097      -0.96620936
Ni       2.51964289       4.42683746       0.03133632        0       1.00000000       0.06706695      -0.00187019       0.37024350
Ni       5.09954686       4.42727610       0.03241684        0       1.00000000      -0.14625461       0.03354787       0.23302231
Ni       7.56187453       4.38058574       0.03921695        0       1.00000000       0.06219565       0.03405932       0.09891695
Ni      10.22956349       4.38724776       0.04617553        0       1.00000000       0.00491099       0.00993513       0.27632317
Ni       3.79882178       6.54208570       0.00000000        0       1.00000000      -0.04404142      -0.00880093       0.27764705
Ni       6.32530677       6.55176565       0.00102427        0       1.00000000       0.07761753       0.00740664       0.09991332
Pt       8.87109030       6.50744251       0.13682500        1       0.00000000       0.02891523       0.06398717      -0.78176688
Ni      11.48747869       6.53536059       0.04932971        0       1.00000000      -0.05064396       0.05178154       0.29304484
Ni       1.32138700       0.75858174       2.08903041        3       1.00000000      -0.02369389       0.10407250       0.12770141
Ni       3.75575842       0.70882212       2.12909469        3       1.00000000      -0.11180303      -0.06021335       0.16651840
Ni       6.35970784       0.73723101       2.12886638        3       1.00000000       0.00690348       0.05087016       0.10900326
Pt       8.83971291       0.71887383       2.14608126        3       0.00000000       0.03797081      -0.15903900       0.23119483
Ni       2.50772698       2.95979860       2.16961776        4       1.00000000      -0.02692026       0.05253550       0.11666659
Ni       5.08967820       2.97242201       2.09550195        3       1.00000000       0.00863444       0.04651304       0.05562958
Ni       7.59702664       2.96594258       2.12976575        3       1.00000000      -0.02410054      -0.00795234       0.16279540
Ni      10.21535215       2.99260676       2.12526967        3       1.00000000       0.11072092       0.04796873       0.12476752
Ni       3.77535593       5.07318577       2.10131798        3       1.00000000      -0.07920873      -0.04747960       0.05765498
Ni       6.36374719       5.07949177       2.04192648        2       1.00000000       0.07105504      -0.01689527      -0.00111106
Ni       8.93453603       5.06218033       2.13367486        3       1.00000000       0.11200043      -0.13109727       0.03788186
Ni      11.44460262       5.11818883       2.12147989        3       1.00000000       0.01974420       0.00573051       0.11861100
Pt       5.10206240       7.21987633       2.11357532        3       0.00000000      -0.03964936      -0.06564146       0.04693570
Ni       7.63921219       7.34257878       2.12239709        3       1.00000000      -0.05061403       0.09797941       0.10225365
Ni      10.19616377       7.26780914       2.19389681        4       1.00000000       0.05976190      -0.06224515       0.20882932
Ni      12.65986077       7.24216432       2.12185995        3       1.00000000      -0.01699375      -0.11491346       0.10740437
Pt       0.07983185       1.49669099       4.18456832        6       0.00000000       0.11917540      -0.01797650       0.02272975
Ni       2.54874192       1.48290009       4.16388592        6       1.00000000       0.04399081      -0.01350993      -0.21427527
Pt       5.06419191       1.42953350       4.11054698        5       0.00000000       0.05398566      -0.00972556      -0.13942055
Ni       7.61242134       1.44165426       4.22361760        6       1.00000000      -0.06050486      -0.07133766      -0.15703798
Ni       1.31096071       3.70766939       4.21946123        6       1.00000000       0.08113939       0.04499261      -0.11892490
Ni       3.75589149       3.72904959       4.16959299        6       1.00000000      -0.05467616       0.07253184      -0.15544005
Pt       6.33793377       3.66400281       4.22709354        6       0.00000000      -0.03457566      -0.01220719      -0.01942938
Ni       8.94622744       3.70963378       4.17581262        6       1.00000000       0.08357844       0.09281405      -0.18619914
Ni       2.54504437       5.82906402       4.21405511        6       1.00000000      -0.00738880       0.02413230      -0.16418481
Ni       5.02064713       5.84640590       4.25884168        7       1.00000000      -0.04305592       0.00875478      -0.04810107
Pt       7.62607894       5.87797894       4.13683266        5       0.00000000      -0.10662535      -0.01922850      -0.09108203
Ni      10.24334599       5.82427407       4.18310728        6       1.00000000       0.07909788       0.00500062      -0.15775581
Ni       3.79487624       7.96029508       4.21549210        6       1.00000000      -0.01279676      -0.02820070      -0.05296712
Ni       6.36308831       8.02727179       4.18757581        6       1.00000000       0.02475064       0.05341825      -0.14440157
Ni       8.90286728       8.02260130       4.15307019        6       1.00000000      -0.02185313       0.04326248      -0.27882796
Ni      11.46524457       7.95550235       4.16020110        6       1.00000000       0.01303348      -0.09740317      -0.16782395
Pt       0.00249013      -0.08818272       6.37971420        9       0.00000000      -0.24480658       0.03312280       0.21689715
Pt       2.52363227      -0.00107773       6.33388016        8       0.00000000       0.25744551       0.00252313       0.14477649
Pt       5.10671666      -0.01732605       6.27821639        8       0.00000000      -0.20456593      -0.17355019       0.87859466
Pt       7.62295752      -0.06604296       6.34053909        8       0.00000000       0.16643320       0.08500731       0.18679447
Ni       1.27472553       2.25735402       6.33857404        8       1.00000000       0.03902925       0.04771172      -0.05320398
Pt       3.79262878       2.33622154       6.27035245        8       0.00000000      -0.13552843      -0.00988213       0.64420589
Ni       6.34740472       2.23797200       6.35679931        9       1.00000000       0.00402752      -0.00630371       0.06228349
Pt       8.87524487       2.30761686       6.26667011        8       0.00000000      -0.14968244      -0.06815355       1.03287255
Ni       2.52054734       4.44476464       6.30874557        8       1.00000000       0.06734592      -0.05072849      -0.33483574
Ni       5.08654453       4.44937716       6.34889174        8       1.00000000      -0.10344529       0.00294802      -0.18369671
Ni       7.56240421       4.39665523       6.36280862        9       1.00000000      -0.00960599      -0.03421873      -0.05017453
Ni      10.25216452       4.38342136       6.31948874        8       1.00000000       0.04142223      -0.03915380      -0.23249696
Ni       3.80990413       6.47858275       6.30899441        8       1.00000000      -0.02514943      -0.00765108      -0.23189703
Ni       6.32397804       6.50446803       6.32939998        8       1.00000000       0.03424071       0.02944619      -0.13910759
Pt       8.93601096       6.45416197       6.29272104        8       0.00000000       0.15718749       0.16453530       0.76323316
Ni      11.48840017       6.49884565       6.31295092        8       1.00000000      -0.07081511       0.03978799      -0.27810341
