64
Lattice="10.187172549813376 -0.0020849144439064426 -0.045961099173019715 5.091780686033549 8.80773045664142 -0.06832666447430426 -0.03752708033045093 -0.04275272711683183 8.69304008797865" Properties=species:S:1:pos:R:3:tags:I:1:initial_magmoms:R:1:forces:R:3 unique_id=67676877bd7b4c53b533744ebc630e81 stress="-0.000139607975633102 3.8645397583225955e-06 -2.978062107898588e-06 3.8645397583225955e-06 -0.0001347204178794234 1.5392290494434423e-05 -2.978062107898588e-06 1.5392290494434423e-05 -0.00010999357346166971" energy=-391.75756302459615 pbc="T T T"
Ni      -0.01485632       0.00277192       0.10909836        4       1.00000000      -0.02025547      -0.02697602       0.07655133
Ni       2.51846351       0.05141056       0.07454029        4       1.00000000      -0.07550876       0.08727434       0.02105839
Ni       5.07442765       0.01330931       0.14869966        4       1.00000000      -0.07763643       0.01117265       0.24959048
Ni       7.67224887      -0.01439390       0.05537180        4       1.00000000       0.07708529      -0.03171648       0.04065978
Ni       1.26485097       2.18941897       0.09271116        4       1.00000000      -0.03479648      -0.01271529       0.10789225
Ni       3.80262165       2.20104031       0.09102858        4       1.00000000      -0.03561732      -0.02241093       0.08216447
Ni       6.36116116       2.23263452       0.12823358        4       1.00000000      -0.07917117       0.12823585       0.18706379
Ni       8.91514565       2.19122228       0.05477861        4       1.00000000      -0.02803306      -0.08827782       0.06982894
Ni       2.57187944       4.37307047       0.12135739        4       1.00000000       0.11208620      -0.12754220       0.07804233
Ni       5.08014881       4.39378626       0.16692548        4       1.00000000      -0.06771928      -0.05299779       0.15898290
Ni       7.62103168       4.35927676       0.05993117        4       1.00000000      -0.05755170      -0.09659907       0.06747582
Ni      10.17166149       4.33828105       0.01200155        4       1.00000000      -0.04042958      -0.20896818       0.01160090
Ni       3.81401614       6.61149389       0.06570129        4       1.00000000      -0.04198144      -0.04328570       0.07340563
Ni       6.30068062       6.58694865       0.12755830        4       1.00000000      -0.14668956      -0.10873190       0.23144437
Pt       8.92572259       6.57167178      -0.02427257        4       0.00000000      -0.06315167      -0.09260809      -0.10020182
Ni      11.49845013       6.62268758       0.10713141        4       1.00000000       0.07263058       0.05583098       0.30011805
Ni       1.23579385       0.76040099       2.12532605        3       1.00000000      -0.08675594       0.09959447      -0.08420361
Ni       3.80077072       0.76635144       2.13596644        3       1.00000000       0.02368442       0.07987710      -0.02909110
Pt       6.37653634       0.76755510       2.11090474        3       0.00000000       0.06516202       0.08071945       0.02395623
Ni       8.93120898       0.73681956       2.08395190        3       1.00000000       0.04079036       0.05097396      -0.08297420
Ni       2.55768379       2.89701823       2.12962053        3       1.00000000      -0.00112279      -0.06354304      -0.05551671
Ni       5.03771926       2.94278303       2.11033047        3       1.00000000      -0.14967637      -0.01202820      -0.00950752
Ni       7.67581690       2.94300640       2.09087048        3       1.00000000       0.16626514      -0.00495289      -0.05305387
Ni      10.16371468       2.90123680       2.08618200        3       1.00000000       0.00352353      -0.01737267      -0.07436566
Ni       3.82372113       5.11595278       2.09761166        3       1.00000000      -0.03105860      -0.00558380      -0.03459602
Ni       6.34802638       5.09217418       2.06814811        3       1.00000000       0.06397988      -0.04369798      -0.04305047
Ni       8.88721533       5.06481924       2.09269932        3       1.00000000      -0.00722640      -0.04507634      -0.07897123
Pt      11.48103784       5.08113423       2.06864325        3       0.00000000       0.03543084      -0.08829551      -0.08034071
Ni       5.04556419       7.34504719       2.07056771        3       1.00000000      -0.06261519       0.07844053      -0.01966770
Pt       7.59656539       7.39386300       2.11321405        3       0.00000000       0.02818742       0.07869400      -0.10981125
Ni      10.17644726       7.33681610       2.08410212        3       1.00000000      -0.06374225      -0.01880535      -0.02147906
Ni      12.76782431       7.32213541       2.04871022        3       1.00000000       0.06986902       0.00682556       0.05098232
Pt      -0.02752550       1.51417677       4.30144625        2       0.00000000      -0.00757048       0.03355295      -0.12850263
Pt       2.56937351       1.45609882       4.28142735        2       0.00000000       0.05554501       0.01354925      -0.09115901
Ni       5.05066272       1.46079032       4.26621607        2       1.00000000      -0.01519662      -0.00535609      -0.02621186
Ni       7.64885105       1.45835103       4.27204818        2       1.00000000       0.06980387       0.01796801      -0.06597650
Ni       1.26532082       3.63883915       4.27560829        2       1.00000000       0.08872554      -0.02784056      -0.14533586
Ni       3.77527249       3.63023408       4.23132666        2       1.00000000      -0.02118411       0.02179322      -0.14306553
Pt       6.36087172       3.56801060       4.17032265        2       0.00000000      -0.05609281      -0.18219865       0.00802126
Ni       8.89999639       3.62313961       4.25999510        2       1.00000000      -0.03759400      -0.00652080      -0.14285074
Ni       2.53008940       5.81257627       4.26291495        2       1.00000000       0.03002127      -0.03291221      -0.01449804
Pt       5.02025594       5.82820900       4.17300822        2       0.00000000      -0.04879357      -0.00794261       0.01368128
Pt       7.62505979       5.84394203       4.24210098        2       0.00000000      -0.00356284       0.01878549      -0.01901312
Pt      10.18669152       5.78027349       4.23221440        2       0.00000000      -0.03360802      -0.02710523       0.06007765
Pt       3.80712919       8.07563754       4.24905457        2       0.00000000       0.01301635      -0.04678735      -0.07860598
Ni       6.35890593       8.08780276       4.24931408        2       1.00000000      -0.05358442       0.02597307      -0.03549229
Ni       8.87431768       8.07217373       4.23098124        2       1.00000000      -0.00817805      -0.00390409      -0.06968222
Pt      11.41344204       8.08819058       4.18523911        2       0.00000000      -0.04367477      -0.00431450       0.13857488
Ni      -0.02879993       0.01950187       6.47029457        1       1.00000000      -0.00602305       0.17691294      -0.01346214
Ni       2.48353234       0.01791307       6.43128179        1       1.00000000      -0.14040112       0.19269492      -0.11508186
Pt       4.96924833      -0.01253449       6.46895034        1       0.00000000      -0.10082930       0.06356764       0.09806149
Ni       7.68445619      -0.01960211       6.43338603        1       1.00000000       0.15672432       0.02786735      -0.05517499
Ni       1.22340190       2.14351908       6.45299823        1       1.00000000      -0.04604262      -0.05553792       0.02493604
Ni       3.76863984       2.15756836       6.42613162        1       1.00000000       0.04230695       0.06487887      -0.05763589
Pt       6.43875620       2.14183578       6.45496775        1       0.00000000       0.17857882       0.00317147       0.03734382
Ni       8.93294773       2.18350900       6.40416515        1       1.00000000       0.14197840       0.05060053      -0.02199515
Pt       2.47015662       4.29505379       6.41545499        1       0.00000000      -0.04374675      -0.05020864      -0.01259119
Pt       5.07123451       4.36936673       6.47581717        1       0.00000000       0.07494897       0.02819188       0.13211208
Ni       7.68198311       4.37065808       6.40166582        1       1.00000000       0.07759022       0.04814208      -0.05229678
Ni      10.11423246       4.31564523       6.37568061        1       1.00000000      -0.01844576      -0.09339391      -0.12167333
Ni       3.79697842       6.61731677       6.41512303        1       1.00000000       0.05047830       0.02695980      -0.06625704
Pt       6.35632134       6.67140025       6.46218817        1       0.00000000       0.03833957       0.16105296       0.14857735
Ni       8.89234050       6.55574384       6.29325747        1       1.00000000       0.02270466      -0.02484646      -0.30692195
Pt      11.46390576       6.58326428       6.44452314        1       0.00000000       0.05581078       0.04775295       0.16811121
