64
Lattice="10.228465016225314 0.027255623357565015 -0.045134941225141674 5.137836570336286 8.799414946841328 -0.0997662474453416 -0.03685252519070227 -0.07278370479701271 8.733251082806422" Properties=species:S:1:pos:R:3:tags:I:1:initial_magmoms:R:1:forces:R:3 unique_id=b7702d5a15ee483b8e8cd566f60082a4 stress="-8.514753496472599e-05 1.3868309622883888e-06 -2.2268658613996864e-07 1.3868309622883888e-06 -5.630801021674903e-05 3.0721514984316245e-05 -2.2268658613996864e-07 3.0721514984316245e-05 -2.1962489731727763e-05" energy=-392.9670326022792 pbc="T T T"
Ni       0.03353713      -0.05017117       0.18358857        4       1.00000000       0.09391478      -0.09784274       0.29775503
Ni       2.49626723      -0.02973368       0.18985887        4       1.00000000      -0.12042275      -0.04548152       0.30932812
Pt       5.10373785      -0.05720564       0.12490147        4       0.00000000      -0.08039130      -0.21202979       0.35105211
Ni       7.69085779      -0.04299896       0.13937353        4       1.00000000      -0.00145663      -0.07443562       0.30170460
Ni       1.27484398       2.20546421       0.08920764        4       1.00000000       0.01050153       0.00276839       0.25992664
Pt       3.73206400       2.21930357       0.15351388        4       0.00000000      -0.14609670       0.03360988       0.22862448
Pt       6.42657785       2.22389886       0.05601205        4       0.00000000       0.03365089       0.04453688      -0.02110602
Pt       9.03709813       2.25784348       0.06953685        4       0.00000000       0.05042849       0.02872890       0.19492272
Ni       2.51121855       4.43456041       0.05086682        4       1.00000000      -0.07021409       0.04209581       0.17873046
Pt       5.10673333       4.51671544       0.03234769        4       0.00000000      -0.11618673       0.17016741      -0.10494181
Ni       7.69234735       4.45888210       0.00006043        4       1.00000000      -0.05664043       0.09071533       0.10769446
Ni      10.28243877       4.44472337      -0.00370552        4       1.00000000       0.13429537       0.10340704       0.12224316
Ni       3.82240169       6.62955403       0.02960476        4       1.00000000      -0.08501292       0.11541070       0.16280078
Ni       6.42067625       6.64094981       0.02366938        4       1.00000000       0.01042194       0.06469406       0.12824382
Ni       8.93272392       6.57151158       0.05986676        4       1.00000000      -0.09276922      -0.05544394       0.25256129
Ni      11.56171324       6.56185314      -0.02398142        4       1.00000000       0.06776432      -0.12107838       0.07154334
Ni       1.29807194       0.72431826       2.19905230        3       1.00000000       0.00842161       0.04042916       0.17025233
Ni       3.76160127       0.73534986       2.19176725        3       1.00000000      -0.17474871      -0.04821197      -0.06253328
Ni       6.41192486       0.74316145       2.19064504        3       1.00000000       0.09579910      -0.08460932      -0.03079973
Pt       8.96770457       0.72592303       2.18298284        3       0.00000000       0.12583094       0.14022657      -0.05213043
Ni       2.51314404       2.94293542       2.22923880        3       1.00000000       0.00223504       0.05177245       0.17653698
Ni       5.09452138       2.96353686       2.17367489        3       1.00000000      -0.13930971       0.23430780      -0.09455339
Ni       7.65352301       2.93667217       2.18387077        3       1.00000000       0.01571462      -0.09869139       0.02699925
Ni      10.30325624       2.94288523       2.18119401        3       1.00000000       0.15946684      -0.03473327       0.16696571
Ni       3.81299904       5.12506013       2.17196136        3       1.00000000      -0.04654554       0.01025860       0.13568186
Ni       6.37758054       5.15877233       2.13938687        3       1.00000000      -0.05684417       0.11271590       0.01560233
Pt       8.93182675       5.07469416       2.12962525        3       0.00000000      -0.00616373      -0.10026509       0.05671190
Ni      11.56402975       5.09497849       2.10864204        3       1.00000000       0.12193177      -0.18640545       0.14067939
Ni       5.15521063       7.27161386       2.08886262        3       1.00000000       0.01615898      -0.15873709      -0.00935091
Ni       7.60935160       7.33102578       2.06934490        3       1.00000000      -0.12345997      -0.09198522       0.01089573
Pt      10.31562185       7.27400940       2.13328947        3       0.00000000       0.16513745      -0.04419023      -0.12803785
Ni      12.81773779       7.28037631       2.05096246        3       1.00000000       0.12487706      -0.21078207      -0.01056756
Ni       0.04150417       1.46356410       4.30179550        2       1.00000000       0.11749704       0.02768410      -0.04328761
Ni       2.47569486       1.47870311       4.26117452        2       1.00000000      -0.05367296       0.10211756      -0.10677996
Pt       5.10987998       1.46652220       4.19148537        2       0.00000000      -0.15481611       0.01694123       0.00594514
Ni       7.66721414       1.45801800       4.26547010        2       1.00000000       0.04332755      -0.01580026      -0.06878842
Ni       1.27653698       3.63442945       4.30591997        2       1.00000000       0.04511955       0.02019814      -0.06233373
Ni       3.77446626       3.70595373       4.24441597        2       1.00000000      -0.06923015       0.12208678      -0.20182279
Pt       6.41391639       3.71304921       4.26184342        2       0.00000000      -0.00478913      -0.02633744      -0.11467476
Ni       8.98842201       3.67796062       4.24112351        2       1.00000000       0.14142091       0.01155298      -0.07896504
Ni       2.54013998       5.77821046       4.28320565        2       1.00000000      -0.06737041      -0.11897427      -0.15260604
Ni       5.10591094       5.82886235       4.26575644        2       1.00000000      -0.00998760      -0.05245894      -0.18087324
Ni       7.63654583       5.83880115       4.24974278        2       1.00000000      -0.07784340       0.08471297      -0.09833477
Ni      10.27954058       5.78987745       4.26638151        2       1.00000000       0.13944720      -0.11597060       0.01759261
Pt       3.84588240       7.94559434       4.19987445        2       0.00000000      -0.01926713      -0.12783435       0.13072397
Ni       6.37713842       8.01173407       4.18666903        2       1.00000000      -0.12565225      -0.02901508      -0.16364496
Pt       8.87312880       7.99978006       4.14965020        2       0.00000000      -0.13305315       0.00209838       0.03370257
Ni      11.53869928       7.99350339       4.19517449        2       1.00000000       0.07738490      -0.09865708       0.02379414
Pt      -0.01461722      -0.09099387       6.50736601        1       0.00000000       0.13274395      -0.05153276       0.12579639
Pt       2.50943595      -0.03434506       6.49184912        1       0.00000000      -0.09836260       0.05936149       0.18284273
Pt       5.11090672      -0.05234224       6.39038846        1       0.00000000       0.09235021       0.04189515      -0.39956696
Pt       7.64765079      -0.07386762       6.46293158        1       0.00000000      -0.07854592      -0.03166462       0.10635534
Ni       1.25335926       2.21492398       6.41776581        1       1.00000000       0.02894436       0.13125921      -0.20421764
Pt       3.78482181       2.28970982       6.36172093        1       0.00000000       0.02439451       0.27442271      -0.25165269
Ni       6.38099701       2.21598240       6.35172892        1       1.00000000      -0.01617981       0.09106879      -0.26791126
Pt       8.94694630       2.27080480       6.29532229        1       0.00000000       0.02127649       0.13159502      -0.33557437
Ni       2.51251794       4.40538046       6.39090362        1       1.00000000      -0.03604453       0.15114374      -0.20902386
Ni       5.10495825       4.41657518       6.32591607        1       1.00000000      -0.04040146       0.15475767      -0.25736906
Ni       7.61669243       4.37200757       6.39673284        1       1.00000000      -0.15713026       0.00354537      -0.12572656
Ni      10.28252295       4.36980260       6.36234470        1       1.00000000       0.27014157      -0.01079958      -0.21325368
Ni       3.82677533       6.47118713       6.39102762        1       1.00000000       0.00246114      -0.16196426      -0.12857609
Ni       6.36000042       6.49433566       6.36842753        1       1.00000000      -0.01998441      -0.04143892      -0.20827365
Pt       8.94259813       6.42971515       6.39508196        1       0.00000000       0.03768201      -0.12714704       0.09782545
Ni      11.53459434       6.49704161       6.34291945        1       1.00000000       0.06785177      -0.03776782      -0.20475670
