64
Lattice="10.254480071063249 -0.012413970229580028 -0.009567685430667097 5.116489221950984 8.815150325545032 -0.011691908968574674 0.0 0.0 21.49980376727912" Properties=species:S:1:pos:R:3:tags:I:1:initial_magmoms:R:1:forces:R:3 unique_id=950e2c744af34893950da790aab28958 stress="0.005406145097087387 -7.264646253295651e-05 -3.411700844323333e-05 -7.264646253295651e-05 0.004887871645828414 5.657173762271963e-05 -3.411700844323333e-05 5.657173762271963e-05 -0.002200153482733157" energy=-371.92874520632824 pbc="T T T"
Ni       0.00616247       0.01190657       0.13843479        1       1.00000000       0.08864601      -0.03077692      -0.34466656
Ni       2.55659300      -0.00497685       0.16781183        2       1.00000000      -0.00672916      -0.00515856      -0.25824758
Ni       5.12836602      -0.01489507       0.10797284        1       1.00000000       0.00672107       0.20247832      -0.32796606
Ni       7.68900071      -0.04720422       0.11848513        1       1.00000000      -0.13365232      -0.08323352      -0.28806788
Ni       1.24419129       2.21507109       0.14533374        1       1.00000000      -0.05869540       0.06648431      -0.03962982
Pt       3.79475354       2.21973122       0.13314476        1       0.00000000       0.00027584      -0.00501597      -0.59938643
Pt       6.45917936       2.21217567       0.05388417        1       0.00000000       0.04772250      -0.06676961      -0.01667688
Ni       9.00451133       2.22922444       0.09426159        1       1.00000000       0.01983959       0.17002647      -0.13632808
Ni       2.55241306       4.43980610       0.02324066        0       1.00000000       0.01084240      -0.01922240       0.22199444
Ni       5.10452202       4.42697391       0.04811831        0       1.00000000      -0.05582505      -0.02615058       0.26862257
Ni       7.72233726       4.40833292       0.05162284        1       1.00000000       0.12174901       0.03993184       0.31759960
Ni      10.23761137       4.39198677       0.02492218        0       1.00000000      -0.07089221      -0.02316019       0.33711684
Ni       3.80800776       6.60425428       0.04756509        0       1.00000000      -0.03030515       0.01608712       0.30097207
Pt       6.39365309       6.59758362       0.04666991        0       0.00000000       0.01778504       0.06757515      -0.05745031
Ni       8.96782377       6.58646090       0.10060915        1       1.00000000      -0.11004425      -0.14117141      -0.25736485
Ni      11.54900867       6.59727045       0.00000000        0       1.00000000       0.06164387      -0.01357074       0.16165800
Ni       1.28646351       0.75082958       2.09492885        3       1.00000000       0.01193586       0.07334459       0.05538362
Ni       3.84408350       0.73586122       2.14119468        3       1.00000000       0.09238300      -0.00624513       0.13837266
Ni       6.39812616       0.74798628       2.17269649        4       1.00000000      -0.02504710       0.13659728       0.29859887
Pt       8.96796318       0.76910525       2.10970270        3       0.00000000      -0.03689168       0.13616975       0.06983656
Ni       2.54871412       2.95527960       2.14556928        3       1.00000000       0.03273875       0.10720382       0.03313072
Ni       5.12309926       2.95121978       2.17588453        4       1.00000000      -0.03803672       0.02146903       0.13996549
Ni       7.70435880       2.97072460       2.14637170        3       1.00000000       0.07366401       0.11955037       0.11167661
Ni      10.24147699       2.93513172       2.13779700        3       1.00000000      -0.01302312       0.07309408       0.20489333
Ni       3.85478583       5.12640649       2.10374903        3       1.00000000       0.05533523      -0.09977997      -0.11350888
Ni       6.41455337       5.11751122       2.12432014        3       1.00000000       0.04754980      -0.06397127       0.01001342
Ni       8.93154235       5.09763110       2.13367626        3       1.00000000      -0.01852610      -0.09861273       0.11220319
Pt      11.55185795       5.08156890       2.13239960        3       0.00000000       0.00874709      -0.04130304       0.03964035
Ni       5.09959635       7.31631658       2.09920675        3       1.00000000      -0.11532979      -0.11790512      -0.02115333
Ni       7.67104524       7.32146382       2.11196049        3       1.00000000       0.03141600      -0.13354642       0.10478739
Pt      10.26956898       7.34113107       2.07594523        3       0.00000000       0.07633064      -0.04971766       0.04864257
Ni      12.82075275       7.31436051       2.09146586        3       1.00000000       0.07654102      -0.08229073      -0.03472559
Ni      -0.03303855       1.52749796       4.25787055        6       1.00000000      -0.05126520       0.11432888      -0.13121812
Pt       2.55176795       1.55231213       4.16166510        5       0.00000000      -0.03607461       0.02425745       0.01081202
Ni       5.17051003       1.46083162       4.22642511        5       1.00000000       0.04491964      -0.10171478      -0.30918971
Ni       7.66813029       1.46232376       4.25130838        6       1.00000000       0.02831087      -0.08726321      -0.19233080
Ni       1.24832105       3.72527441       4.28044543        6       1.00000000      -0.06376813      -0.01624260      -0.05982927
Ni       3.80781876       3.70533276       4.23204151        5       1.00000000      -0.13515559      -0.02515985      -0.30695767
Pt       6.44530810       3.62037372       4.24906251        5       0.00000000       0.03217808      -0.02587882      -0.06176541
Ni       8.99940364       3.69196389       4.23598999        5       1.00000000       0.12452778       0.03442542      -0.23116546
Ni       2.50227715       5.83643099       4.31051717        6       1.00000000      -0.12367195      -0.06307793      -0.08416217
Pt       5.06856736       5.80793145       4.26154284        6       0.00000000      -0.02743721      -0.03290140      -0.18230117
Ni       7.71338026       5.81400999       4.24434104        5       1.00000000       0.10168247      -0.07907315      -0.30636063
Ni      10.27491762       5.80939469       4.28359073        6       1.00000000       0.01164644      -0.02330320      -0.13523515
Pt       3.74676479       8.05867824       4.21299381        5       0.00000000      -0.07811030      -0.02373744       0.03134489
Pt       6.39174687       8.05689899       4.17203680        5       0.00000000      -0.06866958       0.06836584      -0.14610402
Pt       9.00868194       8.03886479       4.20848871        5       0.00000000       0.01689650      -0.01035724      -0.03847540
Ni      11.52416162       8.04889254       4.23859816        5       1.00000000      -0.06031781      -0.06522731      -0.19820490
Pt      -0.02173094      -0.07035492       6.48474709        9       0.00000000      -0.00376832       0.15740844       0.37694658
Pt       2.55917892      -0.03877690       6.49980377        9       0.00000000       0.07759163       0.05841506       0.50580306
Pt       5.15320490      -0.01998752       6.44032341        8       0.00000000       0.01024427       0.08013688       0.41333030
Pt       7.66490378      -0.06449846       6.45585368        9       0.00000000      -0.03860713       0.05063176       0.35329900
Pt       1.26415387       2.31027065       6.44135942        8       0.00000000      -0.00990012      -0.04999633       0.18956742
Pt       3.90663572       2.31610679       6.34963998        7       0.00000000       0.04652632       0.06315087       0.58222688
Ni       6.40683464       2.22808160       6.33959071        7       1.00000000      -0.03763310      -0.04022248       0.29491628
Pt       8.90356843       2.28728885       6.39195110        8       0.00000000       0.05715836      -0.07990885       0.05107044
Ni       2.55450026       4.48177747       6.38797788        8       1.00000000       0.08590289      -0.02883537      -0.28718377
Ni       5.13406301       4.44316024       6.42464083        8       1.00000000       0.05861514       0.02122896      -0.12321466
Ni       7.63350546       4.40086869       6.40470097        8       1.00000000      -0.16225600       0.03706084      -0.14370983
Ni      10.27689951       4.42330076       6.37954073        8       1.00000000       0.07049020      -0.03979352      -0.23588838
Ni       3.80735070       6.52964163       6.42154004        8       1.00000000      -0.00483200      -0.03610972      -0.18491393
Ni       6.37853562       6.53123858       6.34427990        7       1.00000000       0.07828393      -0.04231498       0.18787581
Pt       8.97270069       6.46104989       6.43079162        8       0.00000000      -0.11176103       0.01278934       0.12465484
Ni      11.55258582       6.52755329       6.37958241        8       1.00000000      -0.00061508       0.02650827      -0.24357311
