64
Lattice="10.285380075306007 -0.00019765288624868133 0.031007670301655563 5.142518865232384 8.882687616437291 0.012080228572305026 0.0 0.0 21.56351012278514" Properties=species:S:1:pos:R:3:tags:I:1:initial_magmoms:R:1:forces:R:3 unique_id=331bc748f2a24c74930f447e4f85bc3e energy=-375.254317106551 stress="0.005703787874790486 0.000100314854925948 0.00022269850191444145 0.000100314854925948 0.005806344620739105 0.00011964821648808159 0.00022269850191444145 0.00011964821648808159 -0.0015900336887022613" pbc="T T T"
Ni       0.01462714      -0.00400447       0.11799846        1       1.00000000       0.10414670       0.01178976      -0.07515177
Ni       2.57208409       0.00885238       0.15137094        2       1.00000000      -0.03567896       0.05640549       0.03361559
Ni       5.14058777      -0.01094520       0.11221110        1       1.00000000      -0.06504888       0.17230614      -0.41045609
Ni       7.71257954      -0.05931770       0.15214717        2       1.00000000      -0.06720196      -0.10051292      -0.17108676
Ni       1.29918231       2.22821934       0.05227286        1       1.00000000       0.04413288       0.00150427       0.42157571
Pt       3.78938359       2.23376523       0.13613053        1       0.00000000      -0.00318623      -0.00242096      -0.27332623
Pt       6.41085901       2.17264260       0.07308395        1       0.00000000       0.01599371      -0.05347188      -0.10007609
Pt       9.09110765       2.22457009       0.08733490        1       0.00000000      -0.03408767       0.10839621      -0.57242321
Ni       2.57505595       4.47177792       0.01557082        0       1.00000000       0.10497221       0.00775858       0.26995115
Ni       5.10139913       4.46683683       0.15143722        2       1.00000000      -0.09064853       0.02803598      -0.07222427
Pt       7.72048747       4.47930679       0.00000000        0       0.00000000      -0.08977504      -0.01029122      -0.29194905
Ni      10.34588115       4.46878103       0.03452973        0       1.00000000       0.09407041      -0.00448347       0.16555696
Ni       3.81921857       6.65926547       0.06235008        1       1.00000000      -0.03791609      -0.01260897       0.41976829
Pt       6.39590785       6.72463081       0.14969837        1       0.00000000      -0.01152126       0.05683150      -0.50098888
Ni       9.03157495       6.69201545       0.03400632        0       1.00000000      -0.10114667       0.04901454       0.06175382
Ni      11.59951824       6.66221938       0.03811843        0       1.00000000       0.13233440       0.03284012       0.22133250
Ni       1.32555079       0.75162307       2.17169888        4       1.00000000       0.07632626       0.08679633       0.19667554
Ni       3.83232850       0.77374914       2.18778964        4       1.00000000      -0.06278853       0.15144902       0.24082773
Ni       6.42386670       0.77530207       2.19191324        4       1.00000000      -0.06251008       0.19393385       0.23625771
Pt       9.02191770       0.73706064       2.20720803        4       0.00000000       0.05561169       0.15602385       0.00604641
Ni       2.57459920       2.93112804       2.22430693        4       1.00000000       0.01422455      -0.12673644       0.28585635
Ni       5.12529651       2.96690238       2.20920016        4       1.00000000      -0.12305591      -0.02679921       0.21400709
Ni       7.69745429       2.94027284       2.21021411        4       1.00000000      -0.00062394      -0.04187935       0.13512578
Ni      10.34326540       2.93542968       2.22774407        4       1.00000000       0.18690218      -0.10661123       0.22439788
Ni       3.88537569       5.16765271       2.14115010        3       1.00000000       0.02348990      -0.10901053      -0.03268366
Ni       6.39788357       5.16776998       2.17283468        4       1.00000000       0.04698172      -0.13429364       0.00256484
Pt       8.96700372       5.14996969       2.21840057        4       0.00000000      -0.05680699      -0.13707559      -0.07475915
Pt      11.66507864       5.12899947       2.16130484        4       0.00000000       0.09435665      -0.08744072       0.06086512
Ni       5.14565694       7.39862573       2.17483155        4       1.00000000       0.00679450       0.02043303       0.12255218
Ni       7.68113631       7.44220683       2.19303619        4       1.00000000      -0.15124927       0.08397584       0.19810449
Pt      10.29356701       7.44644941       2.09473553        3       0.00000000       0.02749031      -0.04107288      -0.10713788
Ni      12.89775208       7.37608155       2.15040688        4       1.00000000       0.13591645      -0.08976332       0.03981110
Ni       0.07223406       1.52670739       4.28152714        6       1.00000000       0.18874925       0.04100874      -0.20149899
Ni       2.53871116       1.52437313       4.26422315        6       1.00000000      -0.09145602       0.03318503      -0.27418956
Ni       5.13823961       1.50522772       4.28367053        6       1.00000000      -0.13974218       0.01660984      -0.33764710
Ni       7.73305820       1.49983122       4.31469810        6       1.00000000       0.03951147      -0.08382946      -0.25117523
Ni       1.32389858       3.64910662       4.33756380        6       1.00000000       0.07922788      -0.12165515      -0.09980876
Ni       3.81515920       3.69025873       4.26498182        6       1.00000000      -0.10031470      -0.07475700      -0.32149534
Pt       6.47410201       3.64408764       4.27686911        6       0.00000000      -0.05012177      -0.03951608      -0.07965122
Ni       9.03036541       3.67655420       4.30635775        6       1.00000000       0.08998870      -0.18032305      -0.31766957
Ni       2.58677105       5.86571802       4.35078657        7       1.00000000       0.03952985      -0.14149621      -0.03193862
Pt       5.13455006       5.88650155       4.22117018        5       0.00000000      -0.02390295      -0.14598662      -0.05715033
Ni       7.73067842       5.90425556       4.32420158        6       1.00000000      -0.09529995      -0.02231718      -0.21266026
Pt      10.31164517       5.83244937       4.43663950        7       0.00000000       0.07650694      -0.03982044       0.06743359
Pt       3.90575689       8.14458569       4.29338538        6       0.00000000       0.03094837       0.02399898       0.08624908
Ni       6.44214881       8.17834994       4.26946758        6       1.00000000      -0.06779686       0.11250308      -0.33268033
Pt       8.93175863       8.17324878       4.27325881        6       0.00000000      -0.11964291       0.10595161       0.01263321
Pt      11.59538120       8.16293807       4.28062902        6       0.00000000       0.02626602       0.03946877      -0.05758140
Pt       0.02197921       0.01924477       6.49646911        9       0.00000000       0.06813895       0.13158131       0.30529858
Pt       2.57295787       0.01514335       6.51885667        9       0.00000000      -0.02248883       0.02604012       0.23785191
Pt       5.15893036      -0.04783714       6.53614593        9       0.00000000      -0.02082999       0.13675512       0.36384289
Pt       7.72140931      -0.03694160       6.56351012       10       0.00000000      -0.03663579       0.17096424       0.37470942
Ni       1.29093758       2.28525730       6.43762425        8       1.00000000      -0.07449695       0.16122881      -0.32577650
Pt       3.81861941       2.26288141       6.37001646        8       0.00000000       0.02816167       0.03061433       0.31626701
Ni       6.45451505       2.22358290       6.40842368        8       1.00000000      -0.04127115      -0.09034606       0.11505047
Pt       9.02740950       2.31370174       6.37386836        8       0.00000000       0.01599909      -0.06006908       0.49203197
Ni       2.52862770       4.46604236       6.44917609        8       1.00000000      -0.04893125       0.01546430      -0.39060794
Pt       5.12934389       4.43942898       6.52784765        9       0.00000000      -0.08068441      -0.07368210       0.09025605
Ni       7.76718193       4.44793523       6.38391632        8       1.00000000       0.04495807       0.09874995       0.08291954
Ni      10.33339469       4.44551439       6.50589017        9       1.00000000       0.06212898      -0.10477710      -0.15691040
Ni       3.82294889       6.61962889       6.48614220        9       1.00000000      -0.06754605      -0.08001036      -0.23377171
Pt       6.49415547       6.61953940       6.41936108        8       0.00000000       0.05394834       0.05654899       0.44565665
Ni       9.04451670       6.59750041       6.50368518        9       1.00000000      -0.01176256      -0.09117307      -0.05334740
Ni      11.59870033       6.59038702       6.51868295        9       1.00000000       0.07836225       0.01606358      -0.12902291
