64
Lattice="9.886150002606096 -0.010753869206598491 0.02000575896132981 4.933761877381159 8.546249194956259 -0.0019550676063234055 0.0 0.0 21.278823258863845" Properties=species:S:1:pos:R:3:tags:I:1:initial_magmoms:R:1:forces:R:3 unique_id=9c82512554514a8d84ea5d593b010fc4 energy=-357.3656931998518 stress="0.0032069875243357065 -2.497235865428143e-05 6.498257974790151e-05 -2.497235865428143e-05 0.002977455991865956 -8.346255828090665e-05 6.498257974790151e-05 -8.346255828090665e-05 -0.0028592350596049164" pbc="T T T"
Ni       0.00148776      -0.00309347       0.14858423        1       1.00000000      -0.01668904      -0.00889100      -0.54827922
Ni       2.47171128      -0.00821620       0.18258061        2       1.00000000       0.00799005      -0.04593906      -0.74449276
Ni       4.94597289      -0.00621288       0.04146792        0       1.00000000      -0.01508169      -0.00276580       0.04135046
Ni       7.41257491       0.02178618       0.01520887        0       1.00000000       0.02692456       0.04981267      -0.07494165
Ni       1.23213561       2.13562234       0.05340633        1       1.00000000      -0.01677223      -0.07428631      -0.08540301
Ni       3.71213113       2.13228928       0.04393336        0       1.00000000       0.03144997      -0.02133184       0.00177991
Ni       6.17606681       2.13560048       0.04288149        0       1.00000000       0.01112938       0.01677312       0.09236865
Ni       8.64687021       2.13341000       0.04850770        0       1.00000000      -0.01803074      -0.01567604       0.07032557
Ni       2.47099074       4.26440865       0.03350165        0       1.00000000       0.03335385       0.02836943      -0.05960414
Ni       4.94745504       4.26004322       0.03794095        0       1.00000000       0.02791098      -0.00304727       0.10691087
Ni       7.41108388       4.26302260       0.04489973        0       1.00000000      -0.00947418      -0.00600059       0.11414798
Ni       9.87411325       4.25421537       0.05396432        1       1.00000000      -0.04941838       0.02446952      -0.07166334
Ni       3.73126796       6.38593314       0.00000000        0       1.00000000       0.05614331      -0.00777581      -0.06516426
Ni       6.18195569       6.39423773       0.04925438        0       1.00000000       0.01355510       0.01624624       0.09706856
Ni       8.63540042       6.39519229       0.04743180        0       1.00000000      -0.01506661       0.00842194       0.08925763
Ni      11.08918333       6.38471114       0.00170974        0       1.00000000      -0.03140900      -0.01573800      -0.09373083
Ni       1.21694689       0.70544124       2.05874437        4       1.00000000      -0.02775349       0.00968044       0.14341873
Ni       3.75435006       0.69771040       2.03871912        3       1.00000000       0.06708002       0.01184585       0.04951384
Ni       6.16734653       0.74507149       2.07171908        4       1.00000000       0.03752365       0.02720187       0.03116637
Ni       8.65390627       0.74671368       2.08699599        4       1.00000000      -0.06143342       0.03030439       0.06416965
Ni       2.48979091       2.85501732       2.00381633        3       1.00000000       0.02059851      -0.03674008       0.02604635
Ni       4.95540241       2.84612640       2.07055660        4       1.00000000       0.03184089       0.01394778       0.04468080
Ni       7.40789152       2.84789884       2.07498205        4       1.00000000      -0.03294296       0.02235651       0.02815951
Ni       9.86011232       2.83347819       2.04702273        3       1.00000000      -0.04605204       0.00024405       0.03695272
Ni       3.73713017       4.94755364       2.06050317        4       1.00000000       0.03551620      -0.00259114       0.02648122
Ni       6.18461226       4.97016974       2.07319043        4       1.00000000       0.01362213      -0.03462474       0.04099513
Ni       8.63645045       4.97343987       2.07349952        4       1.00000000      -0.03852073      -0.01324229       0.02640772
Ni      11.09018071       4.96368208       2.02756209        3       1.00000000      -0.03063112       0.00357499      -0.04422170
Ni       4.98297975       7.09921261       2.07239930        4       1.00000000       0.02481488      -0.05383436       0.11437983
Ni       7.41234725       7.09400195       2.08532561        4       1.00000000      -0.01199607      -0.03527297       0.13990796
Ni       9.83941691       7.11027396       2.06189968        4       1.00000000      -0.02286240      -0.00340781       0.01481966
Pt      12.35170138       7.11302716       2.06582876        4       0.00000000       0.03030594       0.01059432      -0.10545178
Ni      -0.05469408       1.41611682       4.09206516        5       1.00000000      -0.01648834      -0.00550030      -0.04181769
Pt       2.51894606       1.39293091       4.08486712        5       0.00000000      -0.03598490       0.03246642       0.09984719
Ni       5.01250206       1.41979553       4.13400763        5       1.00000000       0.02997856       0.01723473      -0.03293559
Ni       7.41277645       1.41794545       4.13466761        5       1.00000000      -0.00179948       0.01589378      -0.04010639
Pt       1.20347092       3.61980097       4.11298904        5       0.00000000      -0.01185500      -0.03964729       0.05588929
Ni       3.77347727       3.59436370       4.12628368        5       1.00000000       0.01512923      -0.00508704      -0.04684651
Ni       6.18660311       3.55515281       4.12953313        5       1.00000000      -0.00462313       0.00724365      -0.04622980
Ni       8.59196495       3.55913295       4.13014073        5       1.00000000      -0.02616154       0.01385094      -0.05863337
Ni       2.50000499       5.72269470       4.14967039        5       1.00000000       0.03352963       0.03060587      -0.06898135
Ni       4.95363723       5.68092331       4.12104131        5       1.00000000       0.03114939       0.01264273      -0.04186168
Ni       7.41226171       5.67357672       4.12601020        5       1.00000000      -0.02741889       0.01467180      -0.02347658
Ni       9.85829553       5.72918039       4.12646641        5       1.00000000      -0.03519211       0.00695658      -0.11193306
Ni       3.69518214       7.82665336       4.11343691        5       1.00000000       0.04613356       0.04124952      -0.03358029
Ni       6.16351276       7.76454201       4.09036760        5       1.00000000       0.01197343      -0.00405272      -0.00046101
Ni       8.69033023       7.77507949       4.10087704        5       1.00000000      -0.05478299       0.01841801      -0.02274758
Ni      11.10917385       7.83300666       4.15524233        6       1.00000000       0.00685977       0.03360547      -0.07458638
Pt      -0.06097953      -0.00777920       6.21382415        8       0.00000000       0.15980844       0.01217209       0.33214217
Pt       2.55704001      -0.05544362       6.27882326        9       0.00000000      -0.13318308      -0.08558683       0.55879220
Ni       5.01631342      -0.01252075       6.16667991        8       1.00000000      -0.09900343       0.02203090      -0.02570227
Ni       7.36551976      -0.01234875       6.15873776        8       1.00000000       0.09282342       0.04482782       0.02976112
Ni       1.23446789       2.18704955       6.20944874        8       1.00000000      -0.01548713      -0.12126790       0.22787597
Ni       3.77047053       2.18385742       6.18724671        8       1.00000000       0.03469709      -0.03849356       0.07220024
Ni       6.19462053       2.13821918       6.16879304        8       1.00000000      -0.00181507       0.04709987      -0.08509485
Ni       8.61445626       2.17623644       6.17047726        8       1.00000000       0.00365348      -0.02487161      -0.03295432
Ni       2.49833357       4.28823188       6.19376297        8       1.00000000       0.01733369       0.01392353       0.01994601
Ni       4.96066196       4.26460677       6.16527658        8       1.00000000      -0.00505414      -0.03511256      -0.08369145
Ni       7.40999685       4.25881630       6.16945659        8       1.00000000      -0.00946193      -0.01714033      -0.08792208
Ni       9.86224430       4.28151536       6.21624342        8       1.00000000      -0.02510098       0.00265693       0.02625411
Ni       3.68179562       6.35401242       6.14771018        7       1.00000000       0.05914317       0.02406227       0.07487232
Ni       6.17636988       6.32074895       6.15988468        8       1.00000000       0.01785639       0.11163665      -0.01416126
Ni       8.69001308       6.33458592       6.16613665        8       1.00000000      -0.05018667       0.02980715      -0.02408075
Ni      11.12522786       6.39385512       6.15892777        8       1.00000000      -0.03209576      -0.06897456      -0.00713282
