64
Lattice="10.21492008938541 -0.020838225635096668 0.014920314281850346 5.0894136119229145 8.83312083360649 -0.022545431847660183 0.0 0.0 21.619393846801348" Properties=species:S:1:pos:R:3:tags:I:1:initial_magmoms:R:1:forces:R:3 unique_id=fd6f653b0df5455fafc8d524b91c73b1 energy=-370.68651570793867 stress="0.0040466281423236355 -0.00011280228158592971 0.00019160678011742209 -0.00011280228158592971 0.003879493515835771 -0.0003481436478803055 0.00019160678011742209 -0.0003481436478803055 -0.002677494845013076" pbc="T T T"
Ni       0.02437255       0.03638061       0.18915763        2       1.00000000       0.20621301       0.05363876      -0.63800039
Ni       2.57475664       0.02926144       0.24970894        2       1.00000000       0.00053590      -0.02493630      -0.28896397
Ni       5.08418642      -0.03050320       0.11388761        1       1.00000000      -0.03912046       0.08683788       0.22076915
Ni       7.66369435      -0.03983596       0.09289642        1       1.00000000      -0.05388613       0.08437785       0.01100368
Ni       1.27664017       2.21526350       0.14219001        1       1.00000000       0.02899000       0.03131233       0.36769062
Ni       3.78832436       2.20356829       0.23290232        2       1.00000000       0.05242727       0.02964280      -0.11355343
Pt       6.37740143       2.24865228       0.19528983        2       0.00000000      -0.03243953       0.09919916      -1.03485871
Ni       8.97918921       2.22905232       0.10604226        1       1.00000000      -0.01277378       0.08787798       0.15865420
Ni       2.55800382       4.38887193       0.09354742        1       1.00000000       0.01703919      -0.09596523       0.21127908
Ni       5.04281616       4.40544574       0.10580369        1       1.00000000      -0.13485234      -0.00940484       0.13740242
Ni       7.72047080       4.39205649       0.10578152        1       1.00000000       0.16329123      -0.01788516       0.07419270
Ni      10.19660544       4.37180132       0.10050811        1       1.00000000      -0.00923481       0.00957810       0.16803917
Ni       3.79170081       6.59129924       0.05951370        1       1.00000000       0.01823112      -0.10174380       0.03744514
Pt       6.41358522       6.61234598       0.00000000        0       0.00000000       0.12955800       0.11678026      -0.48586834
Ni       8.94121504       6.59193190       0.16844621        2       1.00000000      -0.04066886      -0.11321950      -0.20076775
Ni      11.47250109       6.59430037       0.06214141        1       1.00000000      -0.08239176      -0.09459655       0.09146101
Ni       1.33067973       0.77964494       2.19640989        3       1.00000000       0.01935451       0.10265849       0.05039736
Ni       3.78841836       0.74611810       2.21353793        3       1.00000000      -0.00440736      -0.01180470       0.09786215
Pt       6.30358974       0.74793532       2.29720157        4       0.00000000      -0.10889447       0.06021891       0.12501443
Pt       8.99547679       0.80919497       2.19318908        3       0.00000000      -0.03394749      -0.00652392      -0.00321812
Ni       2.56885606       2.91559340       2.19355858        3       1.00000000      -0.06070858       0.01821800       0.02004955
Ni       5.01824278       2.94742770       2.26007769        4       1.00000000      -0.13930656       0.01424817       0.22593788
Ni       7.71830426       2.96904572       2.24287620        3       1.00000000       0.13439681       0.04414432       0.14474464
Ni      10.21869726       2.92927750       2.22313087        3       1.00000000       0.04909122      -0.03749809       0.05673789
Ni       3.82393710       5.07319275       2.22601633        3       1.00000000      -0.01729359      -0.10314067       0.04558683
Pt       6.41159496       5.08937781       2.21321761        3       0.00000000       0.02553572      -0.12625089       0.00869792
Ni       8.92489565       5.08649569       2.23630853        3       1.00000000       0.02180759      -0.11000908       0.07042134
Pt      11.47042997       5.03944482       2.18601315        3       0.00000000       0.00671662      -0.05969898      -0.03747073
Pt       5.12315522       7.33716764       2.19079595        3       0.00000000       0.03197828      -0.06124032      -0.03343885
Ni       7.65937446       7.36700153       2.22000405        3       1.00000000      -0.05330138      -0.02627116       0.12354337
Pt      10.10077445       7.31983203       2.25003155        4       0.00000000      -0.11152752      -0.06973861       0.09682651
Pt      12.73980685       7.29528920       2.18669941        3       0.00000000      -0.00751690      -0.01924388      -0.00770749
Ni       0.01753075       1.49076222       4.40670377        6       1.00000000       0.09574853      -0.05257281      -0.09809696
Pt       2.59811024       1.47539516       4.29999072        5       0.00000000       0.06101586       0.00331837      -0.00369687
Ni       5.09287241       1.42580261       4.40645829        6       1.00000000      -0.05785429       0.01729082      -0.00019248
Pt       7.71595980       1.46532845       4.41253973        6       0.00000000       0.08251415       0.05347371       0.17021020
Pt       1.24338138       3.70587486       4.44436014        6       0.00000000      -0.01713902      -0.01197758       0.03224148
Ni       3.82683596       3.72109130       4.37116865        6       1.00000000      -0.06388976       0.04270628      -0.10438137
Pt       6.35441144       3.71276744       4.40251400        6       0.00000000      -0.04466947       0.08383192      -0.05475132
Ni       8.94440713       3.69777249       4.40877022        6       1.00000000      -0.01616032       0.14249993      -0.05893858
Ni       2.53737054       5.84654706       4.42937247        6       1.00000000      -0.11240970      -0.06836096      -0.07852094
Ni       5.05574980       5.83532621       4.42265191        6       1.00000000      -0.06893900      -0.04979293      -0.14530058
Ni       7.71393449       5.84669448       4.38153590        6       1.00000000       0.19295644      -0.02347844      -0.21337043
Ni      10.20604339       5.87108424       4.39648058        6       1.00000000      -0.01861341      -0.00984845      -0.09404711
Pt       3.76642620       7.99973977       4.43165073        6       0.00000000      -0.02518334      -0.04986205       0.01389641
Pt       6.42729253       8.01781465       4.35564159        6       0.00000000       0.10313721      -0.01704954      -0.05398965
Ni       8.97661782       8.05661859       4.38579490        6       1.00000000      -0.00394178       0.02529958      -0.02499166
Ni      11.42669130       8.03385875       4.44806195        6       1.00000000      -0.08257980      -0.02634718       0.03270517
Pt      -0.05549551       0.01580562       6.61443076        9       0.00000000      -0.01123000       0.00929163       0.35789388
Pt       2.59049275      -0.03337790       6.61939385        9       0.00000000       0.02058976      -0.09441162       0.24353508
Ni       5.15953287      -0.06322006       6.52121665        8       1.00000000      -0.01496748       0.04426814      -0.10368285
Ni       7.62291537      -0.08534753       6.56335602        9       1.00000000      -0.02385936      -0.01781443       0.02858187
Ni       1.24138001       2.23678818       6.54963209        8       1.00000000       0.00620165      -0.04398970      -0.08432286
Pt       3.80961616       2.28830255       6.57909456        9       0.00000000       0.13204575       0.19067332       0.09039988
Pt       6.41898816       2.17599308       6.52977717        8       0.00000000      -0.15640101       0.03513471       1.21626703
Ni       8.97478780       2.23026431       6.54717941        8       1.00000000       0.02999428       0.13409921      -0.08102946
Ni       2.54088313       4.46287076       6.52915391        8       1.00000000       0.00269798       0.09065254      -0.17686109
Ni       5.08864603       4.47214852       6.52715286        8       1.00000000      -0.05997663      -0.03779293      -0.12531029
Ni       7.67718325       4.39554716       6.53100067        8       1.00000000       0.04902627      -0.06169283      -0.15213330
Ni      10.22148662       4.36207380       6.54633000        8       1.00000000      -0.01958534       0.06029778      -0.11976873
Ni       3.79420352       6.54871028       6.51992553        8       1.00000000       0.02234287      -0.00216522      -0.14179152
Ni       6.34983670       6.53666324       6.40548465        7       1.00000000       0.05996180      -0.04036849       0.39300487
Pt       8.98965008       6.52392470       6.51768064        8       0.00000000      -0.03961477       0.01347978      -0.06280167
Ni      11.52460127       6.58676062       6.50342560        8       1.00000000       0.01588699      -0.08835392      -0.30066542
