64
Lattice="10.341839608097356 -0.04381656423199498 0.01339154735211887 5.132973546317225 8.906752991639069 -0.03665476229202588 0.010934152626336815 -0.04087127726813894 8.821343370786748" Properties=species:S:1:pos:R:3:tags:I:1:initial_magmoms:R:1:forces:R:3 unique_id=70ccfcab0a61465fb93af5477ed8eabb stress="0.0002797263744742859 2.7125668712997487e-06 -1.5715025906075497e-05 2.7125668712997487e-06 0.00028197429277362906 1.765607061079314e-05 -1.5715025906075497e-05 1.765607061079314e-05 0.00026918395276238904" energy=-398.97846673463727 pbc="T T T"
Ni       0.00446769       0.01459249       0.18107706        4       1.00000000       0.03649214       0.01651197       0.24809228
Ni       2.55400262      -0.00386944       0.20815488        4       1.00000000      -0.06798768       0.05714594       0.41644101
Pt       5.16165730      -0.05725881       0.15090321        4       0.00000000      -0.02952520      -0.05292142       0.32119333
Ni       7.78465198      -0.07617822       0.19332737        4       1.00000000       0.00970021      -0.14053139       0.32729821
Ni       1.24791622       2.22819829       0.09816132        4       1.00000000      -0.14756672       0.00419769       0.24913816
Pt       3.78236276       2.26297411       0.11281915        4       0.00000000      -0.08566992       0.07917816      -0.10033501
Pt       6.49429804       2.19963294       0.19725712        4       0.00000000       0.08522669       0.05713276       0.21044969
Ni       9.08488242       2.18948310       0.15582632        4       1.00000000       0.11311447       0.05120382       0.14739479
Ni       2.56140530       4.46769532       0.05545476        4       1.00000000       0.08317939       0.04761612       0.02062467
Ni       5.11963068       4.46072979       0.16959836        4       1.00000000      -0.02661589       0.04863656       0.33696152
Pt       7.81518217       4.44631308       0.09857890        4       0.00000000       0.11102622       0.00112101      -0.09064335
Ni      10.35185773       4.40439887       0.06619075        4       1.00000000       0.11726528      -0.10435481       0.13228140
Ni       3.81975252       6.67072973       0.16610312        4       1.00000000      -0.05078304      -0.06986548       0.30679554
Pt       6.40505132       6.70285268       0.16958441        4       0.00000000      -0.07105367      -0.01258049       0.05954553
Ni       9.03301366       6.63616867       0.06050065        4       1.00000000       0.02949563      -0.03842880       0.12098406
Ni      11.63323763       6.61447959       0.05683495        4       1.00000000       0.10516295      -0.06350105       0.04234400
Ni       1.30294694       0.74699472       2.17447715        3       1.00000000      -0.01321797       0.13665751      -0.04191433
Ni       3.85797343       0.75225021       2.22290052        3       1.00000000       0.06934246       0.05336694      -0.02968972
Ni       6.47010187       0.73706480       2.26457744        3       1.00000000      -0.04172067       0.11259516       0.09310386
Pt       9.06068889       0.73432152       2.19943364        3       0.00000000       0.00920727       0.09002143       0.13790870
Ni       2.57856945       2.94877026       2.20935919        3       1.00000000      -0.00440820       0.03258087       0.02436616
Ni       5.13138530       2.96215268       2.23844212        3       1.00000000      -0.17628860       0.01000443      -0.00194040
Ni       7.77735224       2.95306142       2.25198049        3       1.00000000       0.16031502       0.06023441      -0.01470370
Ni      10.33022378       2.91651792       2.19876179        3       1.00000000       0.05374858       0.04652310       0.03813721
Ni       3.89333993       5.17811674       2.20204673        3       1.00000000       0.08930109      -0.05200394       0.11476004
Ni       6.42714367       5.17228458       2.22337538        3       1.00000000      -0.03671562       0.10282358      -0.06853053
Ni       9.00311700       5.12899966       2.22830086        3       1.00000000      -0.05244646      -0.17438880       0.15731020
Pt      11.67042624       5.09824371       2.14030555        3       0.00000000       0.12538516      -0.11850473       0.01933018
Ni       5.11859016       7.37770281       2.17942358        3       1.00000000      -0.12944081      -0.13844923      -0.06556012
Ni       7.71769710       7.39103506       2.17646586        3       1.00000000       0.00225654      -0.11664955      -0.11848084
Pt      10.29036299       7.33301073       2.16489228        3       0.00000000      -0.00028603      -0.10643537      -0.29496665
Ni      12.92815468       7.35230724       2.14940470        3       1.00000000       0.02405626      -0.10970703      -0.03397501
Ni      -0.01702005       1.49851413       4.35227132        2       1.00000000      -0.00006333       0.02285874      -0.12979974
Pt       2.61596192       1.51336791       4.31718078        2       0.00000000      -0.00290193      -0.01318037      -0.08875173
Ni       5.17038662       1.48452577       4.33416119        2       1.00000000       0.05143090       0.09278325      -0.20854469
Ni       7.77581657       1.47089876       4.34347132        2       1.00000000       0.05903441       0.08858493      -0.10441970
Pt       1.27798895       3.68581796       4.40369291        2       0.00000000      -0.04243062      -0.06341792      -0.06370454
Ni       3.87864489       3.71386074       4.33757340        2       1.00000000       0.00848336       0.10248216      -0.25407447
Pt       6.46569601       3.70099771       4.25271303        2       0.00000000      -0.08193810      -0.05745579       0.06442254
Ni       9.02086872       3.64467923       4.34603691        2       1.00000000      -0.01504561      -0.09155944      -0.29363714
Ni       2.59063030       5.88073395       4.34584081        2       1.00000000       0.04282947      -0.08970835      -0.17557899
Ni       5.12813097       5.86814853       4.30271001        2       1.00000000      -0.06690178      -0.07627184      -0.18709793
Ni       7.73917026       5.85347421       4.32509859        2       1.00000000      -0.05117357      -0.03610502      -0.27214978
Pt      10.27913960       5.83137115       4.42902849        2       0.00000000      -0.02838536      -0.01028428      -0.03295740
Pt       3.85585617       8.11677991       4.27004242        2       0.00000000      -0.04005237      -0.11437455       0.12176495
Pt       6.41315720       8.10506923       4.22006552        2       0.00000000      -0.05401664      -0.03568270      -0.04609214
Pt       8.98301401       8.11250285       4.29129002        2       0.00000000      -0.01002929       0.03021411       0.04962203
Pt      11.63962754       8.13721633       4.28522664        2       0.00000000       0.02905780       0.04460526       0.01110226
Pt       0.03161028       0.02217989       6.59707872        1       0.00000000      -0.00155967       0.04832084       0.08516975
Pt       2.60364480       0.01998952       6.62778227        1       0.00000000      -0.00692950       0.10581588       0.23874321
Pt       5.16133616      -0.09116658       6.50540415        1       0.00000000      -0.00076368      -0.09636568      -0.38302479
Pt       7.75659479      -0.06929812       6.61775951        1       0.00000000       0.02814487       0.03539409       0.11871961
Ni       1.31550844       2.26095817       6.54407368        1       1.00000000       0.07416307       0.13852533      -0.03774121
Ni       3.84009467       2.22330733       6.46701838        1       1.00000000      -0.06837730       0.05901152      -0.27111336
Pt       6.45904110       2.20252807       6.46459950        1       0.00000000       0.01946249       0.10014051      -0.20663238
Pt       9.11069482       2.28459468       6.52772990        1       0.00000000       0.13127475       0.15763889       0.03853204
Ni       2.52300217       4.40060466       6.52747849        1       1.00000000      -0.15013604      -0.03893427      -0.13738846
Pt       5.09089718       4.37453502       6.53044937        1       0.00000000      -0.10096317      -0.05061325       0.07982926
Ni       7.79512215       4.43214363       6.44891305        1       1.00000000       0.08816683       0.08624422      -0.31844093
Ni      10.34964754       4.42880094       6.55664723        1       1.00000000       0.07226602       0.15891941       0.02356655
Pt       3.77978178       6.58795822       6.53961824        1       0.00000000      -0.11554467      -0.02474293       0.17212036
Pt       6.50698902       6.58350525       6.45482052        1       0.00000000       0.00004400      -0.00235798      -0.25546641
Ni       9.05130635       6.57520506       6.53592152        1       1.00000000      -0.01501725      -0.08105996      -0.07256232
Ni      11.58604491       6.55899522       6.54108718        1       1.00000000      -0.04267699      -0.09865418      -0.12813533
