64
Lattice="10.360957105626548 0.0035458583632142753 0.03741541941989319 5.183549356234042 8.889301419139084 -0.0020242117650036045 0.03054956203031962 -0.01954624301595251 8.840315699970418" Properties=species:S:1:pos:R:3:tags:I:1:initial_magmoms:R:1:forces:R:3 unique_id=135fd72d0c994882aa04739138ecfcfd stress="0.00030876572779842126 2.33880088301539e-06 -1.6467461183744632e-05 2.33880088301539e-06 0.00031838449207186037 1.7967470124396334e-05 -1.6467461183744632e-05 1.7967470124396334e-05 0.00029459515654357143" energy=-399.2904027883885 pbc="T T T"
Ni       0.01443545      -0.00249208       0.18076678        4       1.00000000       0.04647671       0.04941297       0.33667459
Ni       2.59199899       0.01001138       0.21145796        4       1.00000000       0.03413293       0.04490205       0.41874502
Ni       5.18055483      -0.01084446       0.17242267        4       1.00000000      -0.05138053       0.11938384       0.23952071
Ni       7.76936641      -0.05240021       0.21052506        4       1.00000000      -0.00255255      -0.11189033       0.40002959
Ni       1.30915891       2.22767905       0.10483526        4       1.00000000       0.04566055       0.01818231       0.23651018
Pt       3.82119333       2.22962560       0.19013325        4       0.00000000      -0.03716953       0.06620233       0.08803933
Pt       6.46128418       2.17354662       0.13033729        4       0.00000000       0.04569479      -0.09433720      -0.05567398
Pt       9.15740603       2.22707828       0.14662236        4       0.00000000       0.14629047      -0.01710307       0.09579480
Ni       2.57699151       4.46679817       0.05158376        4       1.00000000      -0.01755284       0.03789658      -0.06737996
Ni       5.16736279       4.45654050       0.16631530        4       1.00000000       0.10138346      -0.07489696       0.21981316
Pt       7.78356192       4.48253594       0.05685658        4       0.00000000       0.05821107       0.06912447      -0.18744613
Ni      10.41661893       4.47129357       0.08403555        4       1.00000000       0.12718227       0.07150362       0.07764796
Ni       3.85490278       6.68147072       0.08619409        4       1.00000000      -0.07568470       0.07105643       0.12631490
Pt       6.45214384       6.73020382       0.20401332        4       0.00000000      -0.04066657       0.03161039       0.16376075
Ni       9.09755801       6.69731337       0.08729396        4       1.00000000       0.00340542       0.05047435       0.06219190
Ni      11.68187924       6.67101135       0.08630779        4       1.00000000       0.12880789      -0.01800489       0.02043830
Ni       1.33195571       0.77124434       2.20075829        3       1.00000000       0.04979600       0.18923520      -0.03964626
Ni       3.86606094       0.77115662       2.25297328        3       1.00000000      -0.05332873       0.16055226       0.12839833
Ni       6.47546355       0.77149923       2.26086235        3       1.00000000      -0.03737943       0.12094797       0.14262650
Pt       9.08064301       0.74099866       2.27872151        3       0.00000000       0.01768045       0.21516127      -0.01692050
Ni       2.57714367       2.91086880       2.28043026        3       1.00000000      -0.04189329      -0.09931576       0.19787134
Ni       5.18878867       2.92994693       2.27389777        3       1.00000000      -0.09752855      -0.13383133       0.07501898
Ni       7.75765362       2.94116882       2.27707352        3       1.00000000       0.04386204      -0.07495111      -0.09604997
Ni      10.41339015       2.93195367       2.29167912        3       1.00000000       0.10957618      -0.08130562       0.13765316
Pt       3.91512524       5.15837975       2.17943668        3       0.00000000      -0.08632466      -0.09586800      -0.03021110
Ni       6.48235313       5.16811966       2.24345504        3       1.00000000       0.04913568      -0.03522977      -0.04236650
Pt       9.03027926       5.14963278       2.28274994        3       0.00000000      -0.10673855      -0.11310981      -0.09586052
Pt      11.68715883       5.12672543       2.21997176        3       0.00000000      -0.00062789      -0.09382652       0.05568008
Ni       5.18655267       7.41634865       2.21542805        3       1.00000000      -0.09409229      -0.01396738       0.00198616
Ni       7.77131093       7.43614761       2.22198055        3       1.00000000       0.04586352       0.02264451      -0.02027313
Pt      10.37224875       7.45717636       2.14640976        3       0.00000000       0.02996708      -0.05930616      -0.07553762
Ni      12.97334115       7.40302604       2.20969182        3       1.00000000       0.02280649      -0.10836929      -0.02295453
Ni       0.05047245       1.54645119       4.36139398        2       1.00000000       0.11372339       0.17296064      -0.13057148
Ni       2.58434902       1.54249852       4.34752227        2       1.00000000      -0.04308131       0.10507281      -0.20693248
Ni       5.18601381       1.50425266       4.36571376        2       1.00000000      -0.10916043       0.03673957      -0.18095543
Ni       7.79052382       1.49760363       4.39536706        2       1.00000000       0.05092716      -0.05754419      -0.10093590
Ni       1.33515267       3.64479756       4.41193133        2       1.00000000       0.06810244      -0.08658817      -0.07713023
Ni       3.84829293       3.67379539       4.35912927        2       1.00000000      -0.10792621      -0.07720691      -0.21503832
Pt       6.53329137       3.63288469       4.35569032        2       0.00000000      -0.04631574      -0.02622154      -0.04184772
Ni       9.09716677       3.67530777       4.38794773        2       1.00000000       0.07272082      -0.16119097      -0.27492858
Ni       2.59571382       5.86170674       4.43658857        2       1.00000000      -0.01869172      -0.14932466      -0.01183771
Pt       5.17492987       5.87169958       4.35083009        2       0.00000000       0.07730401      -0.06657216       0.06998044
Ni       7.80439998       5.88636041       4.40722824        2       1.00000000      -0.01172590       0.01839897      -0.09887688
Pt      10.39236681       5.82444694       4.51634161        2       0.00000000       0.06433188      -0.04174551       0.02426506
Pt       3.89356971       8.14203993       4.36173739        2       0.00000000      -0.07129788      -0.05026397       0.17631585
Pt       6.50077142       8.20928073       4.27066522        2       0.00000000       0.00292411       0.11813862       0.02776717
Pt       9.06908860       8.17797303       4.35374931        2       0.00000000      -0.08950755       0.08238714       0.06319285
Pt      11.68549967       8.16483221       4.35246998        2       0.00000000       0.05780030       0.03884120       0.02091904
Pt       0.01730759       0.00595063       6.61080114        1       0.00000000      -0.00115891       0.04817570       0.16233426
Pt       2.60342939       0.00225684       6.63314612        1       0.00000000      -0.04665299       0.03135531       0.20507367
Pt       5.20659084      -0.05399863       6.63258601        1       0.00000000      -0.01581151      -0.08862439       0.05646868
Pt       7.77615639      -0.04388831       6.65927092        1       0.00000000      -0.07624950      -0.04028473       0.21987987
Ni       1.30523329       2.27426377       6.52603115        1       1.00000000      -0.06820628       0.18296183      -0.22479912
Pt       3.85129118       2.25279240       6.45736112        1       0.00000000      -0.12506564       0.06172662      -0.20973746
Ni       6.50725672       2.21539153       6.50002712        1       1.00000000      -0.03681238      -0.03398390      -0.25065402
Pt       9.09533616       2.30809175       6.46421172        1       0.00000000      -0.03107378       0.07749845      -0.30429907
Ni       2.55713202       4.45619118       6.53260055        1       1.00000000      -0.15676459       0.04949247      -0.27138353
Pt       5.17389615       4.42050715       6.61032178        1       0.00000000      -0.04908704       0.03394896       0.08502654
Ni       7.82695650       4.43805201       6.47438634        1       1.00000000       0.08289595       0.06013857      -0.45481815
Ni      10.41336937       4.43965104       6.59152439        1       1.00000000       0.11954477      -0.02597781      -0.04270590
Ni       3.85619333       6.61338126       6.56641027        1       1.00000000      -0.12679539      -0.10026562      -0.12398357
Pt       6.55017745       6.60636369       6.52500892        1       0.00000000       0.04063931       0.01222924      -0.18759650
Ni       9.11623882       6.59384729       6.58716752        1       1.00000000       0.05652697      -0.13518472      -0.08999594
Ni      11.69148764       6.58788093       6.59848707        1       1.00000000       0.06093075      -0.10206420      -0.08659095
