64
Lattice="10.35378892516024 -0.03190034726360622 0.04156014395425107 5.149267951460289 9.013912719278848 0.03355371224074735 0.0 0.0 21.761001026285197" Properties=species:S:1:pos:R:3:tags:I:1:initial_magmoms:R:1:forces:R:3 unique_id=7c4d90e271324e15ab4c11faa759e72d energy=-380.8039216316286 stress="0.003989129801761722 -0.000177671967087787 0.00018078937279649682 -0.000177671967087787 0.004371349567004289 0.00010623840341678988 0.00018078937279649682 0.00010623840341678988 -0.003538832014558759" pbc="T T T"
Pt       0.01121137      -0.03252326       0.04161243        0       0.00000000      -0.13729379      -0.11261314       0.12059453
Ni       2.59595794      -0.03490241       0.19210582        2       1.00000000       0.00739119       0.01926201      -0.35047425
Ni       5.18480629      -0.03035421       0.18297355        2       1.00000000       0.04798918       0.06767912      -0.31588772
Pt       7.71778425      -0.03538034       0.12667163        1       0.00000000       0.08653545       0.03065849       0.30330881
Ni       1.26926039       2.24973723       0.19311801        2       1.00000000       0.05271608       0.06163431      -0.31157253
Pt       3.91855392       2.20147888       0.00000000        0       0.00000000       0.07038232       0.04441911      -0.26164616
Ni       6.53273145       2.25386209       0.23886450        2       1.00000000      -0.02257547      -0.06023534      -0.31277262
Ni       9.00848305       2.22745198       0.15229324        2       1.00000000      -0.04420155      -0.01603132       0.25950663
Pt       2.63772539       4.58712705       0.02529573        0       0.00000000       0.04932397      -0.07803301      -0.14699671
Ni       5.19227635       4.52679574       0.22763059        2       1.00000000      -0.16356753      -0.00477226      -0.47946466
Ni       7.72875562       4.47338581       0.14660438        1       1.00000000       0.08734116      -0.01839825       0.32217152
Pt      10.25611677       4.50602873       0.18533454        2       0.00000000      -0.05579893       0.06792042      -0.73900860
Ni       3.88458575       6.76699541       0.16093047        2       1.00000000       0.04123987      -0.00421956       0.28009262
Ni       6.44782888       6.73532734       0.20943816        2       1.00000000      -0.04947654       0.07123234      -0.21268767
Ni       9.01969152       6.74745624       0.25108945        3       1.00000000      -0.00562651      -0.07957794      -0.31162730
Ni      11.63563782       6.75933060       0.12899941        1       1.00000000      -0.04915172      -0.03205562       0.08136239
Pt       1.22897584       0.69338096       2.29269635        5       0.00000000      -0.05778143       0.02845281       0.20259837
Pt       3.93254270       0.75013484       2.28762557        5       0.00000000       0.00256776      -0.08055415       0.23024355
Ni       6.54529745       0.73232568       2.29794938        5       1.00000000       0.08995677       0.00303278       0.12113102
Ni       9.00637063       0.68142349       2.30128751        5       1.00000000      -0.01913760      -0.00225983       0.08747909
Pt       2.57233412       3.01911307       2.29457133        5       0.00000000      -0.01174097      -0.00310489       0.21552429
Pt       5.24694626       2.97527462       2.27620562        5       0.00000000       0.02289455       0.02882204       0.21396476
Ni       7.77341314       2.96229786       2.25648709        5       1.00000000       0.01892990      -0.02486167       0.05312938
Pt      10.23133715       2.96779086       2.33289998        5       0.00000000      -0.02803121      -0.15405189       0.14054285
Ni       3.90270125       5.32693422       2.26765193        5       1.00000000      -0.00112509       0.06701065       0.08696296
Pt       6.49318542       5.23880503       2.22936377        4       0.00000000       0.03504859      -0.08072045       0.16401919
Ni       9.01712125       5.22372996       2.32738835        5       1.00000000       0.00114452      -0.02441501       0.20086553
Pt      11.69623818       5.27884664       2.31126785        5       0.00000000       0.10540365       0.14309342       0.12867846
Ni       5.08563278       7.50948270       2.28400009        5       1.00000000      -0.04910616      -0.00520690       0.05195673
Pt       7.73073812       7.46397799       2.29855406        5       0.00000000       0.00530122       0.03398479       0.30060536
Pt      10.43932559       7.52737454       2.26157409        5       0.00000000       0.07216310      -0.01258485       0.09268346
Ni      12.99782977       7.52763548       2.34108124        5       1.00000000       0.04546848       0.04304098       0.06413544
Pt       0.00885898       1.48807896       4.50477019        7       0.00000000       0.01250995       0.08311685      -0.07720752
Ni       2.58868328       1.50040946       4.46584425        7       1.00000000      -0.01408401      -0.00604545      -0.19244101
Ni       5.20301400       1.48442667       4.48639279        7       1.00000000      -0.02133121       0.01348581      -0.20825713
Pt       7.75881696       1.41506389       4.43207670        6       0.00000000       0.01900264      -0.02370641      -0.07891757
Ni       1.28506655       3.74430837       4.45570677        7       1.00000000       0.01289188      -0.03648576      -0.26187101
Pt       3.85970459       3.72402895       4.50001570        7       0.00000000       0.03282864      -0.00138603      -0.11566775
Pt       6.55479936       3.76896088       4.49887117        7       0.00000000      -0.05464240       0.02992636      -0.03407230
Ni       9.05617605       3.72660010       4.49508975        7       1.00000000      -0.03346111      -0.02401091      -0.12071098
Pt       2.58366229       6.10837206       4.50688343        7       0.00000000      -0.01565713       0.01221759      -0.10388117
Pt       5.19066602       6.10404409       4.41971824        6       0.00000000       0.01736917       0.02956667      -0.09517460
Ni       7.77016349       6.00196281       4.50437044        7       1.00000000      -0.01234832       0.03764742      -0.08188399
Pt      10.30666570       5.96956461       4.46320572        7       0.00000000       0.01256239       0.09550113      -0.15117556
Ni       3.87359307       8.28299219       4.46688678        7       1.00000000      -0.00697310       0.03069602      -0.18603789
Ni       6.44550333       8.27665099       4.50397273        7       1.00000000       0.07197341       0.04280582      -0.13127213
Pt       9.03108542       8.28955202       4.51391726        7       0.00000000      -0.05310888       0.03681100      -0.02487196
Ni      11.66255981       8.25394590       4.49678880        7       1.00000000      -0.05063122       0.00839126      -0.16071193
Ni      -0.04502459      -0.00951999       6.51945994        8       1.00000000       0.00799400      -0.08536312       0.26859130
Pt       2.58626862       0.03980918       6.68882163       10       0.00000000      -0.06248942      -0.04308516       0.15888292
Pt       5.30154926      -0.02734297       6.67407390       10       0.00000000       0.11542891       0.07658355       0.07020085
Ni       7.84902206      -0.06300358       6.56194594        9       1.00000000      -0.04549498      -0.03395362      -0.03365472
Pt       1.33647595       2.28653954       6.67966981       10       0.00000000      -0.02627273       0.11291373       0.01352544
Ni       3.90565611       2.23055320       6.51326897        8       1.00000000       0.09262967      -0.07788590       0.49017975
Pt       6.56376916       2.25183608       6.73967415       10       0.00000000      -0.16563367      -0.11876025       0.00859800
Ni       9.07658977       2.20321604       6.66575561       10       1.00000000       0.06360583      -0.01098209      -0.18765475
Ni       2.56425101       4.55018136       6.53299499        8       1.00000000      -0.10532877       0.01393209       0.37654827
Pt       5.10640743       4.51817340       6.76014624       11       0.00000000      -0.03357787      -0.03812682       0.06467305
Ni       7.78121475       4.49228172       6.65674584       10       1.00000000      -0.03320959       0.06553220      -0.07113343
Pt      10.34494988       4.45036508       6.58806106        9       0.00000000       0.12510035      -0.20409464       0.80112981
Ni       3.83071639       6.81637303       6.65714512       10       1.00000000       0.03656324      -0.01211721      -0.31083074
Pt       6.40007389       6.78776537       6.71101519       10       0.00000000       0.03628393       0.07947373       0.11187624
Pt       9.06189124       6.71120045       6.76100103       11       0.00000000      -0.04334104       0.04224618       0.12972392
Ni      11.70061980       6.75524759       6.68481915       10       1.00000000      -0.02634183      -0.01139120      -0.14592011
