64
Lattice="10.390485698817455 0.0003958425211102207 0.042994808855630756 5.195585659087961 8.987813637544717 0.04417921690949757 0.0351051144282639 0.021384617887198844 8.905650167750027" Properties=species:S:1:pos:R:3:tags:I:1:initial_magmoms:R:1:forces:R:3 unique_id=9f18ec3fb34843ba83ac9e5a29cce39a stress="0.0004790127894263099 7.92606056945513e-07 -8.65538228289951e-06 7.92606056945513e-07 0.0004911638827235498 4.448920697101087e-06 -8.65538228289951e-06 4.448920697101087e-06 0.00043309480392032806" energy=-403.47298016866887 pbc="T T T"
Ni      -0.03322408       0.00338600       0.18934958        4       1.00000000      -0.14785448       0.02956966       0.38014025
Ni       2.61929643      -0.01375353       0.11527558        4       1.00000000       0.11886472      -0.02782196       0.27140670
Ni       5.20384448      -0.01893807       0.16655856        4       1.00000000       0.06579870       0.04365996       0.20589982
Ni       7.81734847      -0.03453559       0.14066334        4       1.00000000       0.12645060      -0.17288695       0.24135554
Pt       1.26995401       2.21914092       0.15868376        4       0.00000000      -0.06183109      -0.02467336       0.18621539
Pt       3.88699202       2.18767553       0.13740990        4       0.00000000       0.06736715      -0.04328886      -0.05247729
Pt       6.55384114       2.14651906       0.14549621        4       0.00000000       0.11977456      -0.17338235      -0.09023403
Ni       9.09767618       2.21402669       0.19366239        4       1.00000000       0.01209371      -0.16642176       0.19778735
Ni       2.58472077       4.52257106       0.15720209        4       1.00000000       0.08657861      -0.01786288       0.18522038
Pt       5.17632719       4.50924503       0.17754529        4       0.00000000       0.01956289       0.03139759       0.18492507
Pt       7.86279160       4.48631054       0.17102672        4       0.00000000       0.20388754       0.02288016       0.18945256
Ni      10.41271272       4.52580940       0.11699438        4       1.00000000       0.06601595       0.07971525       0.13568412
Ni       3.86019199       6.78820682       0.21062384        4       1.00000000      -0.02658297       0.12270678       0.32151358
Pt       6.50948705       6.83862114       0.24842839        4       0.00000000       0.02874001       0.05779951       0.15018287
Ni       9.12355588       6.77091403       0.12544296        4       1.00000000       0.06275631       0.06193377       0.15246855
Ni      11.70544664       6.76192987       0.12702102        4       1.00000000       0.13247557       0.11506595       0.04028014
Ni       1.32453562       0.72678285       2.24020340        3       1.00000000       0.03787063       0.06258741      -0.11266592
Ni       3.86804513       0.77157347       2.25599968        3       1.00000000      -0.15297022       0.03851845       0.06610875
Ni       6.54266634       0.76428361       2.27089685        3       1.00000000       0.15453860      -0.00454111       0.11542324
Ni       9.07534972       0.73181537       2.24753318        3       1.00000000      -0.14216795      -0.05163427      -0.10580971
Ni       2.63810747       2.95879574       2.27975026        3       1.00000000       0.05099393      -0.12756312       0.03437566
Ni       5.20636289       2.97481359       2.28821941        3       1.00000000      -0.04010710      -0.03507269      -0.08043752
Ni       7.78336874       2.94641995       2.29257173        3       1.00000000      -0.01431203      -0.19930376      -0.10617442
Pt      10.33130458       2.91370174       2.33396628        3       0.00000000      -0.09406954      -0.12742735      -0.10618580
Pt       3.90391906       5.26417309       2.30195552        3       0.00000000      -0.02403406      -0.05152496      -0.04927679
Ni       6.50449270       5.25510105       2.29475450        3       1.00000000      -0.00607310       0.08884420      -0.09677402
Pt       9.04574543       5.27153485       2.35342980        3       0.00000000      -0.18370919      -0.03000836      -0.02535370
Pt      11.71233378       5.26397136       2.23569035        3       0.00000000      -0.10882693       0.02513674      -0.03125371
Ni       5.19009611       7.54439298       2.25841399        3       1.00000000      -0.09070624       0.13185947      -0.03901558
Ni       7.79005645       7.53910228       2.29383521        3       1.00000000       0.04936381       0.13433656       0.01521725
Pt      10.39922419       7.57410673       2.20937867        3       0.00000000       0.02845306       0.06051962       0.04241666
Ni      13.02013419       7.54289402       2.27330504        3       1.00000000      -0.02819409       0.12511814      -0.05182481
Ni      -0.00357146       1.52287785       4.41358532        2       1.00000000      -0.05770392       0.02962009      -0.00887108
Ni       2.62470760       1.52453384       4.40867618        2       1.00000000       0.02299580       0.04402963      -0.25831983
Pt       5.17895250       1.55399867       4.40120939        2       0.00000000       0.02027419       0.01761505      -0.13633286
Ni       7.82873764       1.52748430       4.43896438        2       1.00000000       0.02294760       0.00901636      -0.23671740
Pt       1.34772722       3.71608281       4.38874044        2       0.00000000       0.11409244      -0.08033600       0.01859674
Ni       3.88898569       3.73364438       4.43017818        2       1.00000000      -0.00477296      -0.00079164      -0.13538491
Pt       6.58333847       3.72697384       4.35048156        2       0.00000000       0.05902250       0.09207431      -0.08896362
Ni       9.11701113       3.71500979       4.46056787        2       1.00000000       0.07004564      -0.15777304      -0.04351391
Ni       2.61310649       5.99412482       4.45345427        2       1.00000000      -0.01176313       0.04350973      -0.04716375
Pt       5.21314418       5.99776395       4.40786231        2       0.00000000       0.07870104       0.05883317       0.17820715
Ni       7.81114542       5.99978814       4.44897647        2       1.00000000      -0.10871168       0.11541850      -0.09128070
Pt      10.38664256       5.96746510       4.58002926        2       0.00000000       0.02966024      -0.04360675       0.09576123
Pt       3.90597384       8.31794079       4.36890512        2       0.00000000      -0.07797061       0.04419663      -0.06630809
Pt       6.51558548       8.33129042       4.36671905        2       0.00000000       0.00123510       0.11640355      -0.00829229
Pt       9.07024174       8.25974232       4.47827886        2       0.00000000      -0.06534509      -0.00180964      -0.02086068
Pt      11.74279928       8.26051356       4.48836308        2       0.00000000       0.03535750       0.03032603      -0.05175584
Pt       0.01445373       0.01759158       6.65737862        1       0.00000000      -0.06239077      -0.08657291       0.21310660
Ni       2.65339260       0.01684768       6.63175274        1       1.00000000       0.06978478      -0.01015855      -0.09871034
Pt       5.21666946       0.00464806       6.70195831        1       0.00000000      -0.03481487       0.02730456       0.13601782
Ni       7.78424358       0.02406814       6.65750001        1       1.00000000      -0.13504276       0.04305645      -0.09516312
Pt       1.36922524       2.22039957       6.55401724        1       0.00000000       0.04182996      -0.04760675      -0.26092633
Ni       3.91813593       2.23495769       6.55882326        1       1.00000000      -0.05313483      -0.07346030      -0.22144988
Ni       6.51692484       2.22785686       6.57621634        1       1.00000000      -0.00705002      -0.08619350      -0.26621275
Pt       9.06909738       2.24557051       6.62567123        1       0.00000000      -0.05742434      -0.05225598       0.03137323
Pt       2.56474094       4.52572826       6.64586555        1       0.00000000      -0.11291725      -0.00651136       0.04594028
Pt       5.21052592       4.41567996       6.58026909        1       0.00000000       0.01029775      -0.11413658      -0.31209872
Pt       7.89241980       4.52974112       6.56470761        1       0.00000000       0.06353138       0.03700651      -0.32736895
Ni      10.41490138       4.53200655       6.67735470        1       1.00000000       0.01976658      -0.10555261      -0.05406190
Pt       3.82833070       6.79417878       6.68835673        1       0.00000000      -0.13916961       0.04168915       0.15779258
Pt       6.59717372       6.78541726       6.61060401        1       0.00000000       0.02428240       0.07926225      -0.10591150
Ni       9.15013649       6.75665979       6.68409989        1       1.00000000       0.07822407       0.05343772      -0.02724221
Ni      11.67897359       6.75033493       6.69364253        1       1.00000000      -0.14398450       0.00573042      -0.08247554
