64
Lattice="10.311877321709343 -0.007799208263254851 0.012286954918917457 5.149184348369291 8.921812772984849 0.007041404636416484 0.010032256681309245 0.0008465738611180371 8.793682244021262" Properties=species:S:1:pos:R:3:tags:I:1:initial_magmoms:R:1:forces:R:3 unique_id=d86085bb20944aee92352f7003c00dbc stress="0.0002303216777482589 3.8110332283001265e-06 -1.827855486348248e-05 3.8110332283001265e-06 0.00023315325170458756 6.240268488296038e-07 -1.827855486348248e-05 6.240268488296038e-07 0.00022779792850426833" energy=-398.00870303887024 pbc="T T T"
Ni      -0.01859646       0.02602712       0.20345050        4       1.00000000      -0.09167100       0.06208005       0.31361755
Ni       2.57616368       0.00129492       0.21443299        4       1.00000000       0.01552638       0.00420715       0.38812829
Ni       5.15895346      -0.01187913       0.17102052        4       1.00000000      -0.00580848       0.15745080       0.28643788
Ni       7.75838458      -0.04242446       0.12704861        4       1.00000000       0.08351945      -0.11785483       0.21809446
Ni       1.26768984       2.22511597       0.09328933        4       1.00000000      -0.06605427      -0.04242837       0.14311752
Pt       3.80716502       2.23745161       0.19971695        4       0.00000000      -0.05158590       0.06079070       0.17306884
Pt       6.47320358       2.16941724       0.20558476        4       0.00000000       0.04852726      -0.04263285       0.19481156
Ni       9.04226080       2.18645939       0.15874982        4       1.00000000      -0.02395556      -0.18034335       0.14305963
Ni       2.57700907       4.47921187       0.07996923        4       1.00000000       0.11519936       0.05758967       0.05966257
Ni       5.12371758       4.47443692       0.19627096        4       1.00000000      -0.00568696       0.01425129       0.33484277
Pt       7.80050783       4.46711596       0.11738924        4       0.00000000       0.11410199      -0.01538800      -0.07685139
Ni      10.34100510       4.46322386       0.07360048        4       1.00000000       0.13090125       0.02338376       0.10346778
Ni       3.83073549       6.69582298       0.19975228        4       1.00000000      -0.04612800      -0.03479980       0.29658623
Pt       6.41184787       6.73512693       0.20520729        4       0.00000000      -0.07359839       0.04022653       0.08770826
Ni       9.04051028       6.69937900       0.09043380        4       1.00000000      -0.00543073       0.03571072       0.06832307
Ni      11.61959511       6.69496576       0.07520956        4       1.00000000       0.15003924       0.07625393      -0.02843990
Ni       1.28552337       0.72771150       2.16031438        3       1.00000000      -0.08007866      -0.00387134      -0.11870797
Ni       3.86677715       0.75121846       2.21048290        3       1.00000000       0.11166583       0.03644337      -0.01637399
Ni       6.47555919       0.74945471       2.25222010        3       1.00000000       0.09251905       0.07955183       0.12692071
Ni       9.00177422       0.71681969       2.19296692        3       1.00000000      -0.11088511      -0.00280678      -0.03845559
Ni       2.59344772       2.98600232       2.22414136        3       1.00000000       0.03208976       0.14157094      -0.03090907
Ni       5.13944584       2.98856452       2.25339490        3       1.00000000      -0.11875324      -0.02284928      -0.01464306
Ni       7.73673085       2.95571184       2.25263229        3       1.00000000       0.05493826      -0.06046239      -0.04204243
Pt      10.27813859       2.91145049       2.19821725        3       0.00000000       0.00901409       0.02645883       0.02562654
Ni       3.90875275       5.20670802       2.22236630        3       1.00000000       0.11758471       0.01041051       0.10065921
Ni       6.42462190       5.20497911       2.24198556        3       1.00000000      -0.02214726       0.12601437      -0.07037168
Ni       8.98894906       5.20216424       2.24514533        3       1.00000000      -0.03987644      -0.03638489       0.11249788
Pt      11.67583610       5.20361345       2.16021550        3       0.00000000       0.10316989       0.00725128      -0.00352136
Ni       5.11253084       7.42769525       2.20476893        3       1.00000000      -0.14697969      -0.09817239      -0.10557327
Ni       7.72685309       7.42932689       2.21089788        3       1.00000000       0.04036001      -0.11683818      -0.07115324
Pt      10.29444852       7.45179266       2.12599907        3       0.00000000       0.05528031      -0.09842244      -0.03838861
Ni      12.92576944       7.44497025       2.17906010        3       1.00000000      -0.00034831       0.00776254      -0.08337015
Ni      -0.02593420       1.50792669       4.34788774        2       1.00000000      -0.04558487      -0.02470063      -0.11180682
Pt       2.58223270       1.51713643       4.25170751        2       0.00000000       0.02717171       0.01585744      -0.02652785
Ni       5.17356790       1.51153715       4.31970998        2       1.00000000       0.01139017       0.08197612      -0.17207584
Ni       7.76741746       1.50411715       4.32146744        2       1.00000000       0.09320713       0.08593686      -0.21633602
Pt       1.30071730       3.72107729       4.43575730        2       0.00000000       0.01930955      -0.05169541      -0.02034865
Ni       3.88362335       3.76385488       4.31862140        2       1.00000000       0.01924026       0.06908817      -0.20463422
Pt       6.46423594       3.73600098       4.26229076        2       0.00000000      -0.06331937      -0.05372139       0.09987303
Ni       9.00280355       3.69901694       4.36563011        2       1.00000000      -0.02808050      -0.04337862      -0.24195290
Ni       2.60825493       5.91981728       4.36168910        2       1.00000000       0.07533915      -0.00051041      -0.17480703
Ni       5.12779302       5.91718632       4.31423490        2       1.00000000      -0.08715843      -0.01822465      -0.17942108
Ni       7.73563292       5.90070806       4.33745179        2       1.00000000      -0.05082149      -0.02860142      -0.25767965
Pt      10.27586172       5.89869567       4.43876487        2       0.00000000      -0.01105709      -0.00698903      -0.11716749
Pt       3.86001950       8.19053618       4.27801955        2       0.00000000      -0.03089543      -0.01270855       0.01053042
Pt       6.41441488       8.13879775       4.24220447        2       0.00000000      -0.00962235      -0.09438062      -0.01285952
Pt       9.00856718       8.16495132       4.33653207        2       0.00000000      -0.03726423       0.03636514       0.10583879
Pt      11.63850868       8.20411650       4.35043564        2       0.00000000       0.00107528       0.02648112       0.00505835
Pt      -0.02371746       0.03936143       6.57647162        1       0.00000000      -0.05682927       0.01662146       0.16379254
Pt       2.58310173      -0.00031767       6.61190553        1       0.00000000      -0.02062831       0.00027370       0.22609026
Pt       5.21049658      -0.09184931       6.59854023        1       0.00000000       0.04351229      -0.19139516       0.10850315
Ni       7.74032190      -0.01273116       6.54404570        1       1.00000000       0.03412651       0.06962927      -0.12646977
Ni       1.28135267       2.27808790       6.53993174        1       1.00000000       0.00467034       0.03362041      -0.07027268
Pt       3.81665830       2.27759545       6.47130254        1       0.00000000      -0.09517507      -0.01462460      -0.31475825
Pt       6.49284191       2.20558902       6.45872847        1       0.00000000       0.03533718      -0.00620120      -0.24226696
Pt       9.07570589       2.31158386       6.51790819        1       0.00000000       0.09357111       0.12328807       0.01802330
Ni       2.51729908       4.47394125       6.52968003        1       1.00000000      -0.14143476       0.04697544      -0.09291956
Pt       5.13560546       4.47069179       6.53314246        1       0.00000000      -0.04595231       0.01734594       0.07066883
Ni       7.79314078       4.47617214       6.44341566        1       1.00000000       0.09172021       0.05604435      -0.31381507
Ni      10.32562913       4.48162413       6.55859878        1       1.00000000       0.03104933       0.11643794      -0.01270282
Pt       3.75195990       6.68153236       6.55489455        1       0.00000000      -0.13581100       0.01918140       0.15757190
Pt       6.50629566       6.63715981       6.46717122        1       0.00000000       0.00595115       0.00398277      -0.26303926
Ni       9.05063702       6.62466620       6.55074677        1       1.00000000      -0.00148107      -0.16413060      -0.08378298
Ni      11.58263481       6.63638126       6.55559690        1       1.00000000      -0.11100465      -0.20199668      -0.14813522
