64
Lattice="10.209306688498986 0.004437568604614477 -0.017563696853210728 5.108496391392122 8.796926004365268 -0.03922764679796851 0.0 0.0 21.54215105836161" Properties=species:S:1:pos:R:3:tags:I:1:initial_magmoms:R:1:forces:R:3 unique_id=7fa65d5550364a348a15556f9792ea07 stress="0.004455777429583099 -4.960204454667999e-05 6.755258376352622e-06 -4.960204454667999e-05 0.0038107646551075406 -0.00016058425492970318 6.755258376352622e-06 -0.00016058425492970318 -0.002566631005736008" energy=-370.8465704413476 pbc="T T T"
Ni       0.04338190      -0.04260425       0.17957911        2       1.00000000       0.15576074      -0.03066819      -0.42980830
Ni       2.53063128      -0.03523624       0.19548392        2       1.00000000       0.02688129      -0.03472391      -0.18276387
Ni       5.09723877      -0.03333880       0.07526743        1       1.00000000      -0.08348436       0.03972404       0.12529158
Ni       7.64545739      -0.02989470       0.14607409        1       1.00000000      -0.03868657       0.10016854      -0.64839671
Ni       1.27955046       2.20276283       0.10155023        1       1.00000000       0.01743100      -0.03726508       0.30461429
Pt       3.76216833       2.20078525       0.17456127        2       0.00000000       0.01148063      -0.01549289      -0.61109442
Pt       6.37746865       2.21220181       0.07682597        1       0.00000000      -0.01576807       0.04373484      -0.21038055
Pt       9.00257136       2.25742712       0.00598939        0       0.00000000      -0.02641768       0.01405403      -0.26443420
Ni       2.54792111       4.42170302       0.04727558        0       1.00000000       0.07838758       0.02023646       0.13191066
Ni       5.08794108       4.44669675       0.04963402        0       1.00000000      -0.14150650      -0.03898001       0.12750515
Ni       7.67063972       4.44908320       0.04886872        0       1.00000000       0.12065842       0.04654258       0.09636266
Ni      10.21915261       4.43033632       0.03195187        0       1.00000000      -0.05626284       0.13992298       0.06189060
Ni       3.85532081       6.57360865       0.03984776        0       1.00000000       0.10155799      -0.02932683       0.18560531
Ni       6.37791926       6.61142444       0.04973487        0       1.00000000       0.02794356       0.11285410       0.18134259
Ni       8.90802762       6.58451448       0.11284210        1       1.00000000      -0.13101832      -0.05465999      -0.13325759
Ni      11.48118289       6.58985133       0.00000000        0       1.00000000      -0.07492553      -0.03789916       0.08349896
Ni       1.32362795       0.74567589       2.17274290        4       1.00000000       0.11649459       0.16149764       0.07569246
Ni       3.77624863       0.72777071       2.20120437        4       1.00000000      -0.12637902      -0.03168656       0.13970418
Ni       6.35131520       0.74905523       2.17165148        4       1.00000000      -0.04547976       0.05095760       0.05816707
Pt       8.99910650       0.76264057       2.16970355        4       0.00000000       0.06600551       0.02846929       0.00685178
Ni       2.54406070       2.89861537       2.22843585        4       1.00000000       0.00820056      -0.09354778       0.22783282
Ni       5.07960040       2.94048277       2.20947473        4       1.00000000      -0.02551178       0.09048360       0.13067348
Ni       7.67196505       2.96238996       2.18898864        4       1.00000000       0.08124426       0.05469836       0.12769737
Ni      10.22015959       2.92876642       2.18615901        4       1.00000000      -0.00483094      -0.06180998       0.15369882
Ni       3.84419346       5.08211509       2.17065134        4       1.00000000       0.00685347      -0.15268794       0.05388207
Pt       6.38225398       5.15606652       2.12541429        3       0.00000000       0.00918061      -0.01813058      -0.01817847
Ni       8.91581672       5.10004787       2.16572370        4       1.00000000      -0.01676380      -0.09719167       0.09395730
Pt      11.47258738       5.05930761       2.12478250        3       0.00000000      -0.04597443      -0.09446297       0.03164606
Ni       5.13850291       7.31243750       2.11770620        3       1.00000000       0.00603097      -0.01539393      -0.01996409
Ni       7.64003640       7.34322684       2.12681637        3       1.00000000      -0.04102771      -0.01414344       0.01477415
Pt      10.13122051       7.35556745       2.16431545        4       0.00000000      -0.02815220       0.01529814       0.09638903
Pt      12.78035785       7.28592983       2.10039192        3       0.00000000       0.06770829      -0.04438023       0.05980182
Ni       0.02562427       1.47715404       4.35058615        7       1.00000000       0.10982219      -0.08618554      -0.09971997
Ni       2.52479568       1.45888129       4.28990504        6       1.00000000      -0.02441353      -0.08259186      -0.21245206
Pt       5.04739256       1.40080550       4.25648386        6       0.00000000      -0.10643443      -0.08922254      -0.02713110
Pt       7.68334121       1.49403933       4.32234145        6       0.00000000       0.06790730      -0.05015868      -0.11647284
Pt       1.26873785       3.64049153       4.37807860        7       0.00000000       0.00910317      -0.00656391       0.06714020
Ni       3.80753598       3.70976629       4.29297577        6       1.00000000      -0.00936665       0.06765907      -0.22682752
Pt       6.36375428       3.73535932       4.35833015        7       0.00000000      -0.06008055       0.05199929      -0.02265994
Ni       8.94829986       3.70554622       4.32110330        6       1.00000000      -0.00268596       0.16230547      -0.15076281
Ni       2.54258569       5.81741673       4.36747254        7       1.00000000      -0.07956220      -0.05488727      -0.04729147
Ni       5.07221349       5.82665212       4.34524816        6       1.00000000      -0.01018982      -0.00309794      -0.07317825
Ni       7.69592467       5.84619010       4.30770885        6       1.00000000       0.16060822       0.01397651      -0.17675745
Ni      10.20093009       5.85282810       4.31320373        6       1.00000000      -0.00476820      -0.04279126      -0.14541914
Pt       3.81917008       7.95844501       4.31707728        6       0.00000000      -0.04693144      -0.03243680       0.00842058
Pt       6.43818180       8.02103056       4.21669138        5       0.00000000       0.08247477      -0.04754441      -0.01533679
Ni       8.94705835       8.01759043       4.29572315        6       1.00000000      -0.01952855      -0.07376803      -0.09339465
Ni      11.44364974       7.99307992       4.31391323        6       1.00000000      -0.02526313      -0.13113569      -0.05206004
Pt      -0.01964321      -0.00633122       6.54215106        9       0.00000000      -0.13132249       0.11498828       0.39892447
Pt       2.57806673      -0.01416023       6.51436197        9       0.00000000       0.09485120       0.09577632       0.23662127
Ni       5.10168458      -0.03430631       6.46028367        9       1.00000000      -0.09459968       0.02589736      -0.05501448
Pt       7.56102853      -0.04936626       6.53005156        9       0.00000000       0.02937485       0.00804888       0.49902167
Ni       1.24021390       2.22335715       6.47204899        9       1.00000000       0.04209987      -0.05287879      -0.01539552
Pt       3.82017798       2.28508126       6.41138455        8       0.00000000      -0.07349326       0.19734696       0.63397208
Ni       6.38059050       2.21757987       6.40361656        8       1.00000000      -0.03533463       0.07265577       0.37506395
Ni       8.94000821       2.25250280       6.36116635        8       1.00000000       0.07857023       0.08576244       0.37664285
Ni       2.53525060       4.43620865       6.45709604        9       1.00000000       0.04885016       0.04507795      -0.15026727
Ni       5.09944122       4.43801093       6.45756767        9       1.00000000      -0.06151650       0.03345994      -0.07761982
Ni       7.64903659       4.36708600       6.45582984        9       1.00000000       0.07958093      -0.03960069      -0.10951632
Ni      10.21400419       4.35857123       6.44301305        8       1.00000000      -0.04344168      -0.01935035      -0.16224758
Ni       3.81834125       6.50300808       6.45173109        9       1.00000000      -0.02730285       0.00427340      -0.14156234
Ni       6.35308624       6.51570886       6.44334753        8       1.00000000       0.03979681      -0.00057669      -0.24737674
Pt       8.96651011       6.50098207       6.43520818        8       0.00000000      -0.01971185      -0.07470656      -0.02710102
Ni      11.49246324       6.53289376       6.41340368        8       1.00000000       0.03327776      -0.10792170      -0.20075394
