64
Lattice="10.376624072556853 -0.03699374936529546 -0.0031326416223242414 5.156274509546845 8.95690903965193 -0.03350399100867811 0.0 0.0 21.715386617345654" Properties=species:S:1:pos:R:3:tags:I:1:initial_magmoms:R:1:forces:R:3 unique_id=4425eb7ccb404744a6bb5a83eb6b7b40 energy=-379.1278424157282 stress="0.005242775377577004 -0.00032511631106089126 3.7396691843589646e-05 -0.00032511631106089126 0.005382769515520103 -0.0004537324923825526 3.7396691843589646e-05 -0.0004537324923825526 -0.003238948304162704" pbc="T T T"
Ni       0.05782971       0.02458380       0.21380444        2       1.00000000       0.11545686      -0.05949217      -0.15118947
Ni       2.58247419      -0.00676208       0.25761974        3       1.00000000      -0.05746343      -0.00575056      -0.13599929
Ni       5.13468104      -0.01387960       0.19880360        2       1.00000000      -0.03818389       0.05818566      -0.36555158
Pt       7.83759792      -0.06998495       0.19517554        2       0.00000000       0.00959284      -0.19371545      -1.06847563
Ni       1.24816694       2.24229792       0.14467009        1       1.00000000      -0.00250118      -0.03237074       0.48645902
Pt       3.79288989       2.23531903       0.12841181        1       0.00000000       0.04054815      -0.01713768       0.21314296
Pt       6.45859875       2.26764143       0.18202500        2       0.00000000      -0.00728685       0.17610022      -0.78941965
Ni       9.12349875       2.23108529       0.20076330        2       1.00000000      -0.02718687       0.10185205      -0.11473142
Ni       2.58774922       4.45151088       0.10195461        1       1.00000000       0.02544932      -0.03335197       0.30138730
Ni       5.12770430       4.49195438       0.21463639        2       1.00000000      -0.00571896       0.00065149       0.05202536
Pt       7.85387400       4.49181884       0.11229861        1       0.00000000      -0.06422607      -0.00079800       0.12386150
Ni      10.38054965       4.38578317       0.09953851        1       1.00000000       0.03138617      -0.06752105       0.29483734
Ni       3.87628539       6.66993502       0.21528867        2       1.00000000      -0.06196773      -0.04787591       0.01080400
Pt       6.43631448       6.74166564       0.19248214        2       0.00000000       0.01164987       0.02286497      -0.42699384
Ni       9.03328377       6.71812204       0.07452670        1       1.00000000      -0.09670008       0.03101194       0.12306062
Pt      11.64067221       6.60618506       0.00000000        0       0.00000000       0.18219044       0.08543660      -0.21835044
Ni       1.34230971       0.76263777       2.21131220        4       1.00000000       0.08263720       0.05985190       0.07483422
Ni       3.83437945       0.75429938       2.24235592        4       1.00000000      -0.03137477       0.02559298       0.18789667
Pt       6.40973397       0.77364292       2.29359919        5       0.00000000      -0.08867064       0.04682051       0.29625705
Pt       9.20280592       0.75887338       2.24716698        4       0.00000000       0.12533321       0.06762433       0.19552652
Ni       2.59098908       2.96324377       2.24533368        4       1.00000000       0.03838592      -0.00669252       0.10680002
Ni       5.10844031       3.02726497       2.27211683        5       1.00000000      -0.13500196       0.07671593       0.16880425
Ni       7.81236655       3.02541476       2.25080259        5       1.00000000       0.02964027       0.06879926       0.21390328
Ni      10.38167378       2.95736425       2.22971389        4       1.00000000       0.10202219       0.03116666       0.09496897
Ni       3.91321690       5.20230988       2.25398644        5       1.00000000       0.04082562      -0.05823227       0.12515838
Ni       6.44828653       5.22069099       2.24983372        4       1.00000000      -0.04990648      -0.03249627       0.20579730
Ni       9.02653201       5.15761854       2.27167313        5       1.00000000      -0.06450690      -0.09102979       0.09134989
Pt      11.70489637       5.11189262       2.21565685        4       0.00000000       0.03156476      -0.07973741       0.03227394
Ni       5.14923572       7.39923298       2.21642843        4       1.00000000      -0.09916475      -0.07501216       0.18026600
Ni       7.72597355       7.43242697       2.21633320        4       1.00000000       0.01640256      -0.04225996       0.12773637
Pt      10.26147914       7.38991119       2.15048724        4       0.00000000      -0.04212530      -0.03734471       0.02335950
Ni      12.98476348       7.35812223       2.21871691        4       1.00000000       0.01205799      -0.10374294       0.20341400
Ni       0.02382916       1.50684154       4.42064893        7       1.00000000       0.01705363      -0.09650477      -0.11261692
Pt       2.61847798       1.52373627       4.37026265        7       0.00000000      -0.02277315      -0.03949367      -0.05890605
Ni       5.15471285       1.51084901       4.41618430        7       1.00000000      -0.00843125       0.05567527      -0.20741619
Pt       7.84119453       1.53387225       4.38601612        7       0.00000000       0.13440368      -0.05034716      -0.17583149
Pt       1.28184473       3.70573157       4.46741606        8       0.00000000      -0.05113865       0.03761800      -0.05454226
Ni       3.88022777       3.74683534       4.37657959        7       1.00000000       0.03845726       0.05005878      -0.19896440
Pt       6.44400001       3.78459481       4.30954270        6       0.00000000      -0.04328271       0.13148768      -0.19855613
Ni       9.05630800       3.71226883       4.37826340        7       1.00000000      -0.03398572      -0.01726857      -0.21036695
Ni       2.60645384       5.89196345       4.39062099        7       1.00000000       0.09708845      -0.10410139      -0.17601665
Ni       5.13690557       5.91025515       4.34209177        6       1.00000000      -0.05403029      -0.04479727      -0.28033032
Ni       7.75984217       5.90500887       4.35915338        7       1.00000000      -0.07754756       0.00782022      -0.29808044
Pt      10.28579102       5.85843871       4.45724730        8       0.00000000      -0.05212378      -0.04243394      -0.13278854
Pt       3.87993339       8.11024674       4.32126410        6       0.00000000       0.05864529      -0.05841285      -0.15090358
Pt       6.44064102       8.15345534       4.27395938        6       0.00000000      -0.01520201       0.05502526      -0.20378544
Pt       9.01968001       8.17127685       4.36190757        7       0.00000000      -0.06490638      -0.03820967      -0.09952544
Pt      11.64998168       8.11553553       4.36684210        7       0.00000000      -0.00235374       0.00275141      -0.29102870
Pt       0.02657445       0.02933719       6.65876093       11       0.00000000       0.04188817       0.07837815       0.09356737
Pt       2.60564355       0.03217238       6.71538662       11       0.00000000       0.02817905      -0.00804915       0.05022472
Pt       5.16850724      -0.09586454       6.66997515       11       0.00000000       0.05185926       0.17070507       0.30557047
Pt       7.78325157      -0.05620004       6.57641263       10       0.00000000       0.01497569       0.13367051       1.13301784
Ni       1.32535828       2.28487326       6.61376676       10       1.00000000       0.01166411      -0.02567094      -0.16396696
Ni       3.84112744       2.24435525       6.51986539        9       1.00000000       0.03602325      -0.06549433       0.06156086
Pt       6.45436217       2.23999545       6.52808277        9       0.00000000      -0.06764471      -0.10918735       0.82585197
Pt       9.16455461       2.33670151       6.64128139       10       0.00000000      -0.03548623       0.02731954       0.02358394
Ni       2.52221985       4.42662563       6.58934057       10       1.00000000       0.03513401       0.05023771      -0.24831495
Pt       5.09073609       4.40999828       6.61117697       10       0.00000000      -0.10173894       0.16178210      -0.09065028
Ni       7.81665016       4.47088503       6.49505700        9       1.00000000       0.08067063       0.06906348      -0.08137110
Ni      10.38981790       4.47901738       6.61216140       10       1.00000000       0.00842543       0.00644320      -0.21918088
Pt       3.78764642       6.62625979       6.61775342       10       0.00000000       0.08830208      -0.08567715      -0.05078193
Pt       6.52648093       6.63057753       6.50743756        9       0.00000000      -0.17057853      -0.07899784       0.31614516
Ni       9.07879730       6.62082227       6.58980698       10       1.00000000      -0.07883051       0.00294004      -0.15178253
Ni      11.62247265       6.60024703       6.47740013        9       1.00000000       0.11412664      -0.04444331       0.38297268
