64
Lattice="10.483889496366888 0.009484324342337768 0.049889737504358836 5.250158414001643 9.126154613821376 0.0031780827069291676 0.0 0.0 21.756630242503118" Properties=species:S:1:pos:R:3:tags:I:1:initial_magmoms:R:1:forces:R:3 unique_id=5bc88d3d0974477c8231091dedb4673c energy=-386.8815482598149 stress="0.0064669080325632355 2.1385178450003976e-05 0.00026864047909095447 2.1385178450003976e-05 0.006592557058686756 -0.00018986208906315212 0.00026864047909095447 -0.00018986208906315212 -0.00011643467634115875" pbc="T T T"
Pt      -0.09532418      -0.01949985       0.07680272        1       0.00000000      -0.33827083      -0.10622951      -0.40432525
Ni       2.65090288      -0.02595808       0.00000000        0       1.00000000       0.07414186      -0.06917362       0.42967355
Ni       5.25657868      -0.03901593       0.07650207        1       1.00000000       0.17031169      -0.06049210       0.09616696
Ni       7.85780777      -0.02388752       0.05352080        1       1.00000000      -0.14649175      -0.20837601       0.67590779
Pt       1.26696860       2.27775994       0.03130475        0       0.00000000       0.00566968      -0.03017401      -0.83979958
Pt       3.95628715       2.21420478       0.04773403        0       0.00000000       0.15596685       0.08693299      -0.78803330
Pt       6.61466058       2.18569217       0.09471840        1       0.00000000      -0.03283349      -0.21290382      -0.03227075
Ni       9.17148473       2.28123469       0.02642847        0       1.00000000       0.02669716      -0.09879957       0.38405648
Pt       2.58306830       4.64097338       0.02996256        0       0.00000000       0.04519086       0.05757071      -0.90739960
Pt       5.27718574       4.57347789       0.08518463        1       0.00000000       0.30352278      -0.16040418      -0.45614654
Pt       7.97002125       4.57974619       0.09998169        1       0.00000000       0.05862844       0.07100869       0.07530264
Ni      10.48042686       4.59638847       0.01897952        0       1.00000000       0.06381626       0.16246222       0.35943213
Ni       3.91484053       6.87487566       0.07768739        1       1.00000000      -0.11661029       0.13089622       0.18058899
Pt       6.61033429       6.89045357       0.13532185        1       0.00000000       0.03633940      -0.00736477      -0.13319602
Ni       9.21036379       6.86149280       0.02401989        0       1.00000000       0.10518409       0.00639920       0.54889263
Ni      11.79242940       6.88276072       0.09530832        1       1.00000000       0.11020027       0.15850485       0.15907886
Pt       1.30595163       0.66804807       2.20757762        2       0.00000000       0.04136925      -0.12637418       0.09520010
Pt       4.01129025       0.72757998       2.23301486        2       0.00000000       0.08780664      -0.01379615       0.23778857
Ni       6.59462564       0.74679539       2.24630379        2       1.00000000       0.16549882      -0.10499275       0.21829453
Ni       9.13250205       0.74189514       2.24081760        2       1.00000000      -0.28345765       0.02206770       0.09484617
Pt       2.65776219       3.04897543       2.23504063        2       0.00000000      -0.03120283       0.09340531       0.29977656
Ni       5.28922348       3.03040217       2.25358134        3       1.00000000       0.09483741      -0.02285570       0.38453315
Pt       7.81941823       3.03089637       2.34663890        3       0.00000000      -0.16559889      -0.04491678       0.30757587
Pt      10.40530014       3.06448210       2.23512980        2       0.00000000      -0.30497735       0.03860832      -0.01140438
Pt       3.99888217       5.40918850       2.21480877        2       0.00000000       0.01410881       0.21953709       0.01078782
Ni       6.60898857       5.33402493       2.25027853        3       1.00000000       0.25319758       0.00108386       0.38953521
Ni       9.15825120       5.35191440       2.26695591        3       1.00000000      -0.21595070       0.15599394       0.33487312
Pt      11.74294831       5.37999820       2.23827341        2       0.00000000      -0.20138030      -0.01474461       0.16289732
Ni       5.24624943       7.59746423       2.19985038        2       1.00000000      -0.04069547       0.02684628       0.27166590
Ni       7.88853920       7.55997557       2.22976920        2       1.00000000       0.14031936      -0.22739248       0.24684276
Pt      10.48851499       7.59845592       2.15889728        2       0.00000000      -0.08525807       0.02725152       0.00768320
Ni      13.13566132       7.65992819       2.20814668        2       1.00000000       0.01345325       0.26955400      -0.08111625
Pt      -0.10061150       1.56423490       4.42291525        4       0.00000000      -0.33934554       0.11944671      -0.26310881
Pt       2.66250133       1.47848150       4.44722702        4       0.00000000      -0.04187295      -0.09125960      -0.15352856
Ni       5.31200227       1.52446393       4.43903625        4       1.00000000       0.13708808       0.02248230      -0.45621242
Ni       7.86152544       1.54701652       4.46004805        5       1.00000000      -0.11704445       0.07633549      -0.24862155
Pt       1.22824365       3.84723627       4.44766336        4       0.00000000      -0.19071605       0.17001686      -0.16585697
Pt       4.04361867       3.75109909       4.39463145        4       0.00000000       0.17072225      -0.03764782      -0.27750925
Ni       6.62289959       3.77398177       4.44864737        4       1.00000000       0.13604344      -0.00360532      -0.33601679
Ni       9.15828184       3.82818492       4.47367673        5       1.00000000      -0.19581175       0.12773498      -0.30670083
Pt       2.61125566       6.10421933       4.40371945        4       0.00000000      -0.04243652       0.10158413      -0.21035483
Pt       5.36331049       6.04827149       4.37782073        4       0.00000000       0.23954954      -0.07871576      -0.25089287
Ni       7.93393045       6.03441115       4.43663040        4       1.00000000       0.21606444      -0.22359920      -0.46320355
Ni      10.45198238       6.06451695       4.50305402        5       1.00000000      -0.20883272      -0.03701593      -0.08064387
Pt       3.92781007       8.39171083       4.35435127        4       0.00000000       0.00999906       0.00006353      -0.40620265
Pt       6.60607818       8.32286535       4.40725717        4       0.00000000      -0.04035926      -0.02754785      -0.22334611
Pt       9.21309701       8.27191672       4.48596464        5       0.00000000       0.03398952      -0.25373469      -0.10117194
Pt      11.81350117       8.43951602       4.43307533        4       0.00000000      -0.08683949       0.19819314      -0.27009734
Pt      -0.01108040       0.02268053       6.65126408        7       0.00000000       0.01244461      -0.01957896       0.40902391
Ni       2.66060264      -0.02885019       6.70542527        7       1.00000000      -0.10238845       0.06242918      -0.23609107
Pt       5.24111849      -0.04091235       6.74558917        7       0.00000000       0.01328608       0.11254161      -0.01010839
Ni       7.88811094       0.00548306       6.72335292        7       1.00000000      -0.02296523      -0.03438102      -0.41638723
Pt       1.27522284       2.27742306       6.63800170        6       0.00000000      -0.06336816       0.02061993       0.75123143
Pt       3.96534051       2.22227065       6.63648368        6       0.00000000       0.10821859       0.00369786       0.75563693
Pt       6.66235423       2.22528536       6.58618074        6       0.00000000      -0.00908858       0.03156814       0.13817928
Ni       9.19937780       2.28109984       6.71755584        7       1.00000000       0.01017427       0.01807977      -0.35031879
Pt       2.60907517       4.55148959       6.63496643        6       0.00000000       0.09244592      -0.07030819       0.78669357
Pt       5.31680380       4.54461170       6.63475489        6       0.00000000       0.30723738      -0.02384345       0.54272810
Pt       8.00763322       4.55393204       6.58539199        6       0.00000000      -0.06169600      -0.00321654       0.00329186
Ni      10.48770011       4.56645825       6.71492294        7       1.00000000       0.00895856       0.02707219      -0.32499039
Pt       3.93908731       6.87352138       6.72444094        7       0.00000000       0.10296624      -0.00360857       0.07563042
Pt       6.68184137       6.86373420       6.65439716        7       0.00000000       0.04439947      -0.05782893       0.28502434
Ni       9.21276586       6.82823708       6.70130517        7       1.00000000       0.07846410      -0.05190304      -0.34837385
Pt      11.74789297       6.82811241       6.75663024        8       0.00000000      -0.20281927      -0.09320357      -0.16541045
