64
Lattice="10.128751059883214 0.019425005679483895 -0.014833617785147735 5.081198078328692 8.727311753225393 -0.06590576059515252 0.0 0.0 21.37111805194491" Properties=species:S:1:pos:R:3:tags:I:1:initial_magmoms:R:1:forces:R:3 unique_id=d1e1d948d0d346d4ada15869bdee86a7 energy=-367.3947605709963 stress="0.002352292915203502 -5.336353585126769e-05 -8.923382133054466e-05 -5.336353585126769e-05 0.001668287891274314 -0.00032607943096944417 -8.923382133054466e-05 -0.00032607943096944417 -0.005049738372808286" pbc="T T T"
Ni       0.02806250      -0.05323348       0.15246744        2       1.00000000       0.05132136      -0.04970250      -0.24612179
Ni       2.48322687       0.00408947       0.12144378        1       1.00000000       0.03490615       0.12622173      -0.45617424
Pt       5.09136451      -0.06290539       0.17081813        2       0.00000000      -0.07312516       0.01282350      -0.90438354
Ni       7.61969556      -0.04133480       0.13770670        1       1.00000000      -0.02290651      -0.09603907      -0.29152540
Ni       1.26167447       2.19907170       0.08034052        1       1.00000000      -0.04409454       0.03161541       0.21644953
Pt       3.76742498       2.24760215       0.14464830        1       0.00000000       0.00767041      -0.04281895      -0.85419314
Ni       6.33931240       2.23026003       0.07454635        1       1.00000000      -0.04099297      -0.03879547       0.08480129
Pt       8.87180436       2.23442040       0.08734386        1       0.00000000       0.05730914       0.13361878      -0.77590045
Ni       2.51363835       4.40512985       0.04669903        0       1.00000000       0.05446424      -0.00753588       0.34490617
Ni       5.09063538       4.41065815       0.04269556        0       1.00000000      -0.12233316       0.01366629       0.19896817
Ni       7.57434801       4.40420743       0.04962759        0       1.00000000       0.08201202      -0.00264936       0.16349337
Ni      10.17216277       4.40823900       0.04142455        0       1.00000000      -0.02496690      -0.06160835       0.29624797
Ni       3.80900272       6.51742334       0.03276457        0       1.00000000       0.00586712       0.00924193       0.30790361
Ni       6.30677637       6.51861222       0.00000000        0       1.00000000      -0.06608082       0.01172877       0.08175577
Ni       8.88597671       6.47800677       0.11036620        1       1.00000000       0.14461944      -0.05510908      -0.56095474
Ni      11.43949410       6.49874328       0.03049869        0       1.00000000      -0.00261621       0.05251049       0.30624156
Ni       1.27371391       0.77151717       2.14617391        4       1.00000000      -0.00628346       0.14097925       0.10807048
Ni       3.74796398       0.73372959       2.14900795        4       1.00000000      -0.15112534       0.00684532       0.18643047
Ni       6.35919151       0.72222091       2.13622484        4       1.00000000       0.09043389       0.03634966       0.11281099
Pt       8.87799685       0.69063939       2.19336763        5       0.00000000       0.05189215      -0.12469750       0.19975686
Ni       2.49251818       2.94087010       2.18373159        5       1.00000000      -0.02978824       0.06430654       0.09697808
Ni       5.07345598       2.95660372       2.10368395        4       1.00000000       0.01252649       0.04575118       0.05925730
Ni       7.58232324       2.94478243       2.12586441        4       1.00000000      -0.01632878       0.00505911       0.11301020
Ni      10.18028486       2.95545504       2.15089711        5       1.00000000       0.07201827       0.01647733       0.12616677
Ni       3.78658526       5.07978637       2.09905762        4       1.00000000      -0.06734520      -0.03272412       0.04831586
Ni       6.29887230       5.07156624       2.04765051        3       1.00000000      -0.01660015       0.00339809       0.06318276
Ni       8.91424782       5.04370368       2.07453593        4       1.00000000       0.05423771      -0.08048857       0.08190697
Ni      11.41309342       5.08886911       2.10051926        4       1.00000000       0.02110589      -0.02433047       0.13482935
Ni       5.04485327       7.19696647       2.08862520        4       1.00000000      -0.10450929      -0.08789524       0.10614265
Pt       7.58577547       7.28219907       2.04309187        3       0.00000000      -0.09457613      -0.03615127      -0.00586675
Ni      10.18701055       7.20789586       2.13984372        4       1.00000000       0.05982769      -0.09242109       0.18056404
Ni      12.66020163       7.20902729       2.08039124        4       1.00000000       0.01539507      -0.08048486       0.10474092
Ni       0.04738505       1.45112583       4.21364518        7       1.00000000       0.10169113       0.04475357      -0.08817680
Ni       2.46672222       1.45938938       4.17683708        7       1.00000000      -0.04648606      -0.00831509      -0.16948730
Pt       5.04091296       1.40250946       4.11688078        6       0.00000000       0.05246671      -0.00882733      -0.14543044
Ni       7.60380076       1.41509336       4.20928225        7       1.00000000      -0.06512912      -0.08466087      -0.16706226
Ni       1.27495446       3.62517635       4.21812195        7       1.00000000       0.05056593       0.01164645      -0.09712477
Ni       3.73590434       3.69491204       4.16125656        7       1.00000000      -0.04390099       0.09557160      -0.15078114
Pt       6.31386915       3.62474562       4.21452240        7       0.00000000      -0.04017286      -0.02150208       0.01273326
Ni       8.93771420       3.64327734       4.13880298        6       1.00000000       0.09722839       0.02821756      -0.18346008
Ni       2.53585271       5.77825486       4.19255886        7       1.00000000      -0.02157053       0.01268346      -0.14918099
Ni       5.00314583       5.82229696       4.19328743        7       1.00000000      -0.01502644       0.01806550      -0.13316308
Pt       7.61074978       5.81494748       4.18132225        7       0.00000000      -0.00020168       0.08225510       0.04915329
Ni      10.20556847       5.77790806       4.16305883        7       1.00000000       0.04318243       0.00788110      -0.11025850
Ni       3.80107000       7.90534142       4.16156820        7       1.00000000      -0.03705061      -0.05650139      -0.07663276
Ni       6.29051151       7.99838284       4.13152230        6       1.00000000      -0.09549629       0.05465413      -0.16327178
Ni       8.88148150       7.96758018       4.13147867        6       1.00000000      -0.00468910       0.00079367      -0.22788061
Ni      11.44096149       7.90367222       4.10303572        6       1.00000000       0.06312990      -0.07763317      -0.14252628
Pt      -0.00681240      -0.09347065       6.35263535       10       0.00000000      -0.25053951       0.13861690       0.08913322
Pt       2.50260357      -0.03056613       6.32780013        9       0.00000000       0.27650470       0.04263392       0.23903711
Pt       5.08060606      -0.04422142       6.27818696        9       0.00000000      -0.21680685      -0.17375560       1.00641004
Pt       7.59078669      -0.08504455       6.33677855        9       0.00000000       0.19728334       0.10341940       0.21178690
Ni       1.25599072       2.21134982       6.30089996        9       1.00000000       0.02785741       0.03116999      -0.12894860
Pt       3.76704379       2.30004507       6.25605066        9       0.00000000      -0.12065880      -0.03214764       0.74994937
Ni       6.32702806       2.20156842       6.34048772        9       1.00000000       0.01564581       0.00286714       0.09975911
Pt       8.86829767       2.26537836       6.20353130        8       0.00000000      -0.01440234      -0.17419196       0.83749782
Ni       2.50203909       4.39576459       6.28672438        9       1.00000000       0.07074534      -0.03582805      -0.29964461
Ni       5.06204822       4.40519360       6.32241054        9       1.00000000      -0.09709032       0.01814518      -0.15722389
Ni       7.53983193       4.34183382       6.34323659        9       1.00000000      -0.01288229      -0.03012300       0.04241193
Ni      10.21599467       4.33876968       6.28131501        9       1.00000000       0.03609214      -0.01064105      -0.21479426
Ni       3.79712848       6.42316127       6.27915961        9       1.00000000      -0.01753955       0.00091459      -0.28486279
Ni       6.29190052       6.45356925       6.30008402        9       1.00000000       0.00202915       0.01612553      -0.07256627
Pt       8.90691808       6.39596548       6.37111805       10       0.00000000       0.17363995       0.14066387       0.41565349
Ni      11.44819540       6.44874277       6.26436502        9       1.00000000      -0.04035315       0.06590696      -0.21885947
