64
Lattice="10.386168237082519 -0.02231877503149893 -0.01886310251277051 5.173755492382684 8.983108740629023 -0.028133487073099307 0.0 0.0 21.6537837715523" Properties=species:S:1:pos:R:3:tags:I:1:initial_magmoms:R:1:forces:R:3 unique_id=da1b9f139295446fa2b0eddc2294246d energy=-380.2979463625233 stress="0.005785313944530348 -0.00019860487647642902 6.78799062121648e-05 -0.00019860487647642902 0.005908142781423137 -0.00028464176237201564 6.78799062121648e-05 -0.00028464176237201564 -0.0012524711156998315" pbc="T T T"
Ni       0.01358506       0.01849841       0.17233849        2       1.00000000       0.15181742      -0.04028741      -0.06480642
Pt       2.58264649      -0.00068752       0.21678128        2       0.00000000      -0.07891809       0.01175727      -0.49670610
Ni       5.17605578      -0.01080378       0.14671965        1       1.00000000      -0.03672289       0.11902890      -0.24472565
Pt       7.83745431      -0.05591058       0.14660561        1       0.00000000       0.04402674      -0.17936708      -0.90815686
Ni       1.25478113       2.27363812       0.10255729        1       1.00000000      -0.07846882       0.02586359       0.56952813
Pt       3.83653861       2.30769039       0.11678782        1       0.00000000      -0.00768720       0.03218091       0.16890507
Pt       6.48104412       2.27597864       0.14710907        1       0.00000000       0.04056258       0.16117164      -0.62295554
Ni       9.12984562       2.24377483       0.14869007        1       1.00000000       0.03465738       0.12146425       0.03760901
Ni       2.58722365       4.48055057       0.07343033        1       1.00000000       0.02608147       0.01679465       0.36417177
Ni       5.14719270       4.50404393       0.16218046        2       1.00000000      -0.05653436       0.05535366       0.20026116
Pt       7.86169081       4.49790456       0.10067942        1       0.00000000       0.04506564      -0.02079962       0.14158023
Ni      10.38800896       4.43204625       0.05361177        1       1.00000000       0.07330239      -0.15160324       0.40380438
Ni       3.88031520       6.70304173       0.16693266        2       1.00000000      -0.07644510      -0.12074363       0.18793899
Pt       6.41938260       6.71286091       0.18001294        2       0.00000000      -0.05860444       0.00434584      -0.33198860
Ni       9.06921065       6.71761402       0.05053410        1       1.00000000      -0.14103581      -0.00144575       0.13956566
Pt      11.66240470       6.65170353       0.00000000        0       0.00000000       0.22903574      -0.01695035      -0.27801111
Ni       1.30552720       0.77225478       2.23962051        4       1.00000000       0.10952178       0.21309530       0.12849379
Ni       3.86667505       0.77835303       2.25471485        5       1.00000000      -0.03688393       0.18939453       0.26973777
Pt       6.42381307       0.77639248       2.27841392        5       0.00000000      -0.10676805       0.14057647       0.07653363
Pt       9.19474189       0.77359390       2.22133697        4       0.00000000       0.09390695       0.13739910       0.07917963
Ni       2.59543782       2.98057904       2.23242539        4       1.00000000       0.04607298      -0.00768477       0.13906871
Ni       5.14008443       3.03732634       2.25866766        5       1.00000000      -0.21439081       0.19233835       0.23386422
Ni       7.81120333       3.03364069       2.23768168        4       1.00000000       0.11208996       0.15409937       0.21794393
Ni      10.38173462       2.97491487       2.20338940        4       1.00000000       0.12897241       0.11305866       0.06598766
Ni       3.91466132       5.22764089       2.23463242        4       1.00000000       0.11512978      -0.06470892       0.15107692
Ni       6.46102638       5.22769295       2.24838499        4       1.00000000      -0.09363211       0.03531682       0.20523969
Ni       9.04417539       5.19351248       2.24212356        4       1.00000000      -0.06293745      -0.14922782       0.23950949
Pt      11.71350690       5.14265429       2.19877149        4       0.00000000       0.04775421      -0.11531606       0.05313196
Ni       5.16413014       7.43594631       2.21352117        4       1.00000000      -0.12949290      -0.18797613       0.12513003
Ni       7.74213133       7.44080339       2.23135593        4       1.00000000      -0.07930612      -0.26327001       0.16154640
Pt      10.28686128       7.43476179       2.14615649        3       0.00000000      -0.09429119      -0.16732783      -0.10254801
Ni      13.00439285       7.41226083       2.20332318        4       1.00000000       0.04701739      -0.21247565       0.17000514
Ni       0.00933360       1.51687272       4.42079702        7       1.00000000       0.10696590      -0.04985580      -0.19385206
Pt       2.61637667       1.54706645       4.36503298        7       0.00000000       0.02693696      -0.00549642      -0.15483610
Ni       5.15701226       1.51712406       4.41230233        7       1.00000000      -0.00733394       0.14002313      -0.23946609
Pt       7.83333773       1.54885761       4.36949230        7       0.00000000       0.16151697       0.02835161      -0.04801074
Pt       1.28467474       3.72745192       4.46928472        8       0.00000000      -0.03633845       0.00079175      -0.04649310
Ni       3.88464302       3.75854597       4.39700969        7       1.00000000       0.05531735       0.14175258      -0.32669790
Pt       6.45576097       3.80931863       4.30922735        6       0.00000000      -0.06568313       0.08231393      -0.16744236
Ni       9.06517042       3.73876809       4.39097679        7       1.00000000      -0.05194899       0.02439147      -0.31982749
Ni       2.60415803       5.93090871       4.40933114        7       1.00000000       0.11555131      -0.22085836      -0.26674866
Ni       5.14929267       5.94080323       4.35976644        7       1.00000000      -0.12036472      -0.07820961      -0.41584077
Ni       7.77348089       5.93513915       4.37790348        7       1.00000000      -0.05766107      -0.02551836      -0.37039869
Pt      10.30724457       5.89409160       4.46339877        8       0.00000000      -0.09255372      -0.05717600      -0.17331771
Pt       3.88917697       8.14830044       4.32254082        6       0.00000000       0.03231812      -0.12780133      -0.16494371
Pt       6.45245119       8.18404598       4.27634569        6       0.00000000      -0.09677923      -0.02111876      -0.23615247
Pt       9.03914366       8.20023367       4.34360600        6       0.00000000      -0.05751284      -0.02982947      -0.15033258
Pt      11.66617930       8.16155975       4.36423786        7       0.00000000       0.05329008      -0.09157766      -0.21109642
Pt       0.01434150       0.03458532       6.65378377       11       0.00000000       0.03567989       0.06160348       0.13004616
Pt       2.59553329       0.03448897       6.61028256       10       0.00000000       0.02371590       0.03449809       0.54923765
Pt       5.16218849      -0.06833509       6.65203103       11       0.00000000       0.02147478       0.08706888       0.35124083
Pt       7.77722809      -0.04466093       6.58225479       10       0.00000000       0.03601738       0.14707278       0.99413232
Ni       1.30845078       2.29118461       6.61861638       10       1.00000000       0.06951313       0.05160588      -0.22030959
Ni       3.84442473       2.25779235       6.54205355        9       1.00000000      -0.01293888      -0.01274746      -0.02924588
Pt       6.45319066       2.25624520       6.54242973        9       0.00000000      -0.04856589      -0.06412863       0.65030226
Pt       9.15378289       2.34491053       6.62008820       10       0.00000000       0.03638706       0.12067389       0.07245509
Ni       2.53301925       4.45303855       6.60637915       10       1.00000000      -0.07850858      -0.01833346      -0.32414808
Pt       5.10244913       4.43811665       6.60207969       10       0.00000000      -0.13799832       0.05879101      -0.04109413
Ni       7.81379929       4.49226095       6.52350416        9       1.00000000       0.11557558       0.08437296      -0.16802153
Ni      10.38637809       4.49349603       6.60435684       10       1.00000000       0.06720636       0.08415272      -0.23011466
Pt       3.79995913       6.65545677       6.60963510       10       0.00000000       0.02206312      -0.09344748       0.01588973
Pt       6.53157397       6.66071481       6.52723611        9       0.00000000      -0.11596589      -0.08404160       0.25371403
Ni       9.08932899       6.66409889       6.59599892       10       1.00000000      -0.06330223      -0.06051390      -0.19592706
Ni      11.63298333       6.65146397       6.51119463        9       1.00000000       0.07103044      -0.13086490       0.19738465
