64
Lattice="10.599072998630355 0.009640582779187664 0.008043588056171955 5.307885488909244 9.198866218531991 -0.031654956637819684 0.0 0.0 21.839606360589947" Properties=species:S:1:pos:R:3:tags:I:1:initial_magmoms:R:1:forces:R:3 unique_id=a229509d5c554f8aa75cd59d6ca43d18 stress="0.005180569224683063 0.00013827851499630158 -6.089705865763082e-05 0.00013827851499630158 0.005432333512083373 -9.028092518332556e-05 -6.089705865763082e-05 -9.028092518332556e-05 -0.0009994674134601485" energy=-392.9787440445414 pbc="T T T"
Pt       0.03680822       0.00238779       0.00103225        0       0.00000000      -0.04773875      -0.04549223      -0.14643697
Ni       2.66620817       0.01289713       0.11235360        1       1.00000000       0.06279439       0.02344906       0.17658642
Pt       5.23532508       0.01740467       0.03946007        0       0.00000000      -0.09996702       0.11112921       0.19865984
Pt       7.91788104      -0.01450161       0.08227879        1       0.00000000      -0.11396092       0.06224184      -0.35299661
Pt       1.37610162       2.27318463       0.00707943        0       0.00000000       0.00791253       0.03511777       0.03960725
Ni       3.96835658       2.27908636       0.10973578        1       1.00000000      -0.02622065      -0.04695228       0.20194592
Pt       6.59623945       2.29026523       0.00465200        0       0.00000000       0.04184386      -0.10154097       0.00200765
Pt       9.29346398       2.31408043       0.02156974        0       0.00000000       0.05824304      -0.05079394       0.10767101
Pt       2.63347874       4.59996517       0.09947295        1       0.00000000      -0.04845604       0.08381542      -0.51788429
Pt       5.29445855       4.57621757       0.09740767        1       0.00000000       0.06422596       0.08886386      -0.53340983
Pt       7.96584681       4.61350502       0.11738528        1       0.00000000      -0.03207024       0.12402780      -0.19144767
Pt      10.62344890       4.63231005       0.07564514        1       0.00000000       0.03801910      -0.03692262       0.21377590
Pt       3.95207086       6.89320062       0.06024154        1       0.00000000       0.06288540      -0.02603589      -0.81469855
Pt       6.65508189       6.91686230       0.08672809        1       0.00000000      -0.02272026      -0.15423560      -0.65520630
Pt       9.30962742       6.92060563       0.00000000        0       0.00000000      -0.00038607      -0.05923953      -0.04607906
Ni      11.91683833       6.90146690       0.08569567        1       1.00000000      -0.01224320       0.01155100       0.12309546
Pt       1.35004268       0.78317467       2.30226941        2       0.00000000       0.04092127      -0.02594546       0.17048092
Ni       3.97090603       0.76001139       2.26902600        2       1.00000000      -0.01070152      -0.01896527       0.21425567
Pt       6.60301117       0.76375403       2.36895789        3       0.00000000       0.05500633       0.04131975       0.35195875
Pt       9.29836262       0.83351955       2.37212181        3       0.00000000       0.06649256       0.26383606       0.32942177
Pt       2.62230290       3.05225278       2.28366515        2       0.00000000      -0.07962705      -0.01182508       0.19568878
Pt       5.31749814       3.04663123       2.30869224        2       0.00000000       0.08773959      -0.13004511       0.26303320
Pt       7.99918000       3.13613233       2.41266028        3       0.00000000       0.07293040       0.13249557       0.48152476
Ni      10.59972113       3.10104422       2.31326229        2       1.00000000      -0.01289920       0.19390554       0.26608490
Pt       3.97158699       5.34659747       2.30690233        2       0.00000000      -0.04322290      -0.05534497       0.29784413
Ni       6.65520953       5.35021287       2.28707729        2       1.00000000       0.08799003      -0.04325805       0.39808537
Ni       9.29860730       5.34582122       2.29651291        2       1.00000000       0.14172795      -0.06738404       0.30763985
Ni      11.89083984       5.34818245       2.27543910        2       1.00000000      -0.20643028      -0.12952330       0.34182558
Pt       5.31885118       7.65195446       2.30258259        2       0.00000000      -0.07682052       0.14077162       0.28930941
Pt       7.99755873       7.63952958       2.28406381        2       0.00000000       0.14188039       0.00124104       0.25686560
Pt      10.60204640       7.62047462       2.29039689        2       0.00000000      -0.03836107      -0.13950466       0.16903210
Pt      13.20487214       7.64000115       2.29050114        2       0.00000000      -0.06184379       0.00109706       0.25875871
Ni      -0.03390304       1.54829541       4.58819279        5       1.00000000      -0.23388667       0.13011521      -0.01875856
Pt       2.63215246       1.52683322       4.55365181        5       0.00000000       0.06427574       0.05278128      -0.23473946
Pt       5.39978161       1.50889057       4.60124451        5       0.00000000       0.21963956      -0.00147122       0.01274571
Ni       7.97383869       1.56522892       4.58321656        5       1.00000000       0.15141361       0.35620010      -0.14664054
Pt       1.20981298       3.76444039       4.53543700        4       0.00000000      -0.28790847      -0.19764784      -0.26838693
Pt       4.00129642       3.78981258       4.52862466        4       0.00000000      -0.05144059      -0.07333331      -0.24271827
Ni       6.67441557       3.79210280       4.54456730        4       1.00000000       0.14846097      -0.18998177      -0.29942363
Ni       9.27404856       3.77674808       4.54893564        4       1.00000000      -0.01032535      -0.29262487      -0.19083178
Pt       2.60986880       6.13792809       4.50087904        4       0.00000000      -0.13741690       0.00630781      -0.30471798
Pt       5.34777781       6.08408480       4.49047393        4       0.00000000       0.05381330      -0.05959502      -0.33538388
Pt       7.98314369       6.03877029       4.47949233        4       0.00000000       0.04927935      -0.15323184      -0.50903775
Pt      10.58417532       6.08534477       4.52453527        4       0.00000000      -0.11794879      -0.16662198      -0.24396802
Pt       3.95949966       8.51123091       4.53282687        4       0.00000000      -0.06074508       0.18615838      -0.20554625
Pt       6.61223935       8.46045087       4.54080203        4       0.00000000      -0.03091319       0.07597668      -0.18746189
Pt       9.33313252       8.42118657       4.56273506        5       0.00000000       0.05883072      -0.03681005      -0.16261346
Ni      11.93475746       8.43328711       4.54791586        4       1.00000000       0.00374691      -0.03003602      -0.26290394
Ni       0.00635837       0.01756477       6.73189754        6       1.00000000      -0.01359250       0.23074007      -0.20664276
Pt       2.65693182      -0.00920103       6.83960636        7       0.00000000      -0.01879775       0.04650111       0.20210958
Ni       5.31091305      -0.01856151       6.75123205        7       1.00000000       0.04041055       0.00571796      -0.09005375
Pt       7.92147045       0.08464163       6.70851280        6       0.00000000      -0.19491690       0.28855353       0.31547972
Ni       1.28984562       2.26764521       6.72894819        6       1.00000000      -0.24576635      -0.07680826      -0.31294356
Pt       4.00698837       2.23452342       6.82762859        7       0.00000000       0.02824139      -0.06628308       0.16865507
Ni       6.65015556       2.27472988       6.71972797        6       1.00000000       0.17467745       0.10180322      -0.19826710
Ni       9.29694003       2.28136393       6.70398846        6       1.00000000       0.12643240      -0.01523105      -0.58554171
Pt       2.59367589       4.54475042       6.73738873        6       0.00000000      -0.12916464      -0.02283096       0.48952661
Pt       5.35348110       4.53760345       6.72484410        6       0.00000000       0.24699539      -0.08597804       0.55699339
Pt       8.03700383       4.51353996       6.69336153        6       0.00000000       0.20195519      -0.24697154       0.13749463
Ni      10.59401430       4.56874792       6.73539056        6       1.00000000      -0.08642312      -0.08514024      -0.33136967
Pt       3.98303901       6.91704954       6.72003197        6       0.00000000      -0.05967673       0.12302902       0.64403552
Pt       6.67224434       6.89682931       6.73294953        6       0.00000000       0.17343523      -0.09895438       0.60659490
Ni       9.29520437       6.87616784       6.72682209        6       1.00000000      -0.08794787      -0.07372651      -0.14140075
Pt      11.85003073       6.91209336       6.78895530        7       0.00000000      -0.07168017       0.19754000      -0.05128317
