64
Lattice="10.46936427870612 0.0325721307350254 -0.02135144601275838 5.2628904320249825 9.03965556447928 -0.013434327288931463 -0.017433382667280124 -0.002600837059737369 8.964841814171836" Properties=species:S:1:pos:R:3:tags:I:1:initial_magmoms:R:1:forces:R:3 unique_id=f1ae882fdac245e4ae94186053eaacf7 stress="0.008792571290046992 6.303247251939635e-05 -3.3685440016914046e-05 6.303247251939635e-05 0.008808561094902849 1.4196000680799138e-05 -3.3685440016914046e-05 1.4196000680799138e-05 0.007392630117347483" energy=-405.0926703162204 pbc="T T T"
Ni      -0.04369340       0.00019402       0.21300437        4       1.00000000      -0.08534657      -0.01226425       0.21326057
Ni       2.64037414      -0.00858146       0.11757693        4       1.00000000       0.07736065      -0.02356467       0.17620000
Ni       5.23763049      -0.01385861       0.14976836        4       1.00000000       0.00504158       0.04573706       0.13247027
Ni       7.88055765      -0.02866070       0.10541101        4       1.00000000       0.05229048      -0.12264279       0.12463190
Pt       1.29286004       2.21456075       0.14428447        4       0.00000000       0.03937309      -0.10512184      -0.12372827
Pt       3.91213540       2.20955458       0.19153057        4       0.00000000       0.01165546       0.00259245      -0.01081189
Pt       6.58580250       2.15314776       0.13537628        4       0.00000000       0.02771094      -0.11546556      -0.11020184
Ni       9.17084727       2.24038760       0.13620848        4       1.00000000      -0.02344686      -0.13395041       0.10289029
Ni       2.61550620       4.55039424       0.14543668        4       1.00000000       0.05518866      -0.03696229       0.14115240
Pt       5.23417355       4.54840754       0.15029252        4       0.00000000       0.11192933      -0.03530883      -0.02671295
Pt       7.95665112       4.55353479      -0.00196649        4       0.00000000       0.09891407      -0.00105436      -0.17124001
Ni      10.50690874       4.58282884       0.03302846        4       1.00000000       0.06838876       0.08027683      -0.00350880
Ni       3.90532858       6.82892695       0.18321861        4       1.00000000       0.00022382       0.03668543       0.19430292
Pt       6.57503235       6.88831763       0.19053789        4       0.00000000       0.00429960       0.01402300       0.01827417
Ni       9.21338134       6.83141673       0.04406848        4       1.00000000       0.01691957       0.05710899       0.01997414
Ni      11.81344249       6.82698088       0.03990232        4       1.00000000       0.06902215       0.07575673      -0.01207019
Ni       1.33758984       0.71434895       2.23397935        3       1.00000000       0.00628981       0.00736841      -0.00559013
Ni       3.87007549       0.76289981       2.25706247        3       1.00000000      -0.15058404      -0.02262010       0.05377016
Ni       6.57005034       0.73378907       2.24815577        3       1.00000000       0.09880513      -0.07966289       0.05520827
Ni       9.14424549       0.72267320       2.17910745        3       1.00000000      -0.02936782      -0.02190823      -0.01656390
Ni       2.65129986       2.98124340       2.29222566        3       1.00000000      -0.00103689      -0.03435055       0.08816867
Ni       5.21207821       3.01217065       2.26273704        3       1.00000000      -0.00948215       0.03362854      -0.00764415
Pt       7.84067489       2.96160502       2.27552729        3       0.00000000       0.01233191       0.01470777       0.00288745
Pt      10.47205487       3.01122242       2.21068077        3       0.00000000      -0.00577585       0.07344354       0.00419324
Pt       3.92919560       5.28943032       2.27039386        3       0.00000000      -0.03120745       0.01853969       0.09395499
Ni       6.56005886       5.31067578       2.25360206        3       1.00000000       0.01983751       0.05198236       0.02225373
Pt       9.12144235       5.35223643       2.30382938        3       0.00000000      -0.06974831       0.01758635       0.00627079
Pt      11.80538951       5.34188459       2.17708371        3       0.00000000      -0.05783570       0.07678350       0.01561816
Ni       5.23716415       7.58057238       2.21219321        3       1.00000000      -0.05491721       0.04362022       0.03585782
Ni       7.86139162       7.59673218       2.23336390        3       1.00000000       0.02898144       0.08523421       0.01391703
Pt      10.48515082       7.62564892       2.14575428        3       0.00000000      -0.03911846       0.01244275       0.03356280
Ni      13.12290133       7.60778128       2.17408573        3       1.00000000      -0.04691577       0.03426035      -0.03608908
Pt      -0.04375033       1.52475576       4.38957851        2       0.00000000      -0.09339712       0.01334260      -0.04752300
Ni       2.61508931       1.52274921       4.38709698        2       1.00000000      -0.02575861       0.01860323      -0.18324992
Pt       5.20167622       1.53748850       4.29996657        2       0.00000000      -0.02457551      -0.03360052      -0.11496935
Ni       7.84560119       1.51749326       4.41775471        2       1.00000000      -0.03204483      -0.04080562      -0.09355602
Pt       1.32838438       3.81911259       4.42193791        2       0.00000000       0.02230881       0.04287750      -0.06022431
Ni       3.90289434       3.76499893       4.41075489        2       1.00000000      -0.01556957       0.00506852      -0.06693471
Pt       6.60995149       3.80311864       4.39803469        2       0.00000000       0.01535373      -0.01340495      -0.08934679
Ni       9.17412711       3.83949872       4.46830307        2       1.00000000       0.06292392       0.05146421      -0.06765690
Ni       2.61227643       6.01662830       4.44593337        2       1.00000000       0.02948038       0.00047397      -0.03300353
Pt       5.24707651       6.03358892       4.38333704        2       0.00000000       0.01571370       0.06411122       0.01827390
Ni       7.91218915       6.01481039       4.44632869        2       1.00000000       0.01848891       0.02340836      -0.03052346
Ni      10.45966215       6.02775404       4.49300803        2       1.00000000       0.00313242      -0.00492472      -0.00718509
Pt       3.90413527       8.29307977       4.34616533        2       0.00000000       0.00278073      -0.01421819      -0.03777882
Pt       6.59526851       8.31250738       4.34049632        2       0.00000000      -0.04572741       0.06211125      -0.01426276
Pt       9.15994469       8.24618324       4.42610186        2       0.00000000       0.01885099       0.01015275      -0.00496042
Pt      11.80803779       8.25343092       4.42556315        2       0.00000000      -0.04899431      -0.02169186       0.00382868
Pt      -0.01866883      -0.00844280       6.73620700        1       0.00000000       0.00726930       0.03077719       0.16490417
Ni       2.62446275      -0.02129941       6.64988025        1       1.00000000       0.02361467      -0.01900171      -0.07399198
Pt       5.21691412      -0.11090511       6.72400921        1       0.00000000      -0.02944862      -0.12695224       0.12120921
Ni       7.82568636       0.01570669       6.64566093        1       1.00000000       0.00154969       0.02503612      -0.07219875
Pt       1.30031556       2.25497378       6.58859514        1       0.00000000       0.01630158      -0.00662471      -0.05419483
Pt       3.90161638       2.22106149       6.56891720        1       0.00000000       0.00161296      -0.04405365      -0.05259773
Pt       6.56904307       2.21599012       6.56887346        1       0.00000000      -0.03682977      -0.09280082      -0.05292590
Pt       9.14477437       2.35873234       6.65394176        1       0.00000000       0.00512243       0.07259601       0.09226288
Pt       2.53225422       4.58000542       6.67707574        1       0.00000000      -0.04037569       0.01724427       0.11254423
Pt       5.25471864       4.52713510       6.58336141        1       0.00000000      -0.04976535       0.00437217       0.04589398
Ni       7.91897795       4.56092871       6.52082114        1       1.00000000       0.07161525       0.04664802      -0.21912214
Ni      10.42081168       4.61168776       6.60432788        1       1.00000000      -0.05631374       0.07066172      -0.13699065
Pt       3.84273046       6.82823208       6.70393355        1       0.00000000      -0.07152479       0.04700797       0.15654558
Pt       6.68017801       6.77949973       6.59493010        1       0.00000000       0.07158643       0.02660149       0.03295241
Ni       9.20503983       6.73285007       6.61619160        1       1.00000000       0.07491775      -0.14494336      -0.12611007
Ni      11.73815315       6.77384637       6.62305931        1       1.00000000      -0.09207918      -0.10643766      -0.13376649
