64
Lattice="10.410203549257888 0.014369977224425698 0.08942597561608769 5.217546539957096 9.075657044668302 0.027206464143456864 0.0 0.0 21.697177629697137" Properties=species:S:1:pos:R:3:tags:I:1:initial_magmoms:R:1:forces:R:3 unique_id=cb262d54b40248eea82ba43bf7d34692 energy=-382.25310188367575 stress="0.006981346100919187 0.00011251634250420656 0.0005974685561442787 0.00011251634250420656 0.007462466202821091 -4.789874768061769e-05 0.0005974685561442787 -4.789874768061769e-05 -0.001371697327822356" pbc="T T T"
Pt      -0.07311180       0.02126216       0.05927897        1       0.00000000      -0.17425041      -0.14956093      -0.65130700
Ni       2.63932098      -0.01845722       0.00000000        0       1.00000000       0.03358292      -0.09250995       0.34693279
Ni       5.23178877      -0.02836845       0.09793471        1       1.00000000       0.09633164       0.08311095      -0.19259736
Ni       7.79742318      -0.03316779       0.07962010        1       1.00000000      -0.07187349      -0.07417768       0.48380675
Ni       1.30633611       2.26600206       0.06502376        1       1.00000000       0.10385165       0.04778266      -0.30904158
Pt       3.89029426       2.24959220       0.08330940        1       0.00000000       0.05627419       0.17110539      -0.73759530
Pt       6.55628930       2.20150559       0.09498124        1       0.00000000      -0.11405626      -0.11447594      -0.18928753
Ni       9.13157374       2.27878467       0.04801043        0       1.00000000      -0.00434568      -0.07386280       0.28255618
Pt       2.58912450       4.56726252       0.03650825        0       0.00000000       0.04925880      -0.16792263      -1.01063049
Ni       5.24782988       4.53711126       0.09280341        1       1.00000000       0.14581802      -0.11641403      -0.11396302
Pt       7.90097686       4.55315231       0.02217377        0       0.00000000      -0.03081422       0.05265520       0.33616487
Ni      10.42559971       4.56837401       0.03637834        0       1.00000000       0.06001228       0.09553845       0.29928332
Ni       3.89774228       6.83230500       0.10194572        1       1.00000000      -0.05166191       0.12354521      -0.08921274
Pt       6.54311562       6.82105303       0.14941368        1       0.00000000      -0.01973850       0.05664727      -0.35746522
Ni       9.16133241       6.82410657       0.03951450        0       1.00000000      -0.00978225      -0.02762459       0.40158567
Ni      11.72531232       6.84846043       0.05296502        1       1.00000000       0.10179174       0.00386707       0.36640335
Pt       1.33082431       0.71746257       2.12798925        2       0.00000000       0.14853626      -0.01723445       0.16533595
Pt       3.99140586       0.76592312       2.21099605        3       0.00000000       0.07432256      -0.06946298       0.24553355
Ni       6.56646563       0.74434639       2.22576311        3       1.00000000       0.08349026      -0.02043836       0.15107783
Ni       9.06070816       0.75039251       2.22795984        3       1.00000000      -0.14517533       0.06467054       0.06741276
Ni       2.62656143       3.03285883       2.17581982        3       1.00000000      -0.03259114       0.02759979       0.34737879
Ni       5.24856085       3.02268740       2.20643939        3       1.00000000       0.05765584       0.03688599       0.23795775
Pt       7.78328638       3.03179511       2.32700781        4       0.00000000      -0.00062364       0.06895191       0.14490005
Pt      10.38765661       3.04342860       2.15677446        3       0.00000000      -0.06601431       0.02023710       0.00590242
Pt       4.00648659       5.32016130       2.12877396        2       0.00000000       0.16624265       0.04320536       0.12752307
Ni       6.58674654       5.29507293       2.22017153        3       1.00000000       0.14897315      -0.05036058       0.22790049
Ni       9.09223510       5.32281266       2.25573171        4       1.00000000      -0.10866978       0.02293128       0.15276711
Pt      11.69059196       5.33711731       2.23808294        3       0.00000000      -0.07333191       0.04186185       0.11762267
Ni       5.21916271       7.56278661       2.17796459        3       1.00000000      -0.00352522       0.00591185       0.26636717
Ni       7.84849006       7.51119164       2.21486857        3       1.00000000       0.08802082      -0.07623616       0.17369304
Pt      10.43077504       7.55463036       2.14864183        2       0.00000000      -0.03492555       0.05297878       0.03323751
Ni      13.05603351       7.62522968       2.20035525        3       1.00000000      -0.00470666       0.08749449      -0.02871252
Pt      -0.09120320       1.57603274       4.34631853        5       0.00000000      -0.14579514       0.12706328      -0.23185468
Pt       2.64170188       1.50104551       4.37303473        6       0.00000000      -0.18370038      -0.09764410      -0.12935338
Ni       5.30565828       1.52449824       4.37551576        6       1.00000000       0.02425584       0.03993878      -0.31729879
Ni       7.81567643       1.54985320       4.39964318        6       1.00000000      -0.05690368       0.02746340      -0.19674754
Pt       1.23753874       3.81610628       4.36389719        6       0.00000000      -0.14508991       0.00629375      -0.22334174
Pt       4.02400349       3.73026576       4.31007728        5       0.00000000       0.06533394       0.01211690      -0.29118731
Ni       6.61226606       3.76883174       4.41756265        6       1.00000000       0.04580709       0.06999530      -0.14307059
Ni       9.08379322       3.83743683       4.47554468        7       1.00000000      -0.10190835       0.02369486      -0.10511629
Pt       2.59465888       6.08029462       4.35731182        6       0.00000000      -0.00867839       0.04697136      -0.19638820
Pt       5.34858722       5.99933826       4.33216591        5       0.00000000       0.00550742      -0.11551200      -0.23377615
Ni       7.91693171       5.96682373       4.40139362        6       1.00000000       0.07078900      -0.13395515      -0.19807533
Ni      10.38648809       6.02573088       4.49434222        7       1.00000000      -0.03399233      -0.03786053      -0.03942524
Pt       3.92186733       8.34481369       4.28721969        5       0.00000000      -0.02414171      -0.00636607      -0.25727720
Pt       6.57746594       8.27505008       4.35470473        6       0.00000000      -0.00931916       0.07995354      -0.21484250
Pt       9.15999053       8.21916118       4.46094351        7       0.00000000      -0.02944094      -0.03937400      -0.06765130
Pt      11.74592515       8.39447196       4.42053582        6       0.00000000      -0.07060413       0.04010333      -0.08847236
Pt      -0.00011346       0.02044153       6.54602892        8       0.00000000       0.01721260      -0.02458146       0.63554991
Ni       2.65690800      -0.02606702       6.61349648        9       1.00000000      -0.06004741       0.04462837      -0.11653805
Pt       5.25538767      -0.10370899       6.69717763       10       0.00000000      -0.00302676       0.19964201       0.02004819
Ni       7.83926876       0.00625014       6.64440113        9       1.00000000      -0.00531522       0.00089111      -0.31794592
Pt       1.27213950       2.28331796       6.65937526       10       0.00000000      -0.02422143       0.06790718       0.21116525
Pt       3.96677079       2.21035151       6.55308652        9       0.00000000       0.16583365       0.02038179       0.81169757
Pt       6.66283708       2.24634699       6.51168448        8       0.00000000      -0.14196604      -0.02717091       0.29743208
Ni       9.14568578       2.31767136       6.64591163        9       1.00000000       0.00192158       0.09280333      -0.29271147
Pt       2.57058757       4.56225544       6.54565100        8       0.00000000       0.07645180      -0.10796878       0.93933052
Pt       5.32214778       4.52893180       6.64155783        9       0.00000000       0.10652198      -0.02674890       0.19592478
Ni       7.93351209       4.52811861       6.52452756        8       1.00000000      -0.02317559       0.02970183      -0.12632076
Ni      10.37728318       4.57881729       6.64309831        9       1.00000000      -0.11182685       0.01939284      -0.40026822
Pt       3.89130418       6.84270320       6.66773114       10       0.00000000       0.17793366      -0.03569135       0.04850942
Pt       6.69788032       6.79066744       6.58686186        9       0.00000000      -0.02551480      -0.10463873       0.32979284
Ni       9.20488285       6.74653216       6.63088288        9       1.00000000       0.05676343      -0.12961300      -0.31933443
Ni      11.71380167       6.79788976       6.67002223       10       1.00000000      -0.07774032      -0.11851808      -0.28398348
