64
Lattice="10.28048311212009 0.005709827500868289 0.02047138531460045 5.145186411727024 8.853171969334207 -0.015314712423151492 0.016714816116225283 -0.02408915292593419 8.78715622980818" Properties=species:S:1:pos:R:3:tags:I:1:initial_magmoms:R:1:forces:R:3 unique_id=18e4255551e0431d895ecc927ac4ad56 stress="0.00024472386509938326 2.0890850478453987e-06 -1.6174793908055126e-05 2.0890850478453987e-06 0.0002493637767656959 1.6100852010386307e-05 -1.6174793908055126e-05 1.6100852010386307e-05 0.00023619711174385077" energy=-396.21638722569907 pbc="T T T"
Ni       0.01303865      -0.00108314       0.17872821        4       1.00000000       0.03617235       0.04613359       0.37033907
Ni       2.54246501       0.01549505       0.20571216        4       1.00000000      -0.05035220       0.08190126       0.44936561
Pt       5.13437579      -0.04744395       0.14343475        4       0.00000000      -0.00478739      -0.08652502       0.33987197
Ni       7.73786474      -0.05556776       0.20246617        4       1.00000000       0.01836789      -0.04481332       0.38702050
Ni       1.28813500       2.21819051       0.10548779        4       1.00000000       0.02005444       0.02354040       0.26264940
Pt       3.74858801       2.21714980       0.18133801        4       0.00000000      -0.07084534       0.07718026       0.15906238
Pt       6.44715577       2.18989219       0.11423619        4       0.00000000       0.04450021       0.03549567       0.00406765
Pt       9.10089898       2.21172277       0.13551167        4       0.00000000       0.09515438      -0.00168008       0.17758232
Ni       2.53002441       4.45489855       0.05392098        4       1.00000000      -0.04357311       0.02977286       0.00384324
Pt       5.05950745       4.48876550       0.09783993        4       0.00000000      -0.11555910       0.08977428      -0.03932051
Pt       7.76257228       4.47414503       0.03153409        4       0.00000000       0.06527082       0.08462853      -0.15074330
Ni      10.34685806       4.45534521       0.06936509        4       1.00000000       0.13297887       0.05885754       0.07493715
Ni       3.80380758       6.67265116       0.09448432        4       1.00000000      -0.08461033       0.08508007       0.18883966
Pt       6.42341109       6.73811705       0.17150687        4       0.00000000      -0.01129959       0.06865489       0.09647062
Ni       9.02896857       6.63820196       0.07030267        4       1.00000000       0.05815948      -0.04568447       0.09902492
Ni      11.60631007       6.60894683       0.07342314        4       1.00000000       0.10226614      -0.05876236       0.06608952
Ni       1.32025832       0.74220118       2.23130725        3       1.00000000       0.03686620       0.04096086       0.18251371
Ni       3.81802301       0.76769550       2.26641917        3       1.00000000      -0.01519363       0.08269577       0.10443168
Ni       6.43220489       0.77220718       2.26729644        3       1.00000000      -0.06824925       0.05542974       0.12033249
Pt       9.02102009       0.72663298       2.27262275        3       0.00000000       0.05974602       0.17100946       0.01359022
Ni       2.56679711       2.91689742       2.28265625        3       1.00000000       0.04360988      -0.11511279       0.22905110
Ni       5.12343002       2.94819031       2.27022390        3       1.00000000      -0.16719404      -0.00348868       0.00660648
Ni       7.69422488       2.93464860       2.26780089        3       1.00000000       0.02498734      -0.06139414      -0.01233140
Ni      10.33774455       2.92544767       2.27551191        3       1.00000000       0.13410789      -0.09725822       0.18191729
Ni       3.88382149       5.16588855       2.25432938        3       1.00000000       0.07928619      -0.01422105       0.17700272
Ni       6.39277061       5.17037646       2.25603971        3       1.00000000      -0.04888492       0.07245445      -0.03479828
Pt       8.96733546       5.11890829       2.29719994        3       0.00000000      -0.10517369      -0.19936255      -0.13432715
Pt      11.65716480       5.10229011       2.23598423        3       0.00000000       0.10783561      -0.14232062       0.13143480
Ni       5.15475123       7.34582916       2.23068094        3       1.00000000       0.07145960      -0.11869103       0.05392993
Ni       7.67388324       7.40831582       2.23287234        3       1.00000000      -0.14183737      -0.02232818       0.04641750
Pt      10.29179504       7.35107307       2.21395270        3       0.00000000       0.02455165       0.00234678      -0.22011277
Ni      12.89927144       7.34669959       2.17634920        3       1.00000000       0.09985423      -0.15393161       0.02254532
Ni       0.06706195       1.50726764       4.33205570        2       1.00000000       0.15293239       0.06209935      -0.04562700
Ni       2.53862370       1.51157227       4.31368288        2       1.00000000      -0.05957596       0.09739085      -0.08605572
Ni       5.13733867       1.49855752       4.31935119        2       1.00000000      -0.12704241       0.01332468      -0.17221843
Ni       7.71530096       1.49628129       4.35475524        2       1.00000000       0.01652459      -0.00298379      -0.04398125
Ni       1.30053037       3.66556310       4.38701804        2       1.00000000       0.02088972      -0.02505142       0.00731441
Ni       3.83061904       3.71361774       4.31398671        2       1.00000000      -0.11344487       0.01469595      -0.21929330
Pt       6.42467015       3.68814370       4.34046536        2       0.00000000      -0.03362290      -0.02931321      -0.09518584
Ni       9.04101784       3.70177796       4.35538913        2       1.00000000       0.12018803      -0.08995336      -0.09544501
Ni       2.59561155       5.82039277       4.38931730        2       1.00000000       0.00959245      -0.15201341      -0.00632618
Ni       5.13097305       5.85433677       4.31937160        2       1.00000000      -0.00025621      -0.14844248      -0.17744895
Ni       7.72454688       5.87139453       4.35230144        2       1.00000000      -0.09131661       0.01086121      -0.08752056
Ni      10.29854558       5.83253952       4.43432807        2       1.00000000       0.08484656      -0.07049772       0.06100919
Pt       3.93368284       8.03139450       4.31914487        2       0.00000000       0.03845559      -0.12900560       0.25148251
Ni       6.43395421       8.10860640       4.29267231        2       1.00000000      -0.04997082       0.01272685      -0.11911975
Pt       8.91965170       8.09720895       4.30529589        2       0.00000000      -0.02719885       0.07148721       0.14168637
Pt      11.61287907       8.07523353       4.30884889        2       0.00000000       0.03947214      -0.04089809       0.10480437
Pt       0.01895418      -0.00190592       6.54068534        1       0.00000000       0.00304443       0.06316140       0.13927995
Pt       2.56569033       0.00092303       6.55269963        1       0.00000000      -0.02752630       0.05940945       0.18882596
Pt       5.14827399      -0.03949141       6.46968056        1       0.00000000       0.02709866       0.00641613      -0.39246193
Pt       7.71634758      -0.05100123       6.58797637        1       0.00000000      -0.06073378      -0.05809364       0.19849119
Ni       1.29453455       2.26989509       6.47557515        1       1.00000000      -0.00942823       0.23571327      -0.22061669
Pt       3.84803390       2.30881606       6.40487021        1       0.00000000      -0.06034530       0.16107856      -0.23721206
Ni       6.43717413       2.23887051       6.43336881        1       1.00000000      -0.01949685       0.06397976      -0.25182093
Pt       9.02073159       2.30609169       6.40450674        1       0.00000000       0.01250657       0.10583382      -0.30458272
Ni       2.54732488       4.45094665       6.46975680        1       1.00000000      -0.12773469       0.07929018      -0.25444036
Ni       5.12940158       4.42058498       6.42269919        1       1.00000000      -0.12133375       0.05781304      -0.28054698
Ni       7.74341783       4.42295993       6.40651936        1       1.00000000       0.08635655       0.05657464      -0.43078244
Ni      10.32635314       4.45579402       6.48563073        1       1.00000000       0.09657772       0.07721210      -0.20614065
Ni       3.83610310       6.54473719       6.49083526        1       1.00000000      -0.07341904      -0.21179040      -0.12455118
Pt       6.43483014       6.52949474       6.40562705        1       0.00000000      -0.04435544       0.00204815      -0.22704529
Ni       9.03779740       6.54807691       6.49415776        1       1.00000000       0.02386359      -0.14777197      -0.20930619
Ni      11.57951628       6.54630224       6.51113817        1       1.00000000      -0.01321620      -0.08564380      -0.16246839
