64
Lattice="10.39037633640778 0.01873756553310029 0.07536109403595562 5.211415375960633 9.077186973634092 0.04937521201983156 0.06153207561533019 0.011025835902021058 9.003650141686046" Properties=species:S:1:pos:R:3:tags:I:1:initial_magmoms:R:1:forces:R:3 unique_id=41f4e459f168420197632803d1e91f81 stress="0.0004884887596939488 6.360461041709516e-06 -1.9895033913995396e-05 6.360461041709516e-06 0.000488449458420151 -1.1421879756191556e-06 -1.9895033913995396e-05 -1.1421879756191556e-06 0.0004346459063713434" energy=-405.14492884323 pbc="T T T"
Pt      -0.02732477       0.10649735       0.01346832        4       0.00000000      -0.06934192       0.15805304      -0.19129512
Ni       2.62547035      -0.00119779       0.06843684        4       1.00000000       0.13775987      -0.07065793       0.16203503
Ni       5.23181480      -0.01853568       0.17373922        4       1.00000000       0.19961113      -0.08354517       0.27434720
Ni       7.75946328       0.04938387       0.15213020        4       1.00000000      -0.14763150       0.17625871       0.27809819
Ni       1.28253080       2.27681602       0.05136884        4       1.00000000      -0.01128702       0.08441080       0.05954630
Pt       3.92615983       2.20655905       0.13659246        4       0.00000000       0.07915077      -0.09307410       0.28492040
Ni       6.54746016       2.24030272       0.19271959        4       1.00000000       0.12717824      -0.18523299       0.19363636
Ni       9.08353906       2.30229998       0.13748777        4       1.00000000      -0.14360042       0.13480375       0.14849376
Pt       2.49335454       4.54424499       0.14744144        4       0.00000000      -0.11187741      -0.01372317       0.17308379
Pt       5.29383694       4.48532061       0.19675055        4       0.00000000       0.15583323      -0.09523026       0.19252046
Ni       7.86057747       4.53094082       0.20652483        4       1.00000000       0.22604728      -0.02747268       0.22768752
Ni      10.35996675       4.56297596       0.14978422        4       1.00000000      -0.21609221       0.12365284       0.07888599
Pt       3.82548128       6.87082175       0.16547067        4       0.00000000      -0.07946117       0.09571420       0.13687459
Pt       6.60019553       6.79996289       0.17428114        4       0.00000000       0.10829647       0.02094338       0.26877311
Ni       9.15384643       6.80044457       0.13911709        4       1.00000000       0.21241727      -0.07086119       0.13333768
Ni      11.66762411       6.83980341       0.23089189        4       1.00000000      -0.04768415       0.03726240       0.13616943
Pt       1.30188650       0.77904628       2.23678979        3       0.00000000      -0.00972232       0.02942530      -0.11658143
Pt       4.03352711       0.75259622       2.31518591        3       0.00000000       0.19820048       0.01789376       0.07724206
Ni       6.55731656       0.76720793       2.31446240        3       1.00000000       0.18314459      -0.05353565       0.10066152
Ni       9.03825945       0.78224007       2.31480896        3       1.00000000      -0.15606191       0.10853718      -0.05718808
Pt       2.62831141       3.04860027       2.32947733        3       0.00000000       0.06977381       0.01042713      -0.08421940
Ni       5.25470700       3.01970110       2.35874942        3       1.00000000       0.00207451      -0.06469579       0.23695905
Pt       7.75025316       3.02880414       2.33411449        3       0.00000000      -0.02977975      -0.05217893       0.08247368
Pt      10.34793279       3.10854650       2.26965618        3       0.00000000      -0.06365564      -0.02168655      -0.12948340
Pt       3.92340197       5.27763696       2.34545185        3       0.00000000       0.03369792      -0.02012056      -0.16819038
Ni       6.56396158       5.26230097       2.33875542        3       1.00000000       0.15475857      -0.08071278       0.06594552
Ni       9.11716635       5.29969855       2.33532354        3       1.00000000       0.00713187      -0.04672393       0.06922116
Ni      11.67418708       5.33763720       2.35221264        3       1.00000000      -0.06550955      -0.06911743       0.01422918
Pt       5.17874804       7.59103676       2.32968359        3       0.00000000      -0.00318265       0.07349473      -0.19319518
Pt       7.88717427       7.48622654       2.34932462        3       0.00000000       0.02895700      -0.09412703       0.04897414
Pt      10.51704849       7.52290135       2.31614649        3       0.00000000       0.08630212      -0.06832299       0.14961040
Ni      12.98495209       7.63333517       2.37042252        3       1.00000000       0.04596932       0.19716642      -0.00289220
Pt      -0.06904214       1.58024005       4.55525655        2       0.00000000      -0.24447356       0.14117163      -0.15078926
Pt       2.65084051       1.53711415       4.51562570        2       0.00000000       0.01400134       0.03582075       0.08700987
Ni       5.29359370       1.54720813       4.49311351        2       1.00000000       0.18475855       0.04369718      -0.11923654
Ni       7.77734215       1.55138065       4.51628014        2       1.00000000      -0.21181627       0.11953115      -0.21089094
Pt       1.23942626       3.83002217       4.49502058        2       0.00000000      -0.14592989       0.14717607      -0.04537728
Ni       3.97641814       3.76284411       4.49577693        2       1.00000000       0.09513888      -0.08079295      -0.03554096
Ni       6.55967692       3.75387505       4.49654500        2       1.00000000       0.06830938      -0.12568280      -0.09462253
Ni       9.08482135       3.83190845       4.54765244        2       1.00000000      -0.23541181       0.07851002      -0.20105362
Pt       2.55531876       6.09665116       4.43567845        2       0.00000000      -0.18846625       0.11393790      -0.01647798
Pt       5.30790592       5.98143086       4.46737498        2       0.00000000       0.14213777      -0.04872970       0.11203189
Ni       7.88876040       6.00302997       4.52852850        2       1.00000000       0.13744024      -0.21694734      -0.14207579
Ni      10.38249032       6.04954529       4.56757084        2       1.00000000      -0.22285591      -0.12942399      -0.05531491
Pt       3.83202283       8.40717190       4.49226920        2       0.00000000      -0.17027966       0.11105742      -0.10217108
Pt       6.54564272       8.34163741       4.56147984        2       0.00000000      -0.10621154      -0.03549508      -0.00017783
Pt       9.20899926       8.26424413       4.59839742        2       0.00000000       0.04498340      -0.05660460       0.13646098
Ni      11.72787837       8.38228716       4.55799963        2       1.00000000      -0.11821193       0.22042916      -0.07342538
Ni       0.03737551       0.06449511       6.62008006        1       1.00000000      -0.05195508       0.09145865      -0.30246559
Ni       2.61866415       0.02002062       6.71784207        1       1.00000000      -0.10594867       0.07368612      -0.13761947
Pt       5.22652451      -0.00325266       6.75076825        1       0.00000000      -0.00740803      -0.03132941       0.18522956
Ni       7.85597937       0.04938592       6.74481550        1       1.00000000       0.05018959       0.01533330      -0.10055799
Ni       1.29042211       2.25178369       6.71325583        1       1.00000000      -0.17641986      -0.08003098      -0.13044913
Pt       3.91155840       2.24255050       6.65125930        1       0.00000000      -0.04756430      -0.02946118      -0.25933046
Pt       6.63246981       2.23713364       6.70055137        1       0.00000000       0.16478360      -0.03242393       0.02953171
Ni       9.16872862       2.27903942       6.77634311        1       1.00000000       0.07963584      -0.03047174       0.02619712
Pt       2.58107474       4.50941436       6.65466433        1       0.00000000      -0.03465657      -0.06025297      -0.28502675
Pt       5.27189649       4.52289644       6.65861279        1       0.00000000       0.09529098      -0.01545478      -0.12766275
Pt       7.96061626       4.55215963       6.71667277        1       0.00000000       0.09050142      -0.06463373       0.06153858
Ni      10.42068196       4.54024466       6.76761728        1       1.00000000       0.01261956      -0.12665567      -0.12863246
Pt       3.94332028       6.89622125       6.67900937        1       0.00000000       0.01747835       0.04557424      -0.28057739
Pt       6.63146969       6.86765278       6.69877329        1       0.00000000       0.06731270       0.02338796      -0.24734124
Ni       9.14707409       6.81486416       6.76255745        1       1.00000000       0.00068789      -0.04880494      -0.10504757
Pt      11.66265053       6.81620022       6.79461286        1       0.00000000      -0.09907700      -0.10460027       0.06318387
