64
Lattice="10.364068598715319 -0.01784805228159569 0.016023531979389237 5.166577432673728 8.888097865889252 -0.012842882756946183 0.013083159075557394 -0.019661951397350996 8.822449008994523" Properties=species:S:1:pos:R:3:tags:I:1:initial_magmoms:R:1:forces:R:3 unique_id=e65c9a9f6e0d47c594a44ab66a011943 stress="0.000272466792073954 4.82864737326032e-06 -1.4114192377988598e-05 4.82864737326032e-06 0.0002782596925799477 1.4500676349997821e-05 -1.4114192377988598e-05 1.4500676349997821e-05 0.0002633798250641778" energy=-399.25376669650217 pbc="T T T"
Ni       0.00038988       0.01867519       0.18150143        4       1.00000000       0.04263364       0.07759038       0.24845105
Ni       2.59016440       0.00103765       0.21383487        4       1.00000000       0.00726746       0.02070684       0.40008266
Ni       5.17724959      -0.02008744       0.17078061        4       1.00000000      -0.03576318       0.13648421       0.24365363
Ni       7.78041584      -0.05496056       0.19625781        4       1.00000000      -0.02948314      -0.12083680       0.37207028
Ni       1.26314044       2.22628313       0.18342696        4       1.00000000      -0.13921329       0.00931927       0.32161705
Pt       3.82177706       2.22173650       0.11698132        4       0.00000000      -0.06186595       0.04620839      -0.13902560
Pt       6.49736864       2.16561916       0.20100073        4       0.00000000       0.08337711      -0.06135996       0.19454695
Ni       9.10359154       2.21069631       0.15781636        4       1.00000000       0.13333064       0.05275673       0.12517914
Ni       2.56594526       4.46051016       0.05183818        4       1.00000000      -0.05777374       0.00058563      -0.07735040
Ni       5.16757091       4.44514428       0.15497409        4       1.00000000       0.18635537      -0.08726845       0.21460194
Pt       7.84442317       4.44737041       0.11082494        4       0.00000000       0.14729232       0.00560678      -0.12129312
Ni      10.38072275       4.42543131       0.08059238        4       1.00000000       0.08663446      -0.07491906       0.09121147
Ni       3.84042259       6.68273893       0.07874985        4       1.00000000      -0.08602110       0.09152433       0.10028389
Pt       6.44426657       6.70983750       0.19177152        4       0.00000000      -0.05036973       0.02086444       0.13210799
Ni       9.07972519       6.66910201       0.07601310        4       1.00000000      -0.00539289       0.01849283       0.02391784
Ni      11.66501597       6.65247886       0.06328134        4       1.00000000       0.09864559      -0.02102305      -0.01397831
Ni       1.30776006       0.75600337       2.17205043        3       1.00000000      -0.01106989       0.11573562      -0.04753567
Ni       3.87819047       0.75335805       2.21104268        3       1.00000000       0.03735009       0.05738109       0.02423762
Ni       6.47469962       0.73994805       2.25302421        3       1.00000000      -0.01098145       0.09962104       0.15067294
Pt       9.07781365       0.76723616       2.19873384        3       0.00000000      -0.01775422       0.12067629       0.12729587
Ni       2.57027802       2.93404860       2.21057213        3       1.00000000      -0.08131449       0.03897285      -0.05670735
Ni       5.17177565       2.92648808       2.24844344        3       1.00000000      -0.11180091      -0.12365056       0.04268838
Ni       7.80046526       2.96228061       2.25156786        3       1.00000000       0.18368947       0.04652341      -0.06258400
Ni      10.35965529       2.93478487       2.22804633        3       1.00000000      -0.00245404       0.02361349       0.10616463
Pt       3.89183542       5.15920675       2.15812875        3       0.00000000      -0.07074683      -0.05276328      -0.05108904
Ni       6.50784452       5.16492595       2.22109871        3       1.00000000       0.11811060       0.02568097      -0.07081880
Ni       9.03888719       5.14774271       2.24361502        3       1.00000000      -0.03664698      -0.07105472       0.15169058
Pt      11.63382730       5.10115721       2.18280051        3       0.00000000      -0.04026337      -0.06599427      -0.01157000
Ni       5.16319995       7.41834443       2.18953205        3       1.00000000      -0.12868234       0.02335015      -0.07731659
Ni       7.76521921       7.39599199       2.20201606        3       1.00000000       0.03902528      -0.07825933      -0.02968606
Pt      10.33163373       7.40470742       2.11419966        3       0.00000000       0.01373792      -0.14090289      -0.06440411
Ni      12.95181131       7.38702548       2.17329471        3       1.00000000      -0.01598343      -0.09137359      -0.06142120
Ni      -0.00697137       1.53973363       4.34873315        2       1.00000000       0.05093002       0.19076058      -0.10230781
Pt       2.60982771       1.57384826       4.29241855        2       0.00000000      -0.05752769       0.02211890      -0.02949336
Ni       5.18042803       1.49274597       4.34532543        2       1.00000000       0.00210499       0.03871323      -0.18485231
Ni       7.79817670       1.48364888       4.35224844        2       1.00000000       0.05508849       0.00763396      -0.09636798
Ni       1.29560453       3.70352392       4.36852489        2       1.00000000       0.00067168      -0.02133122      -0.16319490
Ni       3.86129751       3.69248054       4.37660932        2       1.00000000      -0.02180922       0.05937524      -0.17865254
Pt       6.52969642       3.66156494       4.27293262        2       0.00000000      -0.01650848      -0.10954479       0.05419968
Ni       9.08042095       3.66147475       4.35376351        2       1.00000000       0.06813787      -0.13354350      -0.28560313
Ni       2.57159642       5.86689214       4.41685685        2       1.00000000      -0.05355463      -0.09037884      -0.06944812
Pt       5.14740045       5.87144858       4.32595918        2       0.00000000       0.08924598      -0.00338501       0.01459990
Ni       7.79742103       5.86460452       4.35326890        2       1.00000000       0.02516434      -0.05727738      -0.23970993
Pt      10.35045040       5.80271875       4.44916834        2       0.00000000      -0.02463641      -0.00839701      -0.09031115
Pt       3.86266790       8.14452920       4.31555899        2       0.00000000      -0.06187692       0.00608271       0.08584324
Pt       6.46947892       8.16359981       4.24997667        2       0.00000000      -0.05369288       0.06655811      -0.01369389
Pt       9.05035310       8.11660436       4.32136673        2       0.00000000      -0.06282248       0.04846700       0.05291395
Pt      11.66227640       8.14168833       4.32011448        2       0.00000000       0.04640007       0.01297126       0.01184105
Pt       0.00733004      -0.02917143       6.60481487        1       0.00000000      -0.00171944       0.01812014       0.10508328
Pt       2.62237011      -0.00509828       6.63123160        1       0.00000000       0.02598155       0.08186159       0.21953484
Pt       5.18191811      -0.08522620       6.61257740        1       0.00000000      -0.03843421      -0.23197473       0.08083618
Pt       7.77498453      -0.10685196       6.63766798        1       0.00000000       0.03147319      -0.13442700       0.18513865
Pt       1.33703944       2.33319821       6.56488063        1       0.00000000       0.05982327       0.20221781       0.18872959
Ni       3.88228234       2.22660584       6.47061157        1       1.00000000      -0.01221221      -0.03827523      -0.29331719
Pt       6.46359803       2.20804625       6.48509013        1       0.00000000      -0.04353184       0.02754492      -0.21698421
Pt       9.08190082       2.28800279       6.53032596        1       0.00000000       0.01689096       0.05260981      -0.00447570
Ni       2.56886593       4.48117935       6.51796032        1       1.00000000      -0.13992195       0.22570319      -0.27264318
Pt       5.07471161       4.41065142       6.57819067        1       0.00000000      -0.17135422       0.00568432       0.07421503
Ni       7.81648110       4.44616174       6.46471968        1       1.00000000       0.06964952       0.01738224      -0.32143925
Ni      10.37100686       4.46352618       6.55907709        1       1.00000000      -0.00204681       0.10960801      -0.02575988
Ni       3.83635191       6.61151454       6.54203759        1       1.00000000      -0.08788339      -0.04750954      -0.16491313
Pt       6.52890092       6.58127942       6.50212538        1       0.00000000       0.05582253      -0.06559444      -0.23082026
Ni       9.09424817       6.58151800       6.55341494        1       1.00000000       0.03092356      -0.12724350      -0.12948384
Ni      11.66660884       6.56519460       6.55837652        1       1.00000000       0.03735571      -0.16681959      -0.14515732
