64
Lattice="10.40662155776029 0.01761626401820341 0.022765942052023435 5.2185669110396855 8.984282201690135 0.016940173896078766 0.018588313847075648 0.005239381111804993 8.869626754867385" Properties=species:S:1:pos:R:3:tags:I:1:initial_magmoms:R:1:forces:R:3 unique_id=8ce3bb80b5f14d0a84de3a840129bcc5 stress="0.0004101970993881654 4.007447228607376e-06 -2.2604626301856825e-05 4.007447228607376e-06 0.0004056545562529171 1.1438855784902298e-06 -2.2604626301856825e-05 1.1438855784902298e-06 0.0003810483119498914" energy=-402.06625843584504 pbc="T T T"
Ni      -0.01377203       0.02080370       0.19580925        4       1.00000000      -0.05629536       0.10431978       0.32123915
Ni       2.60497789       0.00763014       0.20607407        4       1.00000000       0.03394529      -0.00279096       0.40029406
Ni       5.20662493      -0.00853780       0.17033310        4       1.00000000      -0.03054566       0.11155801       0.23028261
Ni       7.83053099      -0.02407259       0.12451254        4       1.00000000       0.10077947      -0.12266469       0.23088535
Ni       1.29835455       2.23303621       0.17295871        4       1.00000000       0.02335897      -0.11659561       0.21540095
Pt       3.85291149       2.24512667       0.20548047        4       0.00000000      -0.05590153       0.01998739       0.11587855
Pt       6.51663546       2.18269458       0.16787565        4       0.00000000       0.06170097      -0.08917658       0.17990748
Ni       9.13882403       2.22698805       0.15818506        4       1.00000000       0.02509476      -0.16813687       0.09419425
Ni       2.60332426       4.50300805       0.15180744        4       1.00000000       0.00904534      -0.02752690       0.15861745
Ni       5.20755192       4.50127135       0.17505703        4       1.00000000       0.16997403      -0.08225548       0.27273919
Pt       7.88655439       4.53138003       0.09009767        4       0.00000000       0.13285194      -0.00819593      -0.13072600
Ni      10.44094072       4.51959018       0.08542931        4       1.00000000       0.11266745       0.03799856       0.01267182
Ni       3.89117722       6.76657934       0.18703893        4       1.00000000      -0.03808552       0.15953314       0.24256528
Pt       6.50135389       6.80138653       0.22225219        4       0.00000000      -0.03671767       0.07354925       0.09131331
Ni       9.14458138       6.76321365       0.10267776        4       1.00000000       0.01063760       0.06271331       0.03531413
Ni      11.73175372       6.76495278       0.09425917        4       1.00000000       0.11233440       0.09184356      -0.02415640
Ni       1.30722168       0.72805407       2.18200186        3       1.00000000      -0.00808836      -0.07420502      -0.12854810
Ni       3.90376934       0.75842626       2.23498134        3       1.00000000       0.06765474      -0.00705421       0.02047536
Ni       6.51523509       0.74037818       2.26281423        3       1.00000000       0.04481790      -0.02124052       0.09640002
Ni       9.11102198       0.72914395       2.21662214        3       1.00000000      -0.05074900      -0.04672274      -0.12084115
Ni       2.61683790       2.98801663       2.23598849        3       1.00000000      -0.01178451       0.11754795      -0.00906367
Ni       5.19289675       2.98112069       2.27742676        3       1.00000000      -0.03173774      -0.14090130       0.10973029
Pt       7.82892158       2.97280640       2.29523513        3       0.00000000       0.03036620      -0.08341649      -0.17160358
Pt      10.43017895       2.94558517       2.22300040        3       0.00000000       0.05179209      -0.02333232       0.02573009
Pt       3.93978099       5.23350559       2.19530930        3       0.00000000      -0.02691247      -0.03963946       0.03458799
Ni       6.54177619       5.25873717       2.25229490        3       1.00000000       0.15880024       0.01367595      -0.00506243
Ni       9.09927502       5.27644144       2.28055798        3       1.00000000      -0.03590764       0.02528962       0.14099261
Pt      11.71307806       5.28442868       2.20881500        3       0.00000000      -0.08676298       0.06750613      -0.02271285
Ni       5.20332897       7.53127418       2.21845976        3       1.00000000      -0.12307487       0.08377585      -0.09030398
Ni       7.82397669       7.49597857       2.24372874        3       1.00000000       0.04894668      -0.06665853       0.00548813
Pt      10.39604896       7.52352566       2.16787897        3       0.00000000      -0.02984543      -0.04161083      -0.03425642
Ni      13.04258754       7.53834292       2.22209309        3       1.00000000      -0.02806097       0.06290779      -0.11462761
Ni      -0.02064567       1.52349503       4.38271200        2       1.00000000      -0.04161251       0.08586097      -0.10705483
Pt       2.63489744       1.54109247       4.28112925        2       0.00000000       0.00981261       0.05617519      -0.05200697
Ni       5.23198307       1.51256584       4.36335485        2       1.00000000       0.02318077      -0.04078261      -0.25280479
Ni       7.83615051       1.51200390       4.39783513        2       1.00000000       0.02778825       0.00982338      -0.14672777
Pt       1.26334263       3.80176030       4.39803717        2       0.00000000      -0.00001856       0.02086467       0.05835115
Ni       3.92086366       3.75068302       4.38395819        2       1.00000000      -0.03361307       0.01252035      -0.13297646
Pt       6.54643839       3.74394128       4.37512725        2       0.00000000      -0.09838997      -0.00813437       0.08239907
Ni       9.12330215       3.78979406       4.44095475        2       1.00000000       0.01258415       0.11365070      -0.16732405
Ni       2.59773694       5.99173130       4.41167695        2       1.00000000      -0.03895373       0.03901959      -0.14428450
Pt       5.20462187       5.97622102       4.34809242        2       0.00000000      -0.00383945       0.09983189       0.07157172
Ni       7.88480974       5.95622867       4.40473861        2       1.00000000       0.09984871      -0.08842196      -0.23365718
Ni      10.39795774       5.98238644       4.47330892        2       1.00000000      -0.06568310       0.00562535      -0.08766362
Pt       3.89882819       8.29627190       4.32225930        2       0.00000000       0.02491616       0.04922732      -0.09603262
Pt       6.52421822       8.25344949       4.30177475        2       0.00000000       0.01052853       0.03973803      -0.03049756
Pt       9.13750642       8.18078063       4.39325394        2       0.00000000      -0.05895996      -0.00665110       0.05160354
Pt      11.75021980       8.24221789       4.40659502        2       0.00000000      -0.03869751      -0.01900058      -0.08980071
Pt      -0.03477034       0.01171094       6.63337081        1       0.00000000      -0.00719699       0.01937457       0.16571031
Pt       2.63941560      -0.03184258       6.66177871        1       0.00000000       0.02049723      -0.04947619       0.19967377
Pt       5.26809596      -0.09029900       6.65230701        1       0.00000000       0.00233694      -0.23578233       0.13540186
Ni       7.80459576       0.01114908       6.60480423        1       1.00000000       0.02014784       0.03122690      -0.15840268
Pt       1.27650652       2.28374862       6.63607456        1       0.00000000       0.01514637       0.02406213       0.09924996
Pt       3.92901005       2.25480460       6.52719643        1       0.00000000      -0.05126218      -0.05911064      -0.21752802
Pt       6.55868932       2.20973754       6.52462835        1       0.00000000      -0.03190445      -0.08766595      -0.27021032
Pt       9.10448899       2.33307075       6.57895564        1       0.00000000       0.02039022       0.11603967      -0.01733780
Pt       2.53803778       4.55973246       6.61570277        1       0.00000000      -0.13400916       0.04691778       0.09290346
Pt       5.24137719       4.50043245       6.63653642        1       0.00000000      -0.04822943       0.02874354       0.09333059
Ni       7.88198225       4.52359050       6.50986371        1       1.00000000       0.10832809       0.05233283      -0.32578691
Ni      10.37562246       4.57369560       6.59280104        1       1.00000000      -0.16625849       0.16383159      -0.20931286
Pt       3.83188883       6.78769449       6.64389442        1       0.00000000      -0.11224497       0.08615956       0.12435139
Pt       6.60906240       6.69321885       6.55606926        1       0.00000000       0.08376784      -0.02795892      -0.16200761
Ni       9.17170062       6.67790939       6.59647297        1       1.00000000       0.08258221      -0.20725097      -0.21027638
Ni      11.68871540       6.73464380       6.60942832        1       1.00000000      -0.17528072      -0.14087225      -0.24565906
