64
Lattice="10.302910667826385 -0.02309581436175432 -0.006855423249446984 5.131453771954821 8.878211465449212 -0.0729934535216638 -0.005597429643985924 -0.06558721044479925 8.784091040874577" Properties=species:S:1:pos:R:3:tags:I:1:initial_magmoms:R:1:forces:R:3 unique_id=a7c33731335f424c8d2978f149572583 stress="0.00019399851370903443 5.094806846568652e-06 -1.4865000649930075e-05 5.094806846568652e-06 0.00020688933862344355 3.1113853270451e-05 -1.4865000649930075e-05 3.1113853270451e-05 0.0001991481416970184" energy=-397.0225282320262 pbc="T T T"
Ni      -0.01905444       0.02394684       0.20889870        4       1.00000000      -0.06448276       0.04412176       0.31746228
Ni       2.56415242      -0.00879939       0.21100630        4       1.00000000      -0.07412040      -0.01612299       0.41619769
Ni       5.14077037      -0.03941624       0.16011116        4       1.00000000      -0.02554972       0.10039157       0.33673217
Ni       7.76137385      -0.06551451       0.09531708        4       1.00000000       0.11457970      -0.11836793       0.19950347
Ni       1.24331706       2.21385056       0.09507616        4       1.00000000      -0.15349196      -0.04244302       0.23704130
Pt       3.78286681       2.21405273       0.09223268        4       0.00000000      -0.09392922      -0.02557572      -0.13707418
Pt       6.45683462       2.18751729       0.11283353        4       0.00000000       0.03936761      -0.09409756       0.21772857
Ni       9.05512764       2.16883166       0.15770837        4       1.00000000       0.06589232      -0.11919792       0.24356794
Ni       2.56272322       4.44630338       0.03606225        4       1.00000000       0.08490843      -0.00575298       0.02157041
Ni       5.10375490       4.44518311       0.14895875        4       1.00000000      -0.04992221       0.02267355       0.31813038
Pt       7.79611543       4.43683382       0.06758623        4       0.00000000       0.14356274       0.00309656      -0.08990145
Ni      10.32092033       4.40258360       0.03050368        4       1.00000000       0.10645569      -0.13411053       0.11361140
Ni       3.81419699       6.65387426       0.13898117        4       1.00000000      -0.04738268      -0.08555668       0.27122131
Pt       6.38943901       6.68880614       0.13479448        4       0.00000000      -0.10435967      -0.00465492       0.09409689
Ni       9.01428599       6.64953619       0.00761398        4       1.00000000      -0.03201599      -0.00141182       0.01559108
Ni      11.59779829       6.63230124       0.00270932        4       1.00000000       0.13170130      -0.03738110      -0.00199454
Ni       1.26204550       0.74303510       2.15822312        3       1.00000000      -0.08865072       0.12884625      -0.01303821
Ni       3.82984712       0.73617235       2.18512739        3       1.00000000       0.04269519       0.03873735       0.01747927
Pt       6.48499766       0.73571417       2.24788846        3       0.00000000       0.06745423       0.18853523      -0.09241050
Ni       9.05099657       0.72293543       2.17285610        3       1.00000000       0.05949268       0.08786314       0.04041493
Ni       2.56941868       2.92919017       2.18088423        3       1.00000000      -0.02095632       0.00405806      -0.01202638
Ni       5.10323526       2.97632780       2.20161721        3       1.00000000      -0.15437924       0.00273815      -0.06687971
Ni       7.78075551       2.94806967       2.20568221        3       1.00000000       0.20427888      -0.01300413      -0.08149123
Ni      10.27627171       2.88197225       2.16086385        3       1.00000000       0.02763864      -0.05618647       0.04944661
Ni       3.88432304       5.16192169       2.16887640        3       1.00000000       0.05020088      -0.00663113       0.10125712
Ni       6.40839270       5.15796377       2.18835865        3       1.00000000      -0.02602354       0.12125306      -0.07414883
Ni       8.97886342       5.11752073       2.18904381        3       1.00000000      -0.01137229      -0.13767363       0.12878890
Pt      11.62767388       5.09617705       2.09275774        3       0.00000000       0.06706612      -0.07678357      -0.01498706
Ni       5.09357686       7.37612271       2.13280223        3       1.00000000      -0.12081463      -0.08088562      -0.09686011
Ni       7.69669090       7.37200603       2.13613140        3       1.00000000      -0.01482012      -0.11165890      -0.08433506
Pt      10.24265818       7.33803754       2.04503588        3       0.00000000       0.04661442      -0.12261942      -0.01283476
Ni      12.90590579       7.34943266       2.09425798        3       1.00000000      -0.02079837      -0.06302234      -0.04158029
Ni      -0.03035630       1.47899738       4.30558111        2       1.00000000      -0.01095896       0.02733667      -0.21024058
Pt       2.59648631       1.49651394       4.29095528        2       0.00000000      -0.02701658      -0.00968563      -0.08643500
Ni       5.13325659       1.47533507       4.32264283        2       1.00000000      -0.01145260       0.09350864      -0.13001439
Ni       7.77076387       1.46455086       4.31671627        2       1.00000000       0.21566722       0.10710496      -0.09601827
Pt       1.27051088       3.65879266       4.36874689        2       0.00000000      -0.03212312      -0.07130526      -0.07448332
Ni       3.86163961       3.69478104       4.29740355        2       1.00000000       0.00107228       0.09782510      -0.24388384
Pt       6.44440799       3.68538685       4.21723347        2       0.00000000      -0.06883011      -0.05137605       0.00155115
Ni       8.98836772       3.62799036       4.29792009        2       1.00000000       0.00762647      -0.08468051      -0.27530545
Ni       2.58910750       5.84854565       4.30423577        2       1.00000000       0.07984612      -0.06345396      -0.16637704
Ni       5.10414727       5.84788759       4.25690709        2       1.00000000      -0.09251557      -0.00776257      -0.16003844
Ni       7.71509383       5.83209173       4.26985106        2       1.00000000      -0.05042237      -0.00750774      -0.25447210
Pt      10.24376854       5.81554181       4.37017639        2       0.00000000      -0.05266630      -0.04971946      -0.09178353
Pt       3.84206305       8.11806166       4.20381577        2       0.00000000      -0.02204964       0.00556216       0.01320705
Pt       6.39322197       8.07589711       4.16727038        2       0.00000000      -0.01020660      -0.03520806       0.01108719
Pt       8.97739416       8.08725763       4.24922908        2       0.00000000      -0.02319642       0.05350941       0.10486371
Pt      11.60892119       8.09149959       4.31313224        2       0.00000000       0.03210999      -0.07836796       0.11869163
Pt      -0.02349405       0.00159183       6.57882557        1       0.00000000      -0.03705269       0.08469958       0.17310649
Pt       2.58735554       0.00941579       6.60405827        1       0.00000000      -0.00265938       0.13207724       0.26790890
Pt       5.18099095      -0.11364902       6.59054992        1       0.00000000       0.03000098      -0.12463719       0.16927841
Ni       7.72436208      -0.06231616       6.52947551        1       1.00000000       0.07877785       0.12393141      -0.08437217
Ni       1.29788629       2.23613214       6.51063223        1       1.00000000       0.05651298       0.13657428      -0.02077002
Ni       3.82941368       2.19992188       6.42390548        1       1.00000000      -0.02440502       0.04556595      -0.28008144
Pt       6.44526091       2.15048662       6.39828413        1       0.00000000       0.03073164       0.04032963      -0.39962860
Pt       9.05058986       2.24816864       6.47757431        1       0.00000000       0.16656610       0.16947969       0.11825914
Ni       2.51293145       4.37500594       6.48287586        1       1.00000000      -0.13618199      -0.00080362      -0.13192194
Pt       5.06544629       4.35440282       6.48292252        1       0.00000000      -0.11414088       0.00317196       0.08291922
Ni       7.76377760       4.40530869       6.39065442        1       1.00000000       0.06285065       0.09452478      -0.32282600
Ni      10.30573550       4.40645690       6.49519683        1       1.00000000       0.06739581       0.15967732       0.00734073
Pt       3.73326013       6.60062739       6.48861379        1       0.00000000      -0.13935215       0.05402808       0.14985314
Pt       6.47898373       6.55533510       6.39352003        1       0.00000000      -0.01153192       0.01885520      -0.29372281
Ni       9.02201285       6.55072837       6.47324471        1       1.00000000      -0.03070364      -0.07559869      -0.11198328
Ni      11.55264110       6.55229081       6.47688674        1       1.00000000      -0.08053112      -0.17683167      -0.10398799
