64
Lattice="10.226505636098045 0.014275329345586937 0.01690591755918179 5.125615615909692 8.787771135304789 -0.04176699867285068 0.01380362388451804 -0.0473478299540288 8.75134860696883" Properties=species:S:1:pos:R:3:tags:I:1:initial_magmoms:R:1:forces:R:3 unique_id=1faec4e4a61442e29f3535195d1be434 stress="-7.381976591025463e-05 1.951052318886591e-06 -2.5628319936491175e-06 1.951052318886591e-06 -6.159969405574589e-05 8.82525265296226e-06 -2.5628319936491175e-06 8.82525265296226e-06 -2.1984433656897784e-05" energy=-392.57832499618496 pbc="T T T"
Ni       0.03626902      -0.04894644       0.18240944        4       1.00000000       0.10094964      -0.10591024       0.29952470
Ni       2.50515367      -0.00192562       0.16909500        4       1.00000000      -0.08466935       0.08706528       0.19315534
Pt       5.11427623      -0.04895447       0.15836571        4       0.00000000      -0.01567468      -0.13696395       0.37493000
Ni       7.69273228      -0.05059634       0.18070397        4       1.00000000       0.00053261      -0.10800889       0.27368399
Ni       1.28175827       2.21057240       0.10273174        4       1.00000000       0.02390283       0.10184554       0.24271538
Pt       3.75817122       2.26232768       0.17288023        4       0.00000000      -0.07596435       0.14258799       0.17024549
Pt       6.41000605       2.27045078       0.10765209        4       0.00000000       0.04973342       0.14077345       0.04815909
Pt       9.02684317       2.26481012       0.14527741        4       0.00000000       0.07715738       0.07354113       0.24524246
Ni       2.53928980       4.43711918       0.07904166        4       1.00000000      -0.00645807       0.09522665       0.17569296
Ni       5.11529689       4.46869805       0.08566403        4       1.00000000      -0.08528729       0.15083411       0.17932085
Ni       7.67609726       4.46127835       0.09173068        4       1.00000000       0.00976553       0.15301582       0.21021545
Ni      10.26994089       4.43702900       0.09721922        4       1.00000000       0.17192377       0.14258903       0.19500278
Ni       3.84699532       6.56916415       0.07198949        4       1.00000000       0.00711708      -0.06254858       0.13840089
Ni       6.36717422       6.56739459       0.05077624        4       1.00000000      -0.14892442      -0.09343578      -0.00065556
Ni       8.95082981       6.53218948       0.14079906        4       1.00000000       0.06706569      -0.16462802       0.24284463
Ni      11.55823491       6.54271973       0.06264871        4       1.00000000       0.13828633      -0.10208699       0.04356475
Ni       1.30613412       0.76706674       2.17692684        3       1.00000000       0.06898867       0.14952821       0.00705819
Ni       3.82190582       0.78271966       2.24006888        3       1.00000000      -0.00450524       0.14408793      -0.03111774
Ni       6.39058295       0.76018617       2.26422934        3       1.00000000      -0.10544518       0.03976097       0.10507621
Pt       8.93357586       0.70264136       2.21420029        3       0.00000000      -0.03176236       0.13219642      -0.10575715
Ni       2.53350530       2.95351360       2.25273994        3       1.00000000       0.00258253       0.10533881       0.12872812
Ni       5.09825339       2.94755841       2.23274259        3       1.00000000      -0.19652070       0.05583799      -0.02778549
Ni       7.67632668       2.96993963       2.23909709        3       1.00000000       0.08648866       0.02348522       0.05631351
Ni      10.28409495       2.99045376       2.22097709        3       1.00000000       0.09909378       0.12491517       0.04203843
Ni       3.83706033       5.10816757       2.17642307        3       1.00000000      -0.04072211      -0.08186707       0.04735586
Ni       6.36127986       5.09076131       2.14086311        3       1.00000000      -0.15950963      -0.09474768      -0.06246805
Ni       8.97219283       5.05843614       2.16851912        3       1.00000000       0.03225919      -0.16973990       0.03880234
Ni      11.55339203       5.07493695       2.19471936        3       1.00000000       0.19247759      -0.17408272       0.10015033
Ni       5.10526822       7.25336204       2.13569559        3       1.00000000      -0.09410566      -0.26219411      -0.02771861
Pt       7.60339532       7.30714346       2.10744601        3       0.00000000      -0.07622391      -0.04495106      -0.06661155
Pt      10.32897758       7.22239235       2.21763120        3       0.00000000       0.08475734      -0.13613855      -0.14650046
Ni      12.81646217       7.25671253       2.15144726        3       1.00000000       0.09728454      -0.29606357      -0.05380703
Pt       0.09367290       1.50255318       4.28634390        2       0.00000000       0.03198241       0.03563820       0.12421599
Ni       2.57823049       1.50422165       4.28662101        2       1.00000000       0.14745566       0.20470051      -0.16112075
Ni       5.13060399       1.46276608       4.28425904        2       1.00000000      -0.09612178      -0.02218518      -0.18715845
Ni       7.64051592       1.44140545       4.33035601        2       1.00000000       0.00615220      -0.07818728      -0.05641940
Ni       1.32317749       3.68635958       4.33178557        2       1.00000000       0.08566231       0.07295824      -0.06810804
Ni       3.80230234       3.68851095       4.27961888        2       1.00000000      -0.11389615       0.12270933      -0.23581008
Pt       6.35028845       3.60040683       4.31789771        2       0.00000000      -0.06771276      -0.02693791      -0.05775256
Ni       8.99364630       3.68440726       4.29671748        2       1.00000000       0.10029312       0.03491710      -0.21358208
Ni       2.55148433       5.77677762       4.32596016        2       1.00000000      -0.04336563      -0.09410123      -0.17640052
Ni       5.09026614       5.80160691       4.32956372        2       1.00000000      -0.08165619      -0.17168241      -0.15905904
Pt       7.66142610       5.80767409       4.30660820        2       0.00000000       0.02573843      -0.01926057      -0.00325028
Ni      10.30678997       5.79022588       4.34022923        2       1.00000000       0.07644353      -0.11281197       0.00065758
Pt       3.83569604       7.92349555       4.25774668        2       0.00000000       0.02543535      -0.15459886       0.10983654
Ni       6.39342985       8.02109150       4.28844885        2       1.00000000      -0.08025252      -0.01987548      -0.07904613
Pt       8.96411262       8.08941575       4.24919653        2       0.00000000      -0.02677829       0.04064828       0.13106666
Ni      11.54561141       8.01402266       4.28700982        2       1.00000000       0.04782354      -0.08453697      -0.03911796
Pt       0.00831822      -0.09261772       6.54373395        1       0.00000000       0.11173162      -0.06029473       0.15901414
Pt       2.54166070      -0.01797011       6.52115917        1       0.00000000      -0.11478606       0.03640002       0.04526646
Pt       5.15525181      -0.00704986       6.42419592        1       0.00000000       0.05512911       0.06951171      -0.37514066
Pt       7.67708357      -0.06892033       6.52542792        1       0.00000000      -0.10054596      -0.09020506       0.07929829
Ni       1.29470254       2.23366547       6.47186942        1       1.00000000       0.02418364       0.14307010      -0.10879343
Pt       3.83610616       2.29683729       6.37519030        1       0.00000000      -0.00865651       0.27910560      -0.26026296
Ni       6.39938596       2.21647170       6.40958695        1       1.00000000      -0.05073843       0.03851307      -0.18971379
Pt       8.94256206       2.28507325       6.41060847        1       0.00000000      -0.03289435       0.15361022      -0.35500106
Ni       2.54688174       4.41443676       6.43948294        1       1.00000000      -0.02991681       0.12095007      -0.17836879
Ni       5.13086010       4.42221120       6.46772572        1       1.00000000      -0.05232249       0.14475359      -0.09832966
Ni       7.62771782       4.37465587       6.48693779        1       1.00000000      -0.24506723       0.03847107      -0.07735407
Ni      10.31199296       4.37217457       6.45963068        1       1.00000000       0.22907124      -0.02475820      -0.19136977
Ni       3.84690075       6.47019643       6.45945817        1       1.00000000      -0.05509988      -0.19794763      -0.10379001
Ni       6.37432610       6.50014502       6.47009357        1       1.00000000      -0.05282837      -0.04251517      -0.17778629
Pt       8.99799434       6.45107422       6.52416619        1       0.00000000       0.03470205      -0.12541052       0.09900337
Ni      11.56018392       6.49920475       6.44829121        1       1.00000000       0.06624157      -0.03991054      -0.23142334
