64
Lattice="10.467457004129201 0.0062000160575599785 0.0401056998256393 5.239097873474319 9.084807440245571 -0.013163081922624833 0.0 0.0 21.696058635933642" Properties=species:S:1:pos:R:3:tags:I:1:initial_magmoms:R:1:forces:R:3 unique_id=13770ab489ba47c9ab5d723253732266 energy=-383.79513755598435 stress="0.005863407635655488 -6.768414267596716e-05 0.0004051048816716901 -6.768414267596716e-05 0.005776349861793843 -0.0002979638222446117 0.0004051048816716901 -0.0002979638222446117 -0.0023826220040272447" pbc="T T T"
Ni      -0.05603973      -0.02628376       0.08952427        1       1.00000000      -0.20322651      -0.06265782      -0.10058808
Ni       2.64417886      -0.03367184       0.00047201        0       1.00000000       0.09654434      -0.00911822       0.30232674
Ni       5.26354536      -0.04248501       0.08760293        1       1.00000000       0.14404594       0.06185322      -0.19768582
Ni       7.87656859      -0.04354011       0.06617659        1       1.00000000      -0.00848501      -0.07705084       0.59627547
Pt       1.26367704       2.26408616       0.02147529        0       0.00000000      -0.00157988      -0.01457635      -1.17915956
Pt       3.95644958       2.27405945       0.04406948        0       0.00000000       0.18232144       0.05333287      -1.04090123
Pt       6.58856986       2.19228541       0.08259243        1       0.00000000      -0.07781999      -0.13327831      -0.20506802
Ni       9.15051008       2.23859113       0.10499661        1       1.00000000       0.00171870      -0.15433056      -0.00305316
Ni       2.62784448       4.58215164       0.05656061        1       1.00000000       0.02234855      -0.01123772      -0.33885049
Ni       5.24995423       4.54677356       0.07851882        1       1.00000000       0.18127496      -0.06834731      -0.06017160
Pt       7.92069992       4.56787287       0.08794913        1       0.00000000      -0.02520795       0.05421398      -0.09103581
Ni      10.48295432       4.58852911       0.00082130        0       1.00000000       0.02380866       0.07989445       0.29059313
Ni       3.90387357       6.85164869       0.08427630        1       1.00000000      -0.04075324       0.16435084       0.00442199
Pt       6.53551284       6.86176845       0.12857337        1       0.00000000      -0.05655730      -0.02621490      -0.29385176
Ni       9.19219883       6.82727858       0.00812227        0       1.00000000      -0.02252817      -0.03825023       0.43307147
Ni      11.79700246       6.83557331       0.00000000        0       1.00000000       0.13625813       0.07700177       0.43013505
Pt       1.27681467       0.64197237       2.11606007        2       0.00000000       0.00703429      -0.16063272       0.15260183
Pt       4.00120542       0.73146917       2.18848028        3       0.00000000       0.04085498      -0.10550916       0.19109942
Ni       6.59453683       0.73120961       2.21642550        3       1.00000000       0.09188362      -0.05933359       0.16489860
Ni       9.10812436       0.71458507       2.16233209        3       1.00000000      -0.12980124      -0.01499954       0.00887099
Pt       2.63854309       3.04895900       2.17709855        3       0.00000000      -0.04225139       0.08277543       0.38504146
Ni       5.28008168       3.02705189       2.21116127        3       1.00000000       0.04956724       0.04683606       0.28642434
Pt       7.79430929       3.01280469       2.31222856        4       0.00000000      -0.04796985      -0.02569337       0.24033957
Pt      10.37964905       3.06176582       2.18156550        3       0.00000000      -0.20824033       0.15367773       0.12593121
Pt       4.00958036       5.36053508       2.08531786        2       0.00000000       0.08071036       0.03350782       0.10382245
Ni       6.59424144       5.30284800       2.20325066        3       1.00000000       0.10442878      -0.03263915       0.28904289
Ni       9.13546301       5.33042096       2.24067147        3       1.00000000      -0.08819901       0.07314500       0.20766563
Pt      11.75837293       5.35061516       2.12092857        2       0.00000000       0.02054761      -0.00886798       0.06188477
Ni       5.21280468       7.57179211       2.14203227        2       1.00000000      -0.10724895       0.03786997       0.18150800
Ni       7.87708497       7.50633638       2.18672916        3       1.00000000       0.10737507      -0.12871235       0.17332297
Pt      10.47578030       7.54708925       2.10537524        2       0.00000000      -0.02530559       0.02553415       0.03562568
Ni      13.11248864       7.62602811       2.14438359        2       1.00000000      -0.03298664       0.09807127      -0.05291484
Pt      -0.08882245       1.53195403       4.32570904        5       0.00000000      -0.14230056       0.03283611      -0.25934142
Pt       2.65846511       1.46421742       4.37812189        6       0.00000000      -0.06527247      -0.09976032      -0.24571052
Ni       5.30656275       1.50585388       4.35766593        6       1.00000000       0.06991429       0.04358087      -0.37855917
Ni       7.83044316       1.52831556       4.38197724        6       1.00000000      -0.05441692       0.03543962      -0.21766871
Pt       1.22524510       3.84074881       4.39932439        6       0.00000000      -0.09940910       0.04373561      -0.16947688
Pt       4.03038739       3.74395890       4.34309434        5       0.00000000       0.03161299       0.04013220      -0.19550070
Ni       6.60597526       3.75720464       4.38714190        6       1.00000000       0.03812630       0.00146405      -0.22318818
Ni       9.13199988       3.82355133       4.39133416        6       1.00000000      -0.08102320       0.04567772      -0.27081206
Pt       2.58724788       6.07031548       4.36407475        6       0.00000000       0.00212273       0.00534766      -0.11488116
Pt       5.34612065       6.00396381       4.31784507        5       0.00000000       0.04831851      -0.08275873      -0.17390467
Ni       7.92498149       5.98907222       4.34243052        5       1.00000000       0.09492234      -0.11725383      -0.32404931
Ni      10.42805958       6.02878069       4.45045517        7       1.00000000      -0.04946455      -0.00195637      -0.05630926
Pt       3.91697068       8.33924127       4.28579291        5       0.00000000       0.00966123       0.00807626      -0.16336328
Pt       6.58342143       8.27316540       4.33164026        5       0.00000000      -0.04711961       0.11489294      -0.18726210
Pt       9.19024170       8.21203516       4.41542478        6       0.00000000      -0.00369801      -0.07906082      -0.08934506
Pt      11.78732306       8.38085984       4.37757102        6       0.00000000      -0.07445291       0.02994830      -0.07886658
Pt       0.01331796      -0.02102658       6.68208318       10       0.00000000       0.05315431       0.02239783       0.05059713
Ni       2.65959092      -0.04272984       6.62506078        9       1.00000000       0.00956588       0.03636833      -0.14707188
Pt       5.25404694      -0.12706390       6.69605864       10       0.00000000      -0.01945916       0.18240013      -0.05688701
Ni       7.85252181      -0.02490660       6.63470629        9       1.00000000      -0.00657696      -0.00729299      -0.30156031
Pt       1.31576475       2.25330259       6.54956636        8       0.00000000      -0.03260926      -0.01165879       1.00838755
Pt       3.95598578       2.19901999       6.54919494        8       0.00000000       0.17351280      -0.03349798       0.96495512
Pt       6.58047813       2.20188285       6.49987685        8       0.00000000      -0.09146856       0.01682868       0.36841246
Pt       9.16955737       2.26751574       6.66263581       10       0.00000000      -0.07633825       0.14275063      -0.01692294
Pt       2.55806554       4.57232973       6.67563163       10       0.00000000       0.07279073      -0.08990108       0.20384562
Pt       5.27493337       4.53800571       6.64211567        9       0.00000000       0.09160632       0.02855247       0.24039523
Pt       7.96341917       4.57522218       6.49860278        8       0.00000000      -0.10696039      -0.01423001       0.25701425
Ni      10.47551350       4.59380036       6.61338693        9       1.00000000      -0.01877665       0.06745537      -0.23859634
Pt       3.86967400       6.84665932       6.67757541       10       0.00000000       0.12438036      -0.02494308      -0.03350302
Pt       6.66422241       6.83306460       6.57924690        9       0.00000000      -0.01137593      -0.10148231       0.35984616
Ni       9.23157998       6.77608759       6.60247312        9       1.00000000       0.05313425      -0.06902167      -0.28803797
Ni      11.74974127       6.78729547       6.63167841        9       1.00000000      -0.06466212      -0.07568123      -0.32425829
