64
Lattice="10.448869799364584 0.05013511166982139 0.006150628541253556 5.267853180009929 9.091380587448326 -0.04626624891861185 0.005021967174490277 -0.046519671900607414 8.987282972598308" Properties=species:S:1:pos:R:3:tags:I:1:initial_magmoms:R:1:forces:R:3 unique_id=a304ef1629984449bce368ed90718849 stress="0.0007722965315778846 1.3539592444715133e-05 -3.922592922103899e-06 1.3539592444715133e-05 0.0007800650464107328 4.3538373497996774e-06 -3.922592922103899e-06 4.3538373497996774e-06 0.0006518520312088702" energy=-406.59483665531286 pbc="T T T"
Ni      -0.05941352      -0.01934969       0.17792727        4       1.00000000      -0.18896970      -0.06306279       0.13546253
Ni       2.64444432      -0.02708418       0.17428808        4       1.00000000       0.13544358      -0.09006772       0.17614980
Ni       5.25307427      -0.01606582       0.15978492        4       1.00000000       0.09244514       0.00131024       0.12907375
Ni       7.86625259      -0.01282352       0.12142407        4       1.00000000       0.03339645      -0.13203120       0.10862009
Pt       1.28635423       2.28338470       0.11994820        4       0.00000000       0.01446706      -0.01467028      -0.13340180
Pt       3.93688429       2.32009222       0.15028654        4       0.00000000       0.03923822       0.06396130      -0.06950272
Pt       6.58173246       2.21507737       0.13708568        4       0.00000000       0.06501756      -0.13693124      -0.06692228
Ni       9.15252963       2.26853195       0.07938149        4       1.00000000      -0.03615194      -0.13371391       0.08115232
Ni       2.64102914       4.56848372       0.13097504        4       1.00000000       0.05851349      -0.00970242       0.07255316
Ni       5.26078359       4.56032131       0.13383458        4       1.00000000       0.20932321      -0.04746228       0.10271784
Pt       7.92893849       4.57899502       0.13518393        4       0.00000000       0.07703199      -0.03842020      -0.00228285
Ni      10.48237577       4.61978737       0.03998685        4       1.00000000       0.01839917       0.09914265      -0.03532034
Ni       3.92579469       6.84728212       0.15103814        4       1.00000000      -0.02680267       0.08710548       0.13642293
Pt       6.54717082       6.87207437       0.17779362        4       0.00000000      -0.00263987      -0.00358329       0.02383560
Ni       9.20239406       6.84608891       0.04920009        4       1.00000000       0.00325628      -0.02814233       0.01681234
Ni      11.80541754       6.86707081       0.03271572        4       1.00000000       0.09679378       0.03481349      -0.05078954
Pt       1.27029126       0.66903076       2.19678614        3       0.00000000      -0.02524944      -0.03973060       0.05518529
Pt       3.98628784       0.77941004       2.25704159        3       0.00000000       0.04173137       0.02026185       0.09015370
Ni       6.57665637       0.75462619       2.26576863        3       1.00000000       0.07029711      -0.05846304       0.00404376
Ni       9.09343428       0.75282297       2.20830269        3       1.00000000      -0.13191382       0.00661695      -0.06738120
Ni       2.62914547       3.03654236       2.23788710        3       1.00000000      -0.06881456       0.00134598       0.02269603
Ni       5.26437880       3.03544329       2.26411862        3       1.00000000       0.05284313      -0.01219733      -0.00034005
Pt       7.79172511       3.03481641       2.36045678        3       0.00000000      -0.05544597       0.00354560      -0.01558418
Pt      10.38739090       3.08690469       2.22453187        3       0.00000000      -0.13080227       0.04080788      -0.05517736
Pt       3.99684442       5.31641061       2.13684231        3       0.00000000       0.04241936      -0.00558484       0.06000735
Ni       6.59602621       5.31826476       2.24851060        3       1.00000000       0.11521941       0.00405767       0.02784174
Ni       9.13834005       5.35686090       2.27688129        3       1.00000000      -0.03272947       0.04050350       0.09154240
Pt      11.77124842       5.34745634       2.14820830        3       0.00000000      -0.00867993      -0.02288935      -0.00965607
Ni       5.22198774       7.57289167       2.18928851        3       1.00000000      -0.09643172       0.01898356       0.01479640
Ni       7.88811375       7.52100052       2.22390058        3       1.00000000       0.04960390      -0.09944447       0.07540987
Pt      10.48768007       7.56905971       2.13090443        3       0.00000000      -0.00549272      -0.02585231       0.02025870
Ni      13.11556721       7.65671962       2.16179406        3       1.00000000      -0.05090794       0.03882476      -0.07107390
Pt      -0.12111561       1.53798468       4.43653028        2       0.00000000      -0.11521258       0.02099895      -0.09519210
Pt       2.62985263       1.50367285       4.40718444        2       0.00000000      -0.08971992      -0.03362592      -0.03729231
Ni       5.29057720       1.52416332       4.41968246        2       1.00000000       0.04955568       0.04178987      -0.12640983
Ni       7.81518019       1.55482294       4.43216943        2       1.00000000      -0.05868970      -0.01672134      -0.12936134
Pt       1.24071977       3.82829229       4.43146773        2       0.00000000      -0.02390502       0.04630573      -0.08321501
Pt       4.00813047       3.73818006       4.34895457        2       0.00000000      -0.00771752       0.01849469      -0.04769916
Ni       6.59621864       3.76626727       4.43702384        2       1.00000000       0.01229137       0.01356093       0.03291586
Ni       9.12518975       3.84217924       4.43044288        2       1.00000000      -0.03578224       0.07982652      -0.14982911
Pt       2.59678034       6.06158300       4.41561897        2       0.00000000       0.02407931       0.02712862      -0.03320556
Pt       5.34313508       5.99670814       4.35195088        2       0.00000000       0.04372138      -0.05546309       0.01169174
Ni       7.92557479       6.00000414       4.38628684        2       1.00000000       0.03927862      -0.08883792      -0.15121631
Ni      10.42145901       6.04928952       4.48004932        2       1.00000000      -0.03735176      -0.01837873      -0.05961143
Pt       3.93037531       8.33594453       4.32634045        2       0.00000000       0.01545154      -0.03237915      -0.06841586
Pt       6.58480876       8.28070442       4.35365803        2       0.00000000      -0.01351481       0.02570469       0.02382507
Pt       9.20060443       8.23303745       4.41138807        2       0.00000000      -0.03117772       0.00335880       0.02431094
Pt      11.79380810       8.41423533       4.38983478        2       0.00000000      -0.02476480       0.02289644      -0.04933669
Pt      -0.08530528       0.01520473       6.75636990        1       0.00000000      -0.04234086       0.05445775       0.12011325
Pt       2.63601092      -0.05134746       6.75562713        1       0.00000000       0.00456274       0.04283831       0.15740479
Pt       5.28794653      -0.09634180       6.74792770        1       0.00000000       0.02618714      -0.02753100       0.11894068
Ni       7.83148657       0.01411316       6.68093420        1       1.00000000      -0.00665393       0.01721750      -0.10651731
Pt       1.22939720       2.29740359       6.62076156        1       0.00000000      -0.05210346       0.06751132       0.00222844
Pt       3.95580644       2.24455687       6.60924260        1       0.00000000       0.03342396      -0.00496188      -0.01517991
Pt       6.63311310       2.21952415       6.54693718        1       0.00000000       0.00661554      -0.00181392      -0.03596588
Ni       9.14273264       2.29081991       6.66313374        1       1.00000000      -0.01085041       0.05584748      -0.07013508
Pt       2.55030800       4.57067290       6.72923374        1       0.00000000      -0.01763587       0.04115685       0.08127098
Pt       5.27155460       4.52921619       6.68344573        1       0.00000000      -0.00393252       0.03484583       0.05366690
Pt       7.98338740       4.53588731       6.53810454        1       0.00000000       0.02036233       0.03312723       0.00016936
Ni      10.45050564       4.61096841       6.64128855        1       1.00000000       0.02429070       0.15081941      -0.13055257
Pt       3.86488563       6.84443471       6.72842745        1       0.00000000      -0.07660930       0.06012425       0.13661790
Pt       6.61754442       6.78871215       6.60884147        1       0.00000000       0.02175756       0.02226529       0.03028611
Ni       9.23606881       6.77267511       6.62616740        1       1.00000000       0.06520983      -0.03870359      -0.10746472
Ni      11.73566968       6.81173038       6.64984793        1       1.00000000      -0.09323345      -0.06119125      -0.16414514
