64
Lattice="10.235412001395144 0.013932383272228486 0.006245499565259451 5.129771798546582 8.868100109508163 0.03374108409698118 0.0 0.0 21.466614834307112" Properties=species:S:1:pos:R:3:tags:I:1:initial_magmoms:R:1:forces:R:3 unique_id=c163baf249484180bc0e1303d62048bc stress="0.0052153645857293445 0.0003528748582314139 0.00024005904379238385 0.0003528748582314139 0.00557441636268576 0.00022854063117118834 0.00024005904379238385 0.00022854063117118834 -0.0015131386002073255" energy=-373.2953592979252 pbc="T T T"
Ni       0.00213320       0.02815505       0.08202661        1       1.00000000       0.10691981      -0.02561685      -0.15963765
Ni       2.52544768       0.02020165       0.11854097        1       1.00000000      -0.05707871       0.07169531      -0.13954406
Pt       5.11594758      -0.02412025       0.04997633        0       0.00000000      -0.00770847       0.24528961      -1.01447984
Ni       7.71397859      -0.02720271       0.09277433        1       1.00000000      -0.06762484      -0.10687790      -0.28360040
Ni       1.24158016       2.22814100       0.02463983        0       1.00000000      -0.08359401       0.04763749       0.39934467
Pt       3.76167599       2.28194648       0.10722883        1       0.00000000       0.03748091      -0.00135974      -0.56451710
Pt       6.44833648       2.22728536       0.03347214        0       0.00000000      -0.00065564      -0.01760314      -0.09871858
Ni       9.01326256       2.23155983       0.06712315        1       1.00000000       0.07630571       0.16315129      -0.10006925
Ni       2.55258588       4.47297047       0.00000000        0       1.00000000       0.05887697       0.01840974       0.27990072
Ni       5.09183991       4.47288767       0.11615504        1       1.00000000      -0.04316713       0.09331858       0.00518260
Pt       7.76430658       4.46512494       0.02867107        0       0.00000000       0.02488864       0.03891964      -0.00742018
Ni      10.28328710       4.43975036       0.00304704        0       1.00000000       0.09639229      -0.07304804       0.33458836
Ni       3.80929580       6.64865327       0.04549929        0       1.00000000       0.00526530      -0.03015531       0.38534711
Pt       6.36983800       6.70472988       0.11284756        1       0.00000000      -0.09222570       0.06598140      -0.39798905
Ni       8.98501065       6.64630299       0.01438189        0       1.00000000      -0.03796070      -0.00856459       0.07744463
Ni      11.55699457       6.62881774       0.00696248        0       1.00000000       0.06439618       0.05187488       0.23453347
Ni       1.28967939       0.74853907       2.09064973        2       1.00000000      -0.01352552       0.01953240       0.07387448
Ni       3.81825979       0.76769875       2.13609616        2       1.00000000       0.04556593      -0.01537502       0.19455756
Ni       6.40096376       0.79090466       2.15786925        3       1.00000000      -0.06349692       0.15126507       0.28657889
Pt       8.97617402       0.79354707       2.10345638        2       0.00000000       0.00018872       0.09270967       0.10723084
Ni       2.54898968       2.97319219       2.14663720        2       1.00000000       0.03205541       0.04142177       0.04854347
Ni       5.11343584       2.98976767       2.16173158        3       1.00000000      -0.06755133       0.01786458       0.16586842
Ni       7.70065219       2.99186567       2.16339790        3       1.00000000       0.06489644       0.07080872       0.21260434
Ni      10.24346031       2.97442995       2.13265576        2       1.00000000       0.04298481       0.02415309       0.15232321
Ni       3.87934961       5.18083244       2.13898573        2       1.00000000       0.09893501      -0.02163923       0.12986737
Ni       6.39212483       5.18834301       2.16168637        3       1.00000000      -0.01832429       0.04533814       0.10480908
Ni       8.94113615       5.15751141       2.17771230        3       1.00000000      -0.08492012      -0.21231049       0.25677838
Pt      11.56439247       5.12385297       2.14268246        2       0.00000000       0.10714106      -0.11243100       0.11038406
Ni       5.12872880       7.37273068       2.16473319        3       1.00000000       0.02430165      -0.12148963       0.13046643
Ni       7.64760963       7.39810014       2.15931559        3       1.00000000      -0.13013888      -0.06043173       0.14255980
Pt      10.21533825       7.33066666       2.13876581        2       0.00000000      -0.08672408      -0.16395529      -0.20363088
Ni      12.84357622       7.37762549       2.10049069        2       1.00000000       0.08887864      -0.12468079       0.02198493
Ni      -0.00614515       1.54304883       4.24202396        4       1.00000000      -0.12285191       0.09424897      -0.15067607
Pt       2.49466228       1.55628311       4.15948202        4       0.00000000      -0.08763095      -0.00752826       0.05309919
Ni       5.13604856       1.52614611       4.22052361        4       1.00000000      -0.03478513      -0.00130357      -0.34402373
Ni       7.69321294       1.52829805       4.24885415        4       1.00000000       0.06204723      -0.05807885      -0.22407395
Ni       1.26049546       3.74040611       4.30550553        5       1.00000000      -0.05572068       0.02072345       0.03072545
Ni       3.82296521       3.76646981       4.21548633        4       1.00000000      -0.04460666       0.07050354      -0.30870247
Pt       6.42779244       3.71807091       4.20736479        4       0.00000000      -0.02928359      -0.00921346       0.03318366
Ni       9.00172529       3.74837250       4.24414228        4       1.00000000       0.10490175       0.00246473      -0.26988956
Ni       2.57617979       5.86113958       4.30724695        5       1.00000000       0.05723685      -0.14785305      -0.03539038
Ni       5.11992180       5.90590054       4.21933344        4       1.00000000       0.04857364      -0.16041893      -0.35557732
Ni       7.70617260       5.89154293       4.23957732        4       1.00000000       0.01359705      -0.12494775      -0.31673286
Ni      10.24271504       5.86106468       4.32915789        5       1.00000000       0.02116470      -0.07337342      -0.03779257
Pt       3.91528406       8.08094359       4.24157609        4       0.00000000       0.11122134      -0.09390186       0.12530011
Ni       6.40099951       8.12648499       4.21855170        4       1.00000000      -0.07515914      -0.02512632      -0.39280382
Pt       8.89447846       8.08482093       4.24645093        4       0.00000000      -0.10439212      -0.01426035       0.02390317
Pt      11.56479972       8.11288316       4.22549807        4       0.00000000       0.01936291      -0.11260904      -0.05036892
Pt       0.00986266       0.04283791       6.43424403        7       0.00000000       0.06883560       0.12149245       0.23776281
Pt       2.55544769       0.02349653       6.46661483        8       0.00000000      -0.01704677      -0.03841770       0.43084963
Pt       5.12718250      -0.01447151       6.34872567        6       0.00000000      -0.00038271       0.14517746       1.08834594
Pt       7.67703065      -0.00390239       6.46583592        8       0.00000000      -0.01148018       0.17017570       0.32170437
Ni       1.26840796       2.31385532       6.39995963        7       1.00000000      -0.04988075       0.18902774      -0.24460624
Pt       3.80538446       2.29845497       6.34126531        6       0.00000000       0.09336782       0.05719791       0.54583398
Ni       6.41858827       2.26241593       6.32853393        6       1.00000000      -0.03709727      -0.04677275       0.12537877
Pt       8.97494152       2.35819667       6.39079424        7       0.00000000      -0.02230060       0.03254712      -0.02926673
Ni       2.50346957       4.49295338       6.39146795        7       1.00000000      -0.05677150      -0.01258956      -0.36157186
Pt       5.09168552       4.47784867       6.43244488        7       0.00000000      -0.06391508       0.02297295       0.04524084
Ni       7.72571231       4.47637691       6.33111910        6       1.00000000       0.05777540       0.09892013      -0.03983640
Ni      10.27310589       4.50379440       6.39211306        7       1.00000000       0.01923187       0.01030466      -0.38029796
Ni       3.79978572       6.62686478       6.42114173        7       1.00000000      -0.08763215      -0.07641061      -0.24442354
Pt       6.44678420       6.62821851       6.32040393        6       0.00000000       0.04399515       0.00535393       0.35849005
Ni       9.01096751       6.59143881       6.41521704        7       1.00000000       0.07952278      -0.17130251      -0.22804834
Ni      11.52682860       6.59892782       6.42406803        7       1.00000000      -0.02067405      -0.03083537      -0.29090107
