64
Lattice="10.267155525118467 0.020588679840340303 -0.0019370989764395472 5.151408082331354 8.876869375867201 -0.006493581854757725 0.0 0.0 21.535246331664503" Properties=species:S:1:pos:R:3:tags:I:1:initial_magmoms:R:1:forces:R:3 unique_id=388aaa7292c0472b871668312331183b energy=-374.43529543999966 stress="0.005612346280460887 0.0001647492520468339 0.0001296482213644855 0.0001647492520468339 0.005850258924400831 1.0370237501293877e-05 0.0001296482213644855 1.0370237501293877e-05 -0.0012304136208245685" pbc="T T T"
Ni       0.01192398      -0.00443519       0.14539794        1       1.00000000       0.09394766       0.02103731      -0.06476926
Ni       2.53437708       0.01951581       0.16661675        2       1.00000000      -0.07516507       0.08683644      -0.01467756
Pt       5.12506788      -0.02512759       0.09728100        1       0.00000000      -0.06667187       0.23420931      -1.01016796
Ni       7.72621857      -0.04186597       0.14901936        1       1.00000000      -0.05542758      -0.09684403      -0.19760800
Ni       1.29462287       2.22716794       0.07335550        1       1.00000000       0.01306370       0.03822599       0.40246238
Pt       3.76839263       2.28016424       0.14711852        1       0.00000000       0.03457639      -0.00429363      -0.32047646
Pt       6.41977567       2.23397470       0.07834628        1       0.00000000      -0.00875059      -0.03522743      -0.16237083
Pt       9.08286573       2.23566730       0.08430516        1       0.00000000      -0.01885376       0.14825904      -0.50464682
Ni       2.56875176       4.47661367       0.03323007        0       1.00000000       0.08359750       0.04150433       0.29462895
Ni       5.09577958       4.48067712       0.15206590        2       1.00000000      -0.11873768       0.11582330       0.01924019
Pt       7.72287666       4.49469214       0.00000000        0       0.00000000      -0.08362140       0.00444231      -0.26550042
Ni      10.33619496       4.47884684       0.02211733        0       1.00000000       0.10478047      -0.02253620       0.26468368
Ni       3.82406145       6.65079169       0.07436858        1       1.00000000      -0.01623113      -0.05521177       0.42163229
Pt       6.38536532       6.72076449       0.14269412        1       0.00000000      -0.07264448       0.03762678      -0.37409913
Ni       9.01688721       6.66260105       0.03109149        0       1.00000000      -0.06072515       0.02310916       0.10239122
Ni      11.59945335       6.63989533       0.02912131        0       1.00000000       0.08964657       0.06336904       0.25525590
Ni       1.31519533       0.75134185       2.19269062        4       1.00000000       0.05285172       0.06278728       0.20991943
Ni       3.81072233       0.78430575       2.21557413        4       1.00000000      -0.04715120       0.10880148       0.27150878
Ni       6.41772103       0.79008429       2.21566315        4       1.00000000      -0.06143375       0.13571749       0.28867930
Pt       9.00680367       0.74570685       2.21577012        4       0.00000000       0.07578543       0.09178714       0.03170848
Ni       2.56589114       2.93279355       2.24662282        4       1.00000000       0.04856734      -0.11667461       0.29797235
Ni       5.11429588       2.98222841       2.21744930        4       1.00000000      -0.12887682      -0.00763568       0.17110409
Ni       7.68506606       2.95612656       2.21763433        4       1.00000000      -0.00904182      -0.05046218       0.18752296
Ni      10.32467124       2.95026693       2.22270166        4       1.00000000       0.16054997      -0.11312057       0.26688169
Ni       3.89882524       5.17522374       2.18352314        4       1.00000000       0.08183910      -0.06091766       0.15697820
Ni       6.37299221       5.18726391       2.20205590        4       1.00000000      -0.05210837      -0.00153966       0.11169044
Pt       8.95507119       5.14765182       2.24727070        4       0.00000000      -0.10371886      -0.19928031      -0.05704868
Pt      11.65006368       5.13348380       2.18281329        4       0.00000000       0.14653252      -0.15462205       0.10640925
Ni       5.15064756       7.36805329       2.20181288        4       1.00000000       0.03336880      -0.12247365       0.19540548
Ni       7.66463601       7.43542099       2.18883176        4       1.00000000      -0.13042997       0.03415087       0.16061850
Pt      10.28134627       7.38395260       2.17108613        4       0.00000000       0.01963302      -0.05368242      -0.23256100
Ni      12.89037849       7.38096068       2.12810016        3       1.00000000       0.12106014      -0.13400611       0.03645284
Ni       0.05892216       1.51945534       4.29929050        5       1.00000000       0.17202579       0.03106971      -0.15395741
Ni       2.52454987       1.52428817       4.26720220        5       1.00000000      -0.08273075       0.05080559      -0.26642552
Ni       5.12250486       1.51564051       4.27578543        5       1.00000000      -0.09888584       0.01864738      -0.37278571
Ni       7.70152798       1.51284796       4.30265185        5       1.00000000      -0.00155627      -0.06655199      -0.24847740
Ni       1.29385816       3.68313659       4.35505180        6       1.00000000       0.04270299      -0.05607232      -0.02597677
Ni       3.81407386       3.72258506       4.26381622        5       1.00000000      -0.06864996       0.02412083      -0.30441805
Pt       6.43260104       3.70251805       4.26331167        5       0.00000000      -0.04961108       0.00223740      -0.01874286
Ni       9.03163893       3.73176677       4.30653460        5       1.00000000       0.14440591      -0.07710338      -0.14729563
Ni       2.58832448       5.84625204       4.35932333        6       1.00000000       0.06327814      -0.19542098       0.00916086
Ni       5.13352663       5.89331462       4.26790475        5       1.00000000       0.03119153      -0.20131946      -0.32744074
Ni       7.71765989       5.90434646       4.31217490        5       1.00000000      -0.09230541      -0.01344698      -0.16748028
Ni      10.28582397       5.86676924       4.38641687        6       1.00000000       0.08311493      -0.05627881       0.04309515
Pt       3.93041188       8.06295093       4.29195498        5       0.00000000       0.11599390      -0.11700288       0.13492640
Ni       6.42834226       8.14729665       4.25530198        5       1.00000000      -0.05608572       0.05763678      -0.35706572
Pt       8.91030625       8.13382132       4.26444446        5       0.00000000      -0.08627965       0.07188166       0.03849678
Pt      11.60002466       8.11612289       4.26519205        5       0.00000000       0.04988320      -0.08806571      -0.00183727
Pt       0.00475634       0.02045843       6.50610877        8       0.00000000       0.06048521       0.16593060       0.25526305
Pt       2.55171975       0.01564123       6.51302642        8       0.00000000      -0.01507932       0.05239632       0.25346837
Pt       5.13371303      -0.03054728       6.42156946        7       0.00000000      -0.01292196       0.14519718       1.04078133
Pt       7.69480802      -0.02399401       6.53524633        8       0.00000000      -0.04283978       0.18707011       0.35936114
Ni       1.27450677       2.28856062       6.44245818        7       1.00000000      -0.08306529       0.18780761      -0.33980138
Pt       3.79544861       2.27541271       6.36425924        7       0.00000000       0.00189823       0.01911642       0.31395677
Ni       6.42953079       2.24232406       6.39031865        7       1.00000000      -0.02778371      -0.04712947       0.05994905
Pt       9.00088856       2.33638233       6.35202114        7       0.00000000       0.01139585       0.00135368       0.48129309
Ni       2.50977661       4.47013016       6.44509785        7       1.00000000      -0.06753494       0.00269554      -0.41727393
Pt       5.10118679       4.45676183       6.48646877        8       0.00000000      -0.08124240       0.03317774      -0.02740137
Ni       7.74663180       4.46123227       6.36596311        7       1.00000000       0.04728373       0.09423800       0.05638972
Ni      10.30510223       4.49059006       6.43781909        7       1.00000000       0.03565545      -0.02442683      -0.41771006
Ni       3.81245792       6.61032071       6.46971230        8       1.00000000      -0.09362915      -0.09260043      -0.23408673
Pt       6.46609663       6.61658407       6.36828579        7       0.00000000      -0.00612492      -0.00727902       0.33253504
Ni       9.03497472       6.58662126       6.45365493        8       1.00000000       0.07686624      -0.11721786      -0.27772026
Ni      11.56056219       6.58705395       6.46504154        8       1.00000000      -0.02006581      -0.00462574      -0.32199994
