64
Lattice="10.370196953439805 0.017104278747131066 0.015832935518156538 5.199911216628327 8.917813625011714 0.021931487461363596 0.012927537716624039 0.013213487293265795 8.843602119777003" Properties=species:S:1:pos:R:3:tags:I:1:initial_magmoms:R:1:forces:R:3 unique_id=711ccd7bd6b14ed996cafdf7a70fb9dd stress="0.0003311356708034577 -1.0522972923525495e-06 9.093737371047867e-06 -1.0522972923525495e-06 0.00034489032577940393 2.4736957705307807e-05 9.093737371047867e-06 2.4736957705307807e-05 0.00031259803546254683" energy=-400.611842771169 pbc="T T T"
Ni      -0.03809001       0.01187940       0.20121200        4       1.00000000      -0.16270336       0.06518879       0.39821148
Ni       2.61139049      -0.00229542       0.11267833        4       1.00000000       0.05812788       0.02946648       0.27569397
Ni       5.18960427      -0.00840809       0.16328996        4       1.00000000       0.06978973       0.05173398       0.26206998
Ni       7.80447619      -0.02024195       0.21312536        4       1.00000000       0.12454981      -0.09656872       0.40566738
Pt       1.23586567       2.22907373       0.19024904        4       0.00000000      -0.06732677       0.03415126       0.09876187
Pt       3.86664161       2.18128716       0.12118625        4       0.00000000      -0.02087643       0.00440311      -0.04478021
Pt       6.54325281       2.14833533       0.12647061        4       0.00000000       0.09490014      -0.13798373      -0.06774451
Ni       9.09151087       2.21422529       0.19386267        4       1.00000000       0.01024288      -0.11160241       0.30591104
Ni       2.58030515       4.49449847       0.13836510        4       1.00000000       0.03735939       0.00140328       0.13255384
Pt       5.17126467       4.48832383       0.16017531        4       0.00000000       0.01426923       0.03968844       0.23804401
Pt       7.86521973       4.46442662       0.05772956        4       0.00000000       0.18712486       0.01721354      -0.18202025
Ni      10.39785191       4.50112613       0.09305586        4       1.00000000       0.05846744       0.09482440       0.13849372
Ni       3.85603449       6.73920632       0.11562523        4       1.00000000      -0.06495532       0.11480437       0.19456626
Pt       6.50056345       6.79433252       0.22015589        4       0.00000000      -0.01207257       0.09593125       0.17623197
Ni       9.11446601       6.72921454       0.09070112        4       1.00000000       0.03836485       0.07001202       0.09005345
Ni      11.69519180       6.71369613       0.09471319        4       1.00000000       0.13149497       0.03420201       0.06956564
Ni       1.29482839       0.75359120       2.23399813        3       1.00000000      -0.03168753       0.14901085      -0.04104337
Ni       3.85192456       0.76971016       2.23050335        3       1.00000000      -0.16868373       0.02694551       0.06449215
Ni       6.52689370       0.77119345       2.23999612        3       1.00000000       0.14639784       0.02442357       0.13338249
Ni       9.08138824       0.78403437       2.21482744        3       1.00000000       0.02076952       0.13828708       0.05117214
Ni       2.60159378       2.93401357       2.28517503        3       1.00000000      -0.02890775      -0.12362953       0.13766369
Ni       5.19797887       2.95576360       2.25728296        3       1.00000000      -0.02043152       0.00608648      -0.06629720
Ni       7.80547838       2.92999175       2.26013151        3       1.00000000       0.14794564      -0.18436685      -0.05348911
Ni      10.35423770       2.93781131       2.29289499        3       1.00000000      -0.07084650      -0.13820661       0.19370229
Pt       3.88453614       5.21981789       2.27313979        3       0.00000000      -0.01865952      -0.05786498      -0.11266863
Ni       6.50547328       5.21283429       2.25840658        3       1.00000000       0.01618268       0.05855770      -0.09321120
Pt       9.04089114       5.18098001       2.29125368        3       0.00000000      -0.17007755      -0.10687823      -0.05065548
Pt      11.67851625       5.16535654       2.22657856        3       0.00000000      -0.07437737      -0.12819828       0.03521796
Ni       5.18097416       7.48479245       2.22407614        3       1.00000000      -0.11877080       0.10971744      -0.05367489
Ni       7.78447451       7.48088420       2.24895576        3       1.00000000       0.04357252       0.08894307       0.00374953
Pt      10.38521967       7.49850608       2.16131467        3       0.00000000       0.01689559      -0.04820192      -0.01272704
Ni      13.00219281       7.48589406       2.21120363        3       1.00000000      -0.00776087       0.02995946      -0.04402560
Ni       0.00189614       1.55241735       4.34152714        2       1.00000000      -0.01828825       0.15745847      -0.18479142
Ni       2.59020421       1.54598761       4.35885841        2       1.00000000      -0.04899986       0.10708154      -0.26782638
Pt       5.15789050       1.55653540       4.35363165        2       0.00000000       0.00595240       0.02311147      -0.09083439
Ni       7.81750930       1.52904948       4.37059789        2       1.00000000       0.08374708      -0.02333234      -0.18830831
Ni       1.31904877       3.68185075       4.36357830        2       1.00000000       0.02548024      -0.17137612      -0.20951353
Ni       3.83795799       3.70684435       4.38765636        2       1.00000000      -0.15276747       0.01353591      -0.13931604
Pt       6.59793945       3.71716237       4.33828110        2       0.00000000       0.03475534       0.00799269      -0.15180759
Ni       9.11036628       3.69722219       4.40074375        2       1.00000000       0.17661720      -0.20457731      -0.16354622
Ni       2.60502320       5.92549326       4.42005430        2       1.00000000      -0.01065773       0.02550618      -0.05632075
Pt       5.19207693       5.94869955       4.36988609        2       0.00000000       0.12331115       0.02146056       0.15515059
Ni       7.80997532       5.93432194       4.41217244        2       1.00000000       0.00171304       0.06819924      -0.11395470
Pt      10.38771429       5.86914913       4.51599682        2       0.00000000       0.06837649      -0.09566761       0.08683099
Pt       3.90678586       8.23252961       4.32150808        2       0.00000000      -0.10165140       0.15049407      -0.01527801
Pt       6.50726067       8.26733502       4.31515118        2       0.00000000      -0.01425242       0.13869873       0.05649412
Pt       9.05151398       8.18544868       4.40938855        2       0.00000000      -0.08479925      -0.01639095      -0.01093720
Pt      11.70613503       8.18230718       4.37896803        2       0.00000000       0.07455956       0.04346300       0.03167087
Pt       0.02289164      -0.01026143       6.61702885        1       0.00000000      -0.03711641      -0.06805909       0.22364704
Ni       2.61569691       0.00974568       6.57546212        1       1.00000000      -0.06257571       0.00600894      -0.11766702
Pt       5.12690762      -0.00057545       6.64539800        1       0.00000000      -0.12935424      -0.00646530       0.13048787
Pt       7.75689047      -0.01373592       6.64554996        1       0.00000000      -0.07910361      -0.07604012       0.25202598
Pt       1.35011737       2.23911436       6.46046207        1       0.00000000       0.00273529       0.00276943      -0.15384460
Ni       3.89151639       2.23067924       6.49351527        1       1.00000000      -0.11443993      -0.00369485      -0.24303480
Ni       6.49098004       2.23965072       6.50996934        1       1.00000000      -0.00187873      -0.11465767      -0.26962212
Pt       9.04870962       2.33287951       6.55405412        1       0.00000000      -0.04401672      -0.01792786       0.09503966
Pt       2.56682904       4.52667260       6.54868795        1       0.00000000      -0.08617100       0.08683305      -0.00959641
Pt       5.20488053       4.39710881       6.52052910        1       0.00000000       0.03681585      -0.12963974      -0.35732297
Ni       7.82740157       4.48637431       6.48372495        1       1.00000000       0.10275145       0.04506608      -0.43503838
Ni      10.36327417       4.50248169       6.59430767        1       1.00000000      -0.05451125      -0.05454956      -0.00210914
Ni       3.88890662       6.68429418       6.58361258        1       1.00000000       0.03770242       0.00783561      -0.15575932
Pt       6.59304070       6.67544695       6.54186079        1       0.00000000       0.10568812       0.00909970      -0.12601532
Ni       9.11251527       6.66470220       6.59926157        1       1.00000000       0.08153160      -0.13846402      -0.06731240
Ni      11.67049531       6.68562157       6.60676475        1       1.00000000      -0.09947064       0.05477506      -0.08445744
