64
Lattice="10.29717553216208 -0.014569827044196772 0.012479746388449052 5.1359699257320175 8.88263639078576 -0.006102079706449518 0.010189670257013842 -0.011636104785535414 8.77959621824816" Properties=species:S:1:pos:R:3:tags:I:1:initial_magmoms:R:1:forces:R:3 unique_id=f01c9c53403340788c9c85d64ac6e2bc stress="0.0002006110362373567 4.843581079792296e-06 -1.645810120442415e-05 4.843581079792296e-06 0.0002032516769921236 7.167863225882012e-06 -1.645810120442415e-05 7.167863225882012e-06 0.0001998893066913615" energy=-397.2727455862778 pbc="T T T"
Ni      -0.01909806       0.02417322       0.20761357        4       1.00000000      -0.08455027       0.07329484       0.31669291
Ni       2.57370891      -0.00023818       0.21462876        4       1.00000000       0.01796561      -0.00687237       0.39868585
Ni       5.14998367      -0.02047575       0.17324981        4       1.00000000      -0.01170329       0.14585822       0.27731373
Ni       7.74768088      -0.05027345       0.12667341        4       1.00000000       0.07102091      -0.12996507       0.20618631
Ni       1.26567043       2.21331586       0.08649406        4       1.00000000      -0.07418599      -0.05521545       0.12439963
Pt       3.79458747       2.22346346       0.11239087        4       0.00000000      -0.06203583       0.03323113      -0.13000576
Pt       6.45857477       2.15277206       0.20030308        4       0.00000000       0.03135261      -0.06767902       0.21497597
Ni       9.02871625       2.16823779       0.15549976        4       1.00000000      -0.02060996      -0.18901943       0.12758736
Ni       2.56982611       4.45816008       0.07269171        4       1.00000000       0.08452965       0.05105946       0.05419739
Ni       5.11137291       4.45056341       0.19486877        4       1.00000000       0.01023391      -0.01282617       0.31740293
Pt       7.78905352       4.44263513       0.10860163        4       0.00000000       0.14769931      -0.02512769      -0.09641083
Ni      10.32627506       4.43807558       0.06526512        4       1.00000000       0.14273799       0.01614841       0.04928252
Ni       3.82025603       6.66709832       0.19706581        4       1.00000000      -0.05053617      -0.01209897       0.27977645
Pt       6.40093598       6.70523491       0.19884353        4       0.00000000      -0.06433591       0.04216028       0.11559449
Ni       9.02592295       6.66740888       0.07606358        4       1.00000000       0.00303609       0.02883867      -0.00153126
Ni      11.59750750       6.65835097       0.06494799        4       1.00000000       0.14050890       0.06066060      -0.06017884
Ni       1.28928239       0.72749926       2.15845095        3       1.00000000      -0.01419028       0.06004229      -0.05450218
Ni       3.85799582       0.75391915       2.20184280        3       1.00000000       0.07282790       0.05880744       0.05583213
Ni       6.46430405       0.73313168       2.24827874        3       1.00000000       0.07461185       0.04149935       0.15705185
Ni       8.98617799       0.70884599       2.18465397        3       1.00000000      -0.12459218       0.03613554      -0.04334181
Ni       2.59584767       2.95744697       2.20546526        3       1.00000000       0.00243191       0.08186802      -0.00866243
Ni       5.11988569       2.95825973       2.23534743        3       1.00000000      -0.13794643      -0.06865454       0.01456587
Ni       7.72838475       2.93218927       2.23887834        3       1.00000000       0.10050645      -0.09374451      -0.07580998
Pt      10.26324399       2.89351244       2.19423619        3       0.00000000       0.02236364       0.02369784       0.00913425
Ni       3.87121993       5.16680029       2.16762459        3       1.00000000      -0.02148175      -0.07930137      -0.06186330
Ni       6.43519401       5.15951446       2.20763975        3       1.00000000       0.09815782      -0.00047634      -0.11477946
Ni       8.97939472       5.17484444       2.25120874        3       1.00000000       0.00627998      -0.02523066       0.15362902
Pt      11.63856702       5.17563686       2.17012925        3       0.00000000       0.04486036       0.00688432      -0.01530940
Ni       5.09978839       7.41670793       2.17618438        3       1.00000000      -0.12448330       0.03477389      -0.09694670
Ni       7.71684352       7.39334487       2.20052283        3       1.00000000       0.02449833      -0.10346008      -0.02440508
Pt      10.27092813       7.40245325       2.12340186        3       0.00000000       0.02563166      -0.09768917      -0.00095012
Ni      12.89602530       7.40702563       2.16499311        3       1.00000000      -0.03339984       0.02195474      -0.03858094
Ni      -0.01790771       1.51378900       4.34124747        2       1.00000000      -0.00011240       0.07496615      -0.07314606
Pt       2.61222235       1.53863356       4.30451490        2       0.00000000      -0.02236973      -0.01383533      -0.10175322
Ni       5.15408173       1.48570547       4.32142809        2       1.00000000       0.05940029      -0.01805235      -0.18524276
Ni       7.75099163       1.48202104       4.31826023        2       1.00000000       0.09721205       0.07297671      -0.19431238
Pt       1.25865583       3.75152718       4.43101672        2       0.00000000      -0.01041380      -0.00018203      -0.04024088
Ni       3.85708179       3.69037155       4.33487840        2       1.00000000       0.00135048       0.02964000      -0.20945047
Pt       6.48682097       3.65879045       4.25410388        2       0.00000000      -0.05440148      -0.06409728       0.08021146
Ni       9.01265210       3.71298098       4.35850370        2       1.00000000       0.02474025       0.06447548      -0.20032325
Ni       2.54746263       5.89694033       4.36020401        2       1.00000000      -0.02055525       0.03865225      -0.09678366
Pt       5.09701220       5.86512080       4.24127978        2       0.00000000      -0.03316989       0.00978977       0.01979909
Ni       7.78144724       5.85685891       4.33194822        2       1.00000000       0.03445832      -0.07776553      -0.20069347
Ni      10.26979496       5.87638480       4.40523399        2       1.00000000      -0.04935258       0.01193194      -0.11257935
Pt       3.83202388       8.19496501       4.26597590        2       0.00000000      -0.01043279       0.05320581       0.02761565
Pt       6.42391879       8.14945415       4.23643580        2       0.00000000      -0.01185762      -0.00658586       0.01208923
Pt       9.00672067       8.07436956       4.32753552        2       0.00000000      -0.04531271       0.01619788       0.10691400
Pt      11.59695738       8.11918743       4.34399876        2       0.00000000       0.00076782      -0.00602679       0.00061019
Pt      -0.01499881       0.03267803       6.57358232        1       0.00000000      -0.04946476       0.03537650       0.19922027
Pt       2.60131692       0.04548121       6.60253021        1       0.00000000      -0.00605978       0.08361680       0.25122599
Pt       5.18981041      -0.08443396       6.58773919        1       0.00000000       0.03903761      -0.22226295       0.14198837
Ni       7.72238721      -0.02189068       6.53600267        1       1.00000000       0.05634673       0.05764396      -0.10717174
Ni       1.30814618       2.27110541       6.52250715        1       1.00000000       0.04253267       0.11076785      -0.07032636
Ni       3.83419948       2.23533514       6.44422553        1       1.00000000      -0.01757615       0.00343610      -0.27367900
Pt       6.45405650       2.17576375       6.45100892        1       0.00000000       0.01341424      -0.00241573      -0.24468037
Pt       9.05667672       2.29296197       6.50190064        1       0.00000000       0.16282384       0.15205676       0.01656134
Ni       2.51911964       4.41319869       6.51494374        1       1.00000000      -0.14043723      -0.02012372      -0.06236251
Pt       5.07873123       4.37993357       6.54949290        1       0.00000000      -0.11435435      -0.02224990       0.12165827
Ni       7.77660987       4.44344720       6.42733754        1       1.00000000       0.04642906       0.04915383      -0.29960752
Ni      10.30343376       4.47387118       6.51661903        1       1.00000000      -0.02826048       0.20161604      -0.06665308
Pt       3.73251013       6.64195129       6.56193029        1       0.00000000      -0.16373192       0.00330133       0.19299576
Pt       6.50358629       6.59646391       6.46578947        1       0.00000000       0.01312010      -0.03932460      -0.27619867
Ni       9.05236275       6.57674301       6.50577267        1       1.00000000       0.03682430      -0.17949564      -0.19081277
Ni      11.54198028       6.58553211       6.51695767        1       1.00000000      -0.14779853      -0.24594165      -0.21390266
