64
Lattice="10.18399329675932 0.004687468085647819 -0.009774581339178643 5.096056114821317 8.726755330546082 -0.05356292897000146 -0.00798091224343945 -0.04589183189440693 8.681871150122937" Properties=species:S:1:pos:R:3:tags:I:1:initial_magmoms:R:1:forces:R:3 unique_id=57db5a0d01594b9290c7b9230d674f29 stress="-0.007431483785493215 4.015734235678885e-06 4.778175494543899e-07 4.015734235678885e-06 -0.007372170538572594 1.130844256424964e-06 4.778175494543899e-07 1.130844256424964e-06 -0.0063227096687458045" energy=-390.6824539459899 pbc="T T T"
Ni       0.04535079      -0.06039149       0.20798379        4       1.00000000       0.06766880      -0.06106182       0.15739003
Ni       2.48622568      -0.04054697       0.21926353        4       1.00000000      -0.00456927      -0.04980819       0.16439110
Pt       5.08011155      -0.06129266       0.15285755        4       0.00000000      -0.03290823       0.04814244      -0.19761654
Ni       7.65402879      -0.06762233       0.17568587        4       1.00000000      -0.04912333      -0.06206167       0.11045251
Ni       1.27163044       2.19487105       0.12155284        4       1.00000000      -0.00670484       0.03907060       0.15959978
Pt       3.72883410       2.24547190       0.17337668        4       0.00000000      -0.00765864       0.02982480      -0.10142590
Pt       6.37721721       2.25929778       0.09010447        4       0.00000000      -0.02437041       0.05555485      -0.07835148
Pt       8.98724146       2.24675694       0.12826537        4       0.00000000       0.03686994       0.09999611      -0.17377506
Ni       2.51913753       4.41293643       0.08482165        4       1.00000000       0.01211481       0.04608398       0.06427532
Ni       5.08412358       4.45056189       0.08773202        4       1.00000000      -0.04589587       0.09140998       0.08049278
Ni       7.63496843       4.44226309       0.09163368        4       1.00000000      -0.01041573       0.07018366       0.09362427
Ni      10.22624855       4.41404124       0.08491388        4       1.00000000       0.05268142       0.10983537       0.09674578
Ni       3.82880608       6.52211309       0.07588907        4       1.00000000       0.03619364       0.00085677       0.03981759
Ni       6.35444885       6.53183203       0.07783529        4       1.00000000      -0.03045665      -0.01726347      -0.02431798
Ni       8.86645867       6.48516326       0.14228931        4       1.00000000      -0.09328775      -0.04127006       0.09895335
Ni      11.50482570       6.48434472       0.03843406        4       1.00000000       0.08029804      -0.03315313      -0.08072917
Ni       1.31886212       0.71496302       2.17000900        3       1.00000000       0.02561151       0.01263525       0.12793125
Ni       3.78041776       0.75192504       2.21236472        3       1.00000000       0.00130897       0.00835922       0.01219066
Ni       6.34719417       0.74711365       2.23873759        3       1.00000000      -0.05919771       0.01567935       0.02648585
Pt       8.89290486       0.69157915       2.17049712        3       0.00000000       0.00014022      -0.02653139       0.15188090
Ni       2.51278067       2.93389060       2.23964031        3       1.00000000      -0.00121596       0.02748165       0.06274370
Ni       5.06514106       2.93576620       2.20865735        3       1.00000000      -0.06832982       0.06687137      -0.03489057
Ni       7.64275274       2.95566924       2.20751855        3       1.00000000       0.02696760      -0.00005301       0.01254650
Ni      10.23822474       2.97507719       2.18459704        3       1.00000000       0.04620126       0.06098518       0.06838570
Ni       3.81832672       5.07334575       2.15409749        3       1.00000000       0.02424346      -0.02811130       0.02122132
Ni       6.35958740       5.09989565       2.12685989        3       1.00000000      -0.02511588      -0.03627982      -0.00471078
Ni       8.88487703       5.03681311       2.15854253        3       1.00000000      -0.02564665      -0.04114899       0.07208698
Ni      11.49944922       5.02801241       2.15672330        3       1.00000000       0.09176701      -0.06041206       0.08301761
Ni       5.12987436       7.19101389       2.11319067        3       1.00000000      -0.02507071      -0.10130120       0.05001575
Ni       7.57715423       7.22641305       2.10977384        3       1.00000000      -0.03714208      -0.10926907       0.04663961
Pt      10.23002701       7.15182122       2.16007284        3       0.00000000       0.02858592      -0.14315849       0.06669948
Ni      12.74486042       7.17831278       2.09775783        3       1.00000000       0.07420214      -0.15557653       0.01761438
Pt       0.09064784       1.49112843       4.25928271        2       0.00000000       0.07766071      -0.06728880       0.01241521
Ni       2.57003568       1.49013526       4.23105860        2       1.00000000       0.08401257       0.07259306      -0.07064935
Ni       5.09356818       1.45601690       4.21937111        2       1.00000000      -0.05909777       0.02463210      -0.14954460
Ni       7.59126740       1.43163324       4.26765156        2       1.00000000      -0.00643889      -0.06037718      -0.05499028
Ni       1.30781525       3.66886789       4.28987814        2       1.00000000       0.04708893      -0.00990815      -0.02981186
Ni       3.78168106       3.67464199       4.21783300        2       1.00000000       0.00564955       0.10232354      -0.14013163
Pt       6.35217489       3.64051294       4.25868701        2       0.00000000       0.00850218      -0.01901279      -0.07442276
Ni       8.92722192       3.70045113       4.22618914        2       1.00000000       0.03555828       0.06846409      -0.10743170
Ni       2.52151504       5.73277536       4.27034251        2       1.00000000      -0.01878214      -0.01372257      -0.14859223
Ni       5.09097915       5.76559421       4.26693965        2       1.00000000      -0.00339270      -0.06089050      -0.13513947
Ni       7.61419121       5.78471506       4.22940529        2       1.00000000      -0.01168377       0.00135425      -0.11898050
Ni      10.22493241       5.73555777       4.27335414        2       1.00000000       0.01878812      -0.01525843      -0.02715423
Pt       3.80887054       7.85729154       4.21937710        2       0.00000000       0.01060437      -0.00550543       0.03777086
Ni       6.35678214       7.91421372       4.19933454        2       1.00000000      -0.05538656      -0.06015653      -0.08152704
Pt       8.84984801       7.97088582       4.17383766        2       0.00000000      -0.08113663      -0.05734520      -0.03921274
Ni      11.46917013       7.94250421       4.21242529        2       1.00000000       0.02666096      -0.08501501      -0.10807896
Pt       0.00176253      -0.09713207       6.50735437        1       0.00000000      -0.08183298      -0.01460694       0.17379855
Pt       2.51361758      -0.02071232       6.47615750        1       0.00000000       0.07345859       0.06255351       0.15664603
Pt       5.11446560      -0.01885331       6.32136635        1       0.00000000      -0.06620560       0.05575003       0.00636014
Pt       7.62506500      -0.07948984       6.45665094        1       0.00000000       0.03694033      -0.00393144       0.14024790
Ni       1.27853396       2.23004779       6.41512028        1       1.00000000       0.03983419       0.07780162       0.02297149
Pt       3.80831494       2.29498488       6.29833590        1       0.00000000       0.01042303       0.07348439      -0.02479260
Ni       6.35270494       2.20574164       6.31741590        1       1.00000000      -0.03919771      -0.00026384      -0.10185086
Pt       8.88749799       2.27722384       6.31062756        1       0.00000000      -0.06254544       0.07712240       0.03935818
Ni       2.51874861       4.39326298       6.37015722        1       1.00000000       0.00895425       0.07036917      -0.06801600
Ni       5.09539066       4.40029289       6.39225470        1       1.00000000      -0.02240828       0.07632280      -0.01792180
Ni       7.56201160       4.34940756       6.39756899        1       1.00000000      -0.16133013       0.02272616      -0.00252365
Ni      10.26558372       4.33702831       6.36753299        1       1.00000000       0.13820160      -0.00599811      -0.06804165
Ni       3.81110535       6.41162757       6.39220319        1       1.00000000      -0.01948744      -0.07963077      -0.02428352
Ni       6.33437741       6.44349422       6.36847178        1       1.00000000       0.00018020       0.00543202      -0.14130280
Pt       8.91231887       6.38066372       6.41364476        1       0.00000000       0.00696955      -0.05764701       0.11105031
Ni      11.48957697       6.44431932       6.34904666        1       1.00000000       0.00169342       0.00911920      -0.15560318
