64
Lattice="10.276879010281293 -0.008743576473927733 -0.004115397877895258 5.130867345794291 8.827303520720514 -0.024726803679580783 -0.0033602082964587186 -0.021372636914039667 8.73729479920066" Properties=species:S:1:pos:R:3:tags:I:1:initial_magmoms:R:1:forces:R:3 unique_id=284743ee873d4a0badc6daac385645f2 stress="0.00017092648658786208 -3.7135535921783306e-07 7.13511728146758e-07 -3.7135535921783306e-07 0.0001799359996312172 1.1159481390024945e-05 7.13511728146758e-07 1.1159481390024945e-05 0.00017015853823782595" energy=-395.7964711029822 pbc="T T T"
Ni       0.00207799       0.02409293       0.17830521        4       1.00000000       0.07881899       0.10493120       0.23802618
Ni       2.56145257       0.00249225       0.20236403        4       1.00000000      -0.00386187       0.06033758       0.39437129
Ni       5.14073670      -0.02299635       0.15163813        4       1.00000000      -0.00703077       0.04461462       0.20846922
Ni       7.71022806      -0.05012862       0.16919623        4       1.00000000      -0.02859631      -0.12277352       0.29202472
Ni       1.24177831       2.21246791       0.18239263        4       1.00000000      -0.09949711      -0.00345759       0.29548827
Pt       3.77693932       2.16853129       0.17361641        4       0.00000000      -0.11597240       0.00342832       0.17502389
Pt       6.49484575       2.15644992       0.09616135        4       0.00000000       0.10963317      -0.11617318      -0.05346147
Ni       9.03099443       2.22627111       0.14433784        4       1.00000000       0.14104463       0.11729057       0.14818404
Ni       2.51768799       4.43384800       0.04529003        4       1.00000000      -0.09545861      -0.01105980      -0.01371888
Pt       5.13256720       4.43211731       0.02127693        4       0.00000000       0.00653922       0.02547733      -0.13211140
Ni       7.74494908       4.40613883       0.05980885        4       1.00000000       0.07103649      -0.02171641       0.06376659
Ni      10.27271853       4.39397493       0.05040157        4       1.00000000      -0.01566086      -0.05436127       0.01158795
Ni       3.80287053       6.65936646       0.06454488        4       1.00000000      -0.03887591       0.08048961       0.13056414
Pt       6.44768957       6.68335044       0.08350771        4       0.00000000       0.00973864       0.02709644      -0.08696630
Ni       9.00378843       6.61945349       0.12636242        4       1.00000000       0.02547083       0.01057812       0.17044261
Ni      11.57160843       6.61469726       0.04175190        4       1.00000000       0.05058028      -0.04623836      -0.02698652
Ni       1.30890170       0.74075685       2.20909037        3       1.00000000       0.02201450       0.03323875       0.17859810
Ni       3.82321156       0.74876776       2.23027078        3       1.00000000      -0.04177292       0.11298676       0.09343660
Ni       6.41952437       0.74750744       2.23632541        3       1.00000000       0.01175793       0.07543743       0.18774908
Pt       9.00078715       0.76514932       2.16899621        3       0.00000000       0.00701745       0.11863173       0.05460170
Ni       2.53508156       2.88689270       2.24751140        3       1.00000000      -0.04220809      -0.09210804       0.15272980
Ni       5.14375540       2.89528413       2.23770060        3       1.00000000      -0.07778077      -0.08734021      -0.02886015
Ni       7.69943515       2.92296293       2.20447266        3       1.00000000       0.00721193      -0.03242213       0.01698882
Ni      10.29384920       2.90089726       2.19613389        3       1.00000000       0.04869204      -0.01491687       0.17372282
Pt       3.85594775       5.14347565       2.20250429        3       0.00000000      -0.01686515      -0.06489633      -0.19262071
Ni       6.42873766       5.13981762       2.19175177        3       1.00000000      -0.03763069       0.01077225      -0.08428129
Pt       8.92550816       5.09473600       2.19659054        3       0.00000000      -0.04923559       0.00314783       0.04396063
Pt      11.55186687       5.08459178       2.18885311        3       0.00000000       0.02249419      -0.09034731      -0.01289157
Ni       5.15922967       7.37189745       2.17245953        3       1.00000000       0.06290273       0.04872357       0.00162608
Ni       7.66264924       7.38224207       2.19094537        3       1.00000000      -0.07898593       0.01855184       0.09694127
Pt      10.30437189       7.39702996       2.14082024        3       0.00000000       0.05212683       0.01063196       0.00842347
Ni      12.83947344       7.35812536       2.14861577        3       1.00000000       0.00054544      -0.03612455      -0.01874786
Ni       0.02446358       1.49820842       4.30318186        2       1.00000000       0.08169849       0.08809512      -0.03462941
Ni       2.53954880       1.49227971       4.26968722        2       1.00000000      -0.06554367       0.07919709      -0.06851567
Ni       5.15278958       1.45720447       4.27478018        2       1.00000000      -0.02854804      -0.05387674      -0.16113869
Ni       7.68820346       1.45549571       4.31024046        2       1.00000000       0.00554580      -0.07563763      -0.05048999
Ni       1.27929547       3.67989109       4.32202793        2       1.00000000      -0.00558225      -0.03407548      -0.07870593
Ni       3.80201382       3.66600079       4.29226660        2       1.00000000      -0.09949422      -0.06097833      -0.17566466
Pt       6.45657807       3.61703997       4.30613986        2       0.00000000       0.03951466      -0.03593349      -0.14161286
Ni       9.02451291       3.67268773       4.32094232        2       1.00000000       0.13997973      -0.03131305      -0.07401656
Ni       2.51965397       5.84705381       4.37453552        2       1.00000000      -0.05817046      -0.02886310      -0.05706298
Pt       5.15488473       5.87709272       4.35373246        2       0.00000000       0.06900757       0.06221368      -0.12091014
Ni       7.70884271       5.85451592       4.31892726        2       1.00000000       0.03135217      -0.01687154      -0.09454212
Ni      10.30472233       5.82873715       4.35094488        2       1.00000000       0.04633614      -0.02403240      -0.04172139
Pt       3.80926033       8.07979812       4.25352657        2       0.00000000      -0.03688057      -0.01083098       0.10834441
Ni       6.41924737       8.10085748       4.26469874        2       1.00000000      -0.05170043       0.14802938      -0.14401003
Pt       8.95725736       8.08823621       4.24268979        2       0.00000000      -0.06524148      -0.01568424       0.15878748
Ni      11.55145270       8.06192642       4.28972767        2       1.00000000      -0.02338307      -0.03951627      -0.06769826
Pt      -0.00654968      -0.08281847       6.50964877        1       0.00000000       0.01566183      -0.07821390       0.06113941
Pt       2.55571472      -0.04652805       6.50151155        1       0.00000000      -0.06532750       0.01685031       0.19415397
Pt       5.16505720      -0.03224822       6.48655716        1       0.00000000       0.06923287      -0.05059645       0.00116991
Pt       7.69093059      -0.07606184       6.50792026        1       0.00000000      -0.06936475      -0.11749969       0.13640210
Pt       1.27869156       2.29410839       6.45185731        1       0.00000000       0.02644350       0.06599299       0.11746331
Pt       3.89849289       2.28707462       6.36464465        1       0.00000000       0.04079053       0.17888743      -0.27205361
Ni       6.42174162       2.21822657       6.39396762        1       1.00000000      -0.02777274      -0.00700289      -0.24502326
Pt       8.93663269       2.27430119       6.44771891        1       0.00000000      -0.03541138       0.08194852       0.01367045
Ni       2.56136675       4.46941858       6.43006179        1       1.00000000       0.04015691       0.10393037      -0.25749723
Ni       5.14419275       4.42578634       6.37941761        1       1.00000000       0.02923375       0.07933081      -0.34128680
Ni       7.66251038       4.39755757       6.45061131        1       1.00000000      -0.20502721      -0.00162169      -0.17785850
Ni      10.30516801       4.41903476       6.43412485        1       1.00000000       0.16250852       0.01818351      -0.24491983
Ni       3.82206001       6.53480725       6.46065098        1       1.00000000      -0.04013399      -0.12714078      -0.09922070
Ni       6.41335162       6.54439370       6.38794611        1       1.00000000       0.08109036      -0.05272804      -0.18228129
Pt       8.99840592       6.47015095       6.46663890        1       0.00000000       0.00012929      -0.08743293       0.07279158
Ni      11.58297902       6.52721897       6.42862999        1       1.00000000       0.02070734      -0.08523996      -0.21914387
