64
Lattice="10.123870751313719 0.0030452362696353178 -0.0359994147015088 5.064572627626891 8.699740883574565 -0.04315425745871452 -0.029393399019181397 -0.02371593727871376 8.632742204835852" Properties=species:S:1:pos:R:3:tags:I:1:initial_magmoms:R:1:forces:R:3 unique_id=992a099dfbba4b4ca7a2ac93d3b9e171 stress="-9.201811881500571e-05 3.3741473819609846e-06 -5.864899920497042e-06 3.3741473819609846e-06 -8.061357135302066e-05 -5.20504876234927e-06 -5.864899920497042e-06 -5.20504876234927e-06 -5.299735856291454e-05" energy=-387.8707315336891 pbc="T T T"
Ni       0.02185667      -0.01542554       0.17060544        4       1.00000000       0.01766320       0.03574780       0.21548969
Ni       2.48995690      -0.00375780       0.19310808        4       1.00000000      -0.09400483      -0.03658824       0.20642520
Ni       5.09157290      -0.00690484       0.19875773        4       1.00000000      -0.01049227      -0.03401019       0.29232254
Ni       7.55123048      -0.04154005       0.16412657        4       1.00000000      -0.03532360      -0.05567183       0.28986833
Ni       1.26432440       2.18774482       0.10872835        4       1.00000000      -0.01969536       0.03943277       0.16740240
Pt       3.78384206       2.19041296       0.17235630        4       0.00000000      -0.04967198      -0.02002806       0.32420310
Ni       6.31774683       2.18537555       0.09351369        4       1.00000000      -0.03193979       0.00598907       0.16863103
Pt       8.85335225       2.22851405      -0.02207894        4       0.00000000      -0.03144795      -0.00249139      -0.23578732
Ni       2.50508838       4.38508480       0.08713731        4       1.00000000      -0.03990021       0.01877627       0.09957332
Ni       5.07280722       4.38164548       0.07895900        4       1.00000000      -0.06614819       0.04917947       0.12562913
Ni       7.53711271       4.35489140       0.07265523        4       1.00000000      -0.08663761       0.01590399       0.14139343
Ni      10.17622057       4.35870981       0.06193971        4       1.00000000       0.09573271       0.03342699       0.13730497
Ni       3.76767364       6.49421051       0.04715636        4       1.00000000      -0.09091363      -0.05931550       0.01427042
Ni       6.31153270       6.49912957       0.02550414        4       1.00000000      -0.00634595      -0.03593436      -0.07907722
Pt       8.86228367       6.51132485       0.13040150        4       0.00000000       0.01033845      -0.00181078       0.24749019
Ni      11.42224554       6.51483662       0.05642549        4       1.00000000      -0.01857785      -0.02244413       0.08132184
Ni       1.30316061       0.75900140       2.18545961        3       1.00000000      -0.03531734       0.05696180       0.10657504
Ni       3.75810433       0.67401486       2.17243133        3       1.00000000      -0.09455752      -0.02488302      -0.01916499
Ni       6.29911663       0.71192897       2.12466363        3       1.00000000       0.04355788       0.01528860       0.08884617
Pt       8.83507729       0.77872262       2.16770683        3       0.00000000       0.05978093       0.16860526      -0.10637294
Ni       2.48618666       2.92242018       2.21425776        3       1.00000000       0.01017261       0.02825638       0.02914185
Ni       5.07441851       2.93916082       2.15248531        3       1.00000000      -0.07803317       0.07159319      -0.08430082
Ni       7.56729355       2.94281441       2.14137551        3       1.00000000       0.09386128       0.00168237      -0.02806003
Ni      10.16057861       2.95016089       2.16500574        3       1.00000000       0.00276922       0.05794600       0.02306837
Ni       3.75499649       5.02702329       2.14184833        3       1.00000000      -0.06962512      -0.03536783      -0.00096829
Ni       6.35558926       5.04136149       2.10226682        3       1.00000000       0.08659401       0.03049394      -0.05104083
Ni       8.86534608       5.04065678       2.18428380        3       1.00000000       0.05997927       0.02285296      -0.01722550
Ni      11.38210937       5.06865370       2.12563382        3       1.00000000      -0.01814557      -0.00771450       0.03012758
Pt       5.10457162       7.16321732       2.10588363        3       0.00000000      -0.00679305      -0.08568956      -0.07997790
Ni       7.61225599       7.24997151       2.18362554        3       1.00000000       0.07672391      -0.08763924      -0.03327432
Ni      10.14705241       7.23963996       2.17530665        3       1.00000000      -0.03840864      -0.11808765       0.01647308
Ni      12.59080454       7.19065606       2.08867941        3       1.00000000       0.00576591      -0.11572944       0.05145928
Ni       0.02401748       1.49825862       4.28131951        2       1.00000000       0.06757887       0.01258995      -0.05612046
Ni       2.45783986       1.46176165       4.21318589        2       1.00000000       0.02412911       0.04398577      -0.01568076
Pt       5.04118256       1.40757743       4.15989204        2       0.00000000      -0.08623363      -0.05610355       0.13524507
Ni       7.59924410       1.47343226       4.26562951        2       1.00000000      -0.00216744      -0.01078483      -0.01393186
Ni       1.25043000       3.62421758       4.26890931        2       1.00000000       0.03486078       0.01627612      -0.09289687
Ni       3.72987845       3.68565862       4.20671973        2       1.00000000      -0.00994815      -0.00132687      -0.09045632
Pt       6.34789792       3.67057613       4.24991995        2       0.00000000       0.02912905       0.03802910       0.02625557
Ni       8.89968002       3.64048359       4.23675817        2       1.00000000       0.05784392       0.11545382      -0.15876459
Ni       2.48357788       5.73314639       4.25807205        2       1.00000000      -0.06140602      -0.06704735      -0.17681241
Ni       5.04099857       5.76801777       4.28197344        2       1.00000000      -0.02498123      -0.06640206      -0.08787879
Ni       7.58101505       5.80913035       4.17300687        2       1.00000000       0.07084073       0.03294995      -0.13411071
Ni      10.14942197       5.75210594       4.17519544        2       1.00000000       0.00415671      -0.07009388      -0.08235463
Pt       3.75858478       7.89629531       4.22990887        2       0.00000000      -0.08685057       0.03138124       0.24468933
Ni       6.35275578       7.94589725       4.20229421        2       1.00000000       0.01906571       0.04786646       0.00707773
Ni       8.83076744       7.92459619       4.15894726        2       1.00000000       0.03924531      -0.08249634       0.02561746
Ni      11.35326661       7.88971689       4.17138775        2       1.00000000      -0.04271160      -0.07222386       0.01152504
Pt      -0.01054871       0.00086746       6.43472646        1       0.00000000       0.08933535       0.02577476       0.04275757
Pt       2.50128944      -0.01590463       6.37113852        1       0.00000000      -0.11754906       0.00142051       0.01771498
Pt       5.05941622      -0.03690818       6.41709698        1       0.00000000       0.13524973       0.00375591       0.12216887
Pt       7.57524623      -0.00521087       6.42079978        1       0.00000000      -0.02805250       0.01822843       0.14024139
Ni       1.20932816       2.23540233       6.35167822        1       1.00000000       0.03368261       0.04293245      -0.11521837
Pt       3.75474142       2.29967314       6.30950184        1       0.00000000      -0.00337864       0.22741660      -0.28436741
Ni       6.34245507       2.22206001       6.37317668        1       1.00000000      -0.01835789       0.03214406      -0.02567536
Ni       8.85080821       2.23616742       6.21847078        1       1.00000000       0.04366017       0.07156578      -0.41236837
Ni       2.47618011       4.39341888       6.34420012        1       1.00000000      -0.02909160       0.05381826      -0.12696562
Ni       5.05997883       4.39933628       6.36505906        1       1.00000000       0.01714243       0.07813385      -0.02335425
Ni       7.56597691       4.29621344       6.36379212        1       1.00000000       0.03891788      -0.07189912      -0.00763324
Ni      10.14793441       4.28745729       6.31203982        1       1.00000000       0.08329430      -0.04237596      -0.12454996
Ni       3.77889378       6.42914946       6.35686630        1       1.00000000      -0.00830116      -0.05091789      -0.08965703
Ni       6.27860794       6.44275005       6.32002897        1       1.00000000       0.05259234       0.00192259      -0.27519033
Pt       8.84763133       6.37451129       6.24410551        1       0.00000000       0.03655488      -0.20671732      -0.34459464
Ni      11.41148331       6.43313612       6.30749693        1       1.00000000       0.00078986      -0.00598775      -0.15647779
