64
Lattice="10.12940843821112 0.030461385071412557 -0.03356323105455098 5.091084552411864 8.797202271648766 -0.025188924024020745 -0.02740426340092788 -0.007926486466101031 8.66672395340571" Properties=species:S:1:pos:R:3:tags:I:1:initial_magmoms:R:1:forces:R:3 unique_id=28044f38d2254d7a93877bf53d8caaa4 stress="0.0001019028432531141 -7.614802426428653e-06 2.0252051509213936e-05 -7.614802426428653e-06 0.00010928062097626673 -8.530677462592668e-06 2.0252051509213936e-05 -8.530677462592668e-06 0.0001142457069424549" energy=-392.29372739146953 pbc="T T T"
Ni       0.04691305      -0.01305558       0.11322044        4       1.00000000       0.16527186      -0.02657294       0.22160605
Ni       2.50501243       0.04935053       0.10874113        4       1.00000000      -0.04696668       0.12065824       0.24124482
Ni       5.06404792       0.04671981       0.14242437        4       1.00000000      -0.00784492       0.07009953       0.21858901
Ni       7.56193496       0.00515538       0.06223874        4       1.00000000      -0.16378320      -0.04426242       0.14504217
Ni       1.28852669       2.12962097       0.15831858        4       1.00000000      -0.02340482      -0.09675036       0.26654125
Ni       3.83552874       2.15601900       0.07892073        4       1.00000000       0.06953273      -0.15154999       0.18242369
Ni       6.28303278       2.19521328       0.13935054        4       1.00000000      -0.09190414      -0.02505313       0.23400699
Pt       8.86202921       2.11432466       0.06591208        4       0.00000000      -0.08846586      -0.14841021      -0.11278721
Pt       2.60597220       4.38419895       0.01669979        4       0.00000000      -0.01131117      -0.07778541      -0.19189032
Ni       5.07164465       4.38004003       0.09378348        4       1.00000000      -0.00540910      -0.03291758       0.31485884
Pt       7.51173128       4.41537762       0.17132522        4       0.00000000      -0.11047019       0.03023316       0.37962639
Pt      10.15916178       4.42336930       0.06440500        4       0.00000000       0.04845248       0.02003315      -0.01845264
Pt       3.85040753       6.66277582       0.07811364        4       0.00000000       0.06001691       0.08779494      -0.08507451
Ni       6.33469165       6.64811220       0.16023482        4       1.00000000       0.05108975       0.09716718       0.37583215
Pt       8.87166787       6.72253081       0.06793228        4       0.00000000      -0.03415266       0.17198544      -0.11174045
Ni      11.42131460       6.67377458       0.05751697        4       1.00000000      -0.01134931       0.08920953       0.19632193
Ni       1.23427281       0.67782587       2.15775785        3       1.00000000      -0.05622199      -0.13628020       0.12345568
Ni       3.78440715       0.69303941       2.15159944        3       1.00000000      -0.00831516      -0.16722190       0.05443376
Pt       6.32609487       0.73539103       2.18816940        3       0.00000000       0.03346743      -0.06972193       0.13741699
Ni       8.89075353       0.73152222       2.17707427        3       1.00000000       0.04144021      -0.06552949       0.05086231
Pt       2.52482081       2.91020900       2.16869108        3       0.00000000       0.00341569       0.10602060      -0.13130379
Ni       5.09272450       2.96849273       2.15180924        3       1.00000000       0.03165066       0.05623094       0.08460656
Ni       7.58164608       2.93972424       2.19584654        3       1.00000000      -0.06707987      -0.06304862       0.01670310
Ni      10.12199858       2.93236883       2.16950389        3       1.00000000       0.04002541      -0.12162258      -0.07150080
Ni       3.84117995       5.16866498       2.19457389        3       1.00000000       0.00229481       0.13800225       0.05199009
Ni       6.30548879       5.16847075       2.22559986        3       1.00000000      -0.01697224       0.07164549       0.18088718
Ni       8.87348173       5.18815373       2.20067985        3       1.00000000      -0.01492402       0.23404790      -0.02049472
Ni      11.39890092       5.20751704       2.19934088        3       1.00000000       0.02632044       0.03779394       0.07855762
Ni       5.11244972       7.33743930       2.18231037        3       1.00000000       0.04504380      -0.01709450       0.13234838
Ni       7.59250129       7.34983000       2.19440050        3       1.00000000      -0.00003313       0.02193970       0.14341744
Ni      10.14730881       7.32981271       2.19203749        3       1.00000000      -0.00681837      -0.05731195       0.14992819
Ni      12.66470935       7.32981590       2.14770801        3       1.00000000      -0.02976535      -0.09615578       0.07695841
Ni      -0.02268767       1.44016387       4.28184916        2       1.00000000       0.08640510      -0.05509267      -0.16914675
Pt       2.52970536       1.37972828       4.28580768        2       0.00000000       0.00721258      -0.11140125       0.11034675
Ni       5.07429582       1.45520095       4.26462803        2       1.00000000       0.00434157      -0.04959805      -0.04497557
Ni       7.58184251       1.47799829       4.27864918        2       1.00000000      -0.00350544       0.00409053      -0.04273948
Ni       1.26015853       3.70498520       4.29539843        2       1.00000000       0.06845686       0.03189283      -0.15410137
Pt       3.83960534       3.72139858       4.31240904        2       0.00000000       0.11720555       0.00561863      -0.03911470
Ni       6.33019131       3.68542912       4.22679410        2       1.00000000       0.12695589       0.03396697      -0.10084920
Pt       8.89589939       3.67528886       4.19040196        2       0.00000000      -0.03307688       0.09600043       0.10435908
Ni       2.49244100       5.87509278       4.29232541        2       1.00000000      -0.06965918       0.04729349      -0.22313277
Ni       5.09383313       5.87148925       4.25486152        2       1.00000000       0.09103155       0.05905751      -0.09508595
Ni       7.60268422       5.91909167       4.21862294        2       1.00000000      -0.00228285       0.02091438      -0.11850254
Ni      10.15455926       5.91409619       4.26122223        2       1.00000000       0.03597417       0.03685033      -0.15442905
Pt       3.80777407       8.05127437       4.27647485        2       0.00000000      -0.00836097      -0.05623461      -0.04353225
Ni       6.35133842       8.04300125       4.23860082        2       1.00000000      -0.01624757      -0.08617528      -0.16548803
Ni       8.88150532       8.01341462       4.23461044        2       1.00000000       0.05940553      -0.13847938      -0.19334157
Ni      11.38908439       8.04851150       4.26167139        2       1.00000000      -0.02808356      -0.08787397      -0.02864859
Ni      -0.04723723       0.01504545       6.42266405        1       1.00000000      -0.10767049       0.11786547      -0.09930372
Ni       2.51053484      -0.00548061       6.42173083        1       1.00000000      -0.01143069      -0.01499288      -0.03294211
Pt       5.02502139      -0.05577106       6.39334600        1       0.00000000      -0.00344768      -0.09697278       0.07972448
Ni       7.60705665      -0.01424340       6.39006547        1       1.00000000      -0.00405582      -0.09782195      -0.11104207
Pt       1.23236011       2.20686833       6.44044641        1       0.00000000      -0.00963575       0.09382834       0.08771206
Ni       3.78175079       2.21880419       6.42346963        1       1.00000000      -0.01214309       0.03779887      -0.06290646
Pt       6.31293367       2.19712449       6.38683912        1       0.00000000      -0.01579164       0.00418573       0.04143567
Ni       8.85832433       2.17819326       6.30173701        1       1.00000000      -0.04882271      -0.03872268      -0.32865377
Ni       2.51994054       4.43511830       6.30606221        1       1.00000000      -0.07867635       0.11965301      -0.35969241
Ni       5.02000496       4.42040665       6.40998693        1       1.00000000      -0.02044926       0.10482633      -0.02615285
Pt       7.62454662       4.43771066       6.33305863        1       0.00000000       0.10561826       0.01737378      -0.23662205
Ni      10.16820368       4.46167721       6.28856944        1       1.00000000       0.11415301       0.17305304      -0.27347146
Ni       3.75441249       6.57704160       6.32536991        1       1.00000000      -0.13325291      -0.10444127      -0.23641276
Pt       6.29092795       6.66573065       6.37742246        1       0.00000000      -0.11399381       0.11237071       0.12795003
Ni       8.89093083       6.60104321       6.28018002        1       1.00000000       0.01811932      -0.07756368      -0.33796184
Ni      11.42016939       6.58526237       6.33905179        1       1.00000000       0.06287729      -0.05684296      -0.18769331
