64
Lattice="10.167202400233215 0.02976836536595704 -0.02230937094547991 5.109381360752716 8.799439271781555 -0.006285427459867626 0.0 0.0 21.375404594020736" Properties=species:S:1:pos:R:3:tags:I:1:initial_magmoms:R:1:forces:R:3 unique_id=f12c83c8aa5d44f790122656ffcfb33b stress="0.005461662798725169 0.00011401249729852498 -6.318011950229254e-05 0.00011401249729852498 0.004893457550835881 5.0220925878266177e-05 -6.318011950229254e-05 5.0220925878266177e-05 -0.0006984976127720494" energy=-369.42531229781906 pbc="T T T"
Ni       0.02667819      -0.04051135       0.09118387        1       1.00000000       0.05672928      -0.06606433      -0.19416125
Ni       2.48637106       0.00588549       0.09327121        1       1.00000000       0.02880632      -0.01671486      -0.07375786
Pt       5.13702558       0.00299947       0.09812703        1       0.00000000      -0.07585604      -0.02450527      -0.64889447
Ni       7.64645465      -0.01812471       0.05029989        1       1.00000000       0.03691586      -0.12312062      -0.21724892
Ni       1.27098569       2.21319682       0.02787162        0       1.00000000      -0.03159170       0.01750338       0.31503063
Pt       3.77899485       2.27344231       0.09625382        1       0.00000000      -0.01883799       0.02950629      -0.53444441
Ni       6.36561611       2.25409761       0.01496499        0       1.00000000      -0.05760396       0.02012796       0.20478552
Pt       8.90445555       2.27074498       0.04018917        0       0.00000000       0.06440367       0.04861439      -0.73974422
Ni       2.52741339       4.44370692       0.01715792        0       1.00000000       0.07962370       0.04537607       0.45832761
Ni       5.10761545       4.44847613       0.09977187        1       1.00000000      -0.13473983       0.10242691      -0.10180945
Ni       7.58417084       4.41302177       0.00924424        0       1.00000000      -0.04950310       0.05337492       0.23259624
Ni      10.23064829       4.41852504       0.00000000        0       1.00000000       0.05335769       0.01905198       0.35292601
Ni       3.82906481       6.58594527       0.01838006        0       1.00000000       0.02742024      -0.01069893       0.46652286
Ni       6.32564423       6.60119744       0.01918711        0       1.00000000      -0.04554769       0.00667473       0.30779058
Pt       8.88336760       6.55497906       0.09555342        1       0.00000000      -0.01506897       0.02435787      -0.55199559
Ni      11.50576510       6.58205094       0.00261558        0       1.00000000      -0.00888431       0.02140674       0.37687393
Ni       1.30819356       0.73417249       2.07656953        3       1.00000000      -0.01337288       0.11127340       0.06760847
Ni       3.75677707       0.71807754       2.11403697        3       1.00000000      -0.20705510      -0.13346732       0.05431139
Ni       6.36891434       0.75516950       2.10489987        3       1.00000000       0.05282867       0.00063858       0.02721518
Pt       8.87334207       0.68500012       2.10639317        3       0.00000000       0.04079768      -0.14752955      -0.01301318
Ni       2.51169910       2.97204129       2.14954812        3       1.00000000      -0.01735652       0.12183721       0.17508482
Ni       5.09566796       2.98468793       2.07799229        3       1.00000000      -0.05581326       0.11527467      -0.00784298
Ni       7.60713094       2.98671247       2.08800656        3       1.00000000       0.01805865       0.00115643       0.11436983
Ni      10.21741504       3.01478435       2.08708038        3       1.00000000       0.12396229       0.10142191       0.08998571
Ni       3.80876962       5.14481547       2.09195643        3       1.00000000      -0.10913373       0.00816068       0.13567919
Ni       6.34759436       5.16206358       2.03285372        2       1.00000000      -0.01296024       0.10529085      -0.02761934
Ni       8.93312538       5.10535704       2.10482186        3       1.00000000       0.16592136      -0.14830838       0.00360051
Ni      11.45779161       5.16016209       2.07896524        3       1.00000000       0.04906224       0.02697812       0.15633772
Ni       5.11298554       7.28451189       2.08972637        3       1.00000000      -0.04216651      -0.17784315       0.16436760
Ni       7.60832430       7.37520989       2.09340666        3       1.00000000      -0.11239280       0.13621819       0.01309558
Ni      10.21239344       7.31828624       2.15949381        4       1.00000000       0.06398362      -0.10022235       0.23614598
Ni      12.70984240       7.29927534       2.07825523        3       1.00000000      -0.03789264      -0.24198254       0.14115452
Pt       0.06536688       1.49633694       4.16976207        6       0.00000000       0.09730904       0.05038650       0.14161439
Ni       2.53002584       1.48589743       4.15085431        6       1.00000000       0.13394336      -0.00639825      -0.29712381
Pt       5.06549543       1.44845738       4.08579496        5       0.00000000      -0.01944204      -0.05980326       0.09369611
Ni       7.61801606       1.45822797       4.18309104        6       1.00000000      -0.00236891      -0.10754175      -0.17852043
Ni       1.29793004       3.71552915       4.21854032        6       1.00000000       0.11640931       0.11330177      -0.16454137
Ni       3.75243982       3.73784147       4.15650986        6       1.00000000      -0.05859089       0.16289475      -0.25573552
Pt       6.36775450       3.67871111       4.15607946        6       0.00000000      -0.02523595      -0.00459439       0.02624082
Ni       8.94878403       3.73928315       4.15557515        6       1.00000000       0.15632691       0.14046224      -0.23767340
Ni       2.54634110       5.85982548       4.21297739        6       1.00000000       0.03697460      -0.01204943      -0.18912244
Ni       5.03370844       5.91350906       4.18180033        6       1.00000000      -0.09699691       0.00863835      -0.23002274
Pt       7.62630225       5.91675543       4.10941348        5       0.00000000      -0.02231232       0.05659297       0.09096154
Ni      10.24548272       5.86975793       4.16166431        6       1.00000000       0.12349845      -0.01518378      -0.21605370
Ni       3.81379005       7.99865712       4.19113158        6       1.00000000      -0.01020447      -0.15923548      -0.12786114
Ni       6.35739196       8.05848069       4.14932435        5       1.00000000      -0.05063365       0.02344889      -0.29953948
Ni       8.90815906       8.07246225       4.13301087        5       1.00000000      -0.02399806       0.01866857      -0.34231997
Ni      11.47935774       8.01147533       4.13406465        5       1.00000000       0.04356320      -0.16976895      -0.22217330
Pt      -0.01790290      -0.06805543       6.37338197        8       0.00000000      -0.09244618       0.06115413       0.14277561
Pt       2.50946890       0.00145872       6.32184624        7       0.00000000       0.12672018      -0.03307869       0.12819750
Pt       5.09457737      -0.01163378       6.27133113        7       0.00000000      -0.06816559      -0.15473447       0.71191863
Pt       7.61566635      -0.03083411       6.31080126        7       0.00000000      -0.00482839       0.06878044       0.14680647
Ni       1.25375933       2.26628644       6.33906231        7       1.00000000      -0.01928194       0.06619655      -0.11050733
Pt       3.75088657       2.29517105       6.26551327        7       0.00000000      -0.09672627       0.13783165       0.55936897
Ni       6.35322950       2.24061401       6.33676092        7       1.00000000      -0.06380187       0.01378371      -0.02884593
Pt       8.87882055       2.32780105       6.25411940        7       0.00000000      -0.06786395      -0.03963523       0.77713832
Ni       2.48728371       4.45376910       6.31358334        7       1.00000000       0.06490616       0.00470273      -0.35807015
Pt       5.08677788       4.49356865       6.37540459        8       0.00000000      -0.21381290      -0.01442947       0.04385117
Ni       7.61232204       4.42778530       6.34246931        7       1.00000000      -0.01698616       0.00607395      -0.07785147
Ni      10.23756782       4.42346040       6.30133048        7       1.00000000       0.09331822      -0.06017621      -0.28427519
Ni       3.78396830       6.56653451       6.31542359        7       1.00000000      -0.09772509      -0.07706149      -0.30735811
Ni       6.35934363       6.59131949       6.33085935        7       1.00000000       0.07490022       0.02397913      -0.17956418
Pt       8.94535581       6.50899721       6.27978230        7       0.00000000       0.19655782       0.02572031       0.57865783
Ni      11.49065420       6.55150817       6.29326465        7       1.00000000      -0.02909994       0.00486028      -0.31734591
