64
Lattice="10.28486641250423 0.004049833209541426 -0.0379090107221626 5.145940464692668 8.860166028653483 -0.09254424443206188 -0.030952577640998284 -0.06938107136378516 8.795280183205643" Properties=species:S:1:pos:R:3:tags:I:1:initial_magmoms:R:1:forces:R:3 unique_id=b708c39a84a04cccb262b812b4ae1379 stress="-0.00024134452499939563 -2.365793425096025e-06 1.1527930852505297e-05 -2.365793425096025e-06 -0.00022955149542241288 2.4694126715951037e-05 1.1527930852505297e-05 2.4694126715951037e-05 -0.00019155475109151887" energy=-395.4189140689708 pbc="T T T"
Ni       0.02393123       0.01182694       0.16008901        4       1.00000000       0.10815971       0.03966992       0.18352934
Ni       2.58294256       0.02490962       0.19354207        4       1.00000000       0.02584368       0.03688975       0.20369927
Ni       5.10814129      -0.02466298       0.04997426        4       1.00000000      -0.10870705      -0.04214523       0.04194328
Ni       7.71815249      -0.02615943       0.11575763        4       1.00000000      -0.00692619       0.01434036       0.16515847
Ni       1.28561967       2.21563007       0.08708409        4       1.00000000      -0.01272473      -0.00291012       0.12849509
Ni       3.81916070       2.21052970       0.18064011        4       1.00000000      -0.05780718      -0.06034560       0.26844363
Pt       6.42355238       2.27607739       0.11088566        4       0.00000000      -0.05594067       0.02522933       0.46743658
Ni       9.04100057       2.24578033       0.02627502        4       1.00000000       0.08582954       0.05858264       0.05270300
Ni       2.58355334       4.40035535       0.02536328        4       1.00000000      -0.00132261      -0.18346507       0.00915402
Ni       5.08820646       4.42650758       0.02613378        4       1.00000000      -0.19410733      -0.00038650       0.06241711
Ni       7.76912460       4.42069227       0.01533214        4       1.00000000       0.16501971       0.01413567       0.09679977
Ni      10.27007821       4.39994321      -0.01065198        4       1.00000000      -0.06647873      -0.12375129       0.00374689
Ni       3.85076029       6.60960275      -0.01130132        4       1.00000000      -0.01525228      -0.14458234      -0.04133361
Pt       6.42518574       6.66234095      -0.04271176        4       0.00000000      -0.01138714      -0.03720899      -0.29854631
Ni       8.99990481       6.62030986       0.04884326        4       1.00000000      -0.08496887      -0.12534061       0.15859288
Ni      11.56536482       6.62497297      -0.05807021        4       1.00000000      -0.10127494      -0.11483770      -0.11313275
Ni       1.31550471       0.73661326       2.14339729        3       1.00000000       0.02285785       0.05054684      -0.06608864
Ni       3.79630768       0.73611404       2.14177899        3       1.00000000       0.03353866      -0.02739660       0.08340233
Pt       6.38583678       0.72631443       2.16802416        3       0.00000000      -0.03564283       0.11334375      -0.06037690
Pt       9.09120041       0.78634545       2.11220118        3       0.00000000       0.05818605      -0.02929638       0.02899224
Ni       2.56687274       2.90521585       2.11939131        3       1.00000000      -0.08924060      -0.01496004      -0.01849291
Ni       5.07209816       2.96414287       2.15719671        3       1.00000000      -0.03191079      -0.00757887       0.07166085
Ni       7.77052252       2.98786509       2.15515524        3       1.00000000       0.11436288       0.04952242       0.02596856
Ni      10.27972488       2.94331052       2.11721652        3       1.00000000       0.04125642      -0.01937630       0.00367719
Ni       3.86739462       5.11731057       2.11291885        3       1.00000000      -0.00268162      -0.06298273      -0.10890600
Pt       6.43137295       5.16298157       2.13103522        3       0.00000000       0.00792676       0.07272064      -0.14215738
Ni       8.98000124       5.11195975       2.13163285        3       1.00000000       0.01953087      -0.08618917       0.02623067
Pt      11.55132750       5.07020464       2.07047851        3       0.00000000       0.00377190      -0.08591641      -0.09414930
Ni       5.16074304       7.36208255       2.10344052        3       1.00000000       0.01381803      -0.03204889      -0.13295911
Ni       7.69924457       7.39130291       2.10694555        3       1.00000000      -0.03052626      -0.00696321      -0.09541137
Pt      10.18106070       7.34496913       2.12229987        3       0.00000000      -0.08755442      -0.06708618      -0.01305345
Pt      12.89325423       7.30106343       2.04216834        3       0.00000000       0.05178808      -0.12782638      -0.05179695
Ni      -0.00893030       1.46647777       4.37834450        2       1.00000000       0.05671057      -0.03737619       0.00488332
Pt       2.50104606       1.43391865       4.26338743        2       0.00000000       0.00562161      -0.04640564       0.06030674
Pt       5.10015288       1.37180865       4.33434120        2       0.00000000      -0.02507264       0.03567980       0.15306198
Pt       7.79486203       1.48133766       4.32577053        2       0.00000000       0.00750582       0.03137736       0.16753062
Pt       1.18114875       3.69998286       4.39146259        2       0.00000000      -0.05184785       0.02974403      -0.00952195
Pt       3.82559153       3.75996841       4.28891630        2       0.00000000      -0.06927744       0.04949440      -0.02313331
Pt       6.46694884       3.75622242       4.31461218        2       0.00000000      -0.01365941       0.04313690      -0.01916256
Ni       8.99929449       3.71548294       4.31516044        2       1.00000000       0.00445791       0.15998373      -0.08325644
Ni       2.51352417       5.88753739       4.36219133        2       1.00000000      -0.17023183       0.00395034      -0.05606602
Ni       5.12252300       5.87563151       4.32753856        2       1.00000000      -0.03662715      -0.04592395      -0.14635197
Ni       7.76759699       5.87243273       4.28706648        2       1.00000000       0.23576929      -0.01723512      -0.17055763
Ni      10.25761580       5.89069949       4.28507047        2       1.00000000      -0.03621960      -0.00146363      -0.12550253
Pt       3.83791695       7.99560635       4.28755250        2       0.00000000      -0.01213237      -0.00209938       0.07228494
Pt       6.45001935       7.99701543       4.20098795        2       0.00000000       0.04645018       0.01887030       0.01554492
Ni       9.00211688       8.02520510       4.27048231        2       1.00000000      -0.02483620      -0.04168621       0.00281686
Ni      11.52495056       8.01583431       4.28949988        2       1.00000000      -0.04681393      -0.08137193      -0.02626547
Pt      -0.02733136      -0.02070795       6.58254899        1       0.00000000      -0.00801321       0.02640577       0.05771305
Pt       2.57907163      -0.06376076       6.58359331        1       0.00000000       0.05352253       0.05615959       0.15368367
Ni       5.12592468      -0.08277780       6.50336111        1       1.00000000      -0.01992919      -0.02286688      -0.12268185
Pt       7.63177063      -0.12835455       6.55838241        1       0.00000000      -0.04308421      -0.10233279       0.06820740
Ni       1.22362159       2.22108514       6.51678730        1       1.00000000      -0.02393708       0.08858110       0.00920355
Pt       3.79010468       2.26616857       6.58947096        1       0.00000000      -0.08722830       0.27611631       0.26516045
Pt       6.44526971       2.24591261       6.47361021        1       0.00000000       0.09142713       0.11253495      -0.19692932
Ni       9.02539736       2.23912081       6.48005629        1       1.00000000       0.11491897       0.18028497      -0.07795082
Ni       2.52253525       4.45356444       6.49677206        1       1.00000000      -0.07701174       0.22879411      -0.02591781
Ni       5.11803455       4.47068931       6.48392354        1       1.00000000       0.02049693       0.19966514      -0.05236170
Ni       7.72752229       4.41025965       6.46667398        1       1.00000000       0.11626301       0.07837138      -0.04297151
Ni      10.26703115       4.36644294       6.46037993        1       1.00000000       0.02911411      -0.00888164      -0.00954393
Ni       3.83435211       6.52884666       6.44648607        1       1.00000000       0.01611012      -0.06703520      -0.15345798
Ni       6.38861924       6.54108677       6.34650149        1       1.00000000       0.06249331      -0.05170914      -0.40046272
Pt       9.03414516       6.52523208       6.42306555        1       0.00000000       0.11893190      -0.00835811       0.08811878
Ni      11.56067256       6.55227684       6.39920534        1       1.00000000       0.00869288      -0.15679112      -0.22206724
