64
Lattice="10.212413725006153 0.0191630245982407 -0.04465828812721545 5.1228025286184975 8.777736505994326 -0.0913655797458082 -0.036463339565956536 -0.06508817575977739 8.712319490863957" Properties=species:S:1:pos:R:3:tags:I:1:initial_magmoms:R:1:forces:R:3 unique_id=536c15c348744b5a86f75f031c180095 stress="-8.794623543371266e-05 -1.0825808936401363e-06 1.7126385988049718e-06 -1.0825808936401363e-06 -6.187800742107896e-05 2.1849340218923953e-05 1.7126385988049718e-06 2.1849340218923953e-05 -2.1845606290371578e-05" energy=-391.788749450476 pbc="T T T"
Ni       0.03362073      -0.04989383       0.18547290        4       1.00000000       0.08902019      -0.08423867       0.30299829
Ni       2.49207299      -0.03527004       0.19272997        4       1.00000000      -0.10780735      -0.05833020       0.31856826
Pt       5.09408063      -0.06935098       0.13601663        4       0.00000000      -0.08982603      -0.22103899       0.35526203
Ni       7.67893773      -0.04928689       0.14156987        4       1.00000000      -0.00363152      -0.06052337       0.30817747
Ni       1.26979365       2.20201787       0.09342091        4       1.00000000       0.00488546       0.02608757       0.27079610
Pt       3.72470643       2.21121570       0.15680269        4       0.00000000      -0.13926040       0.02931005       0.25194195
Pt       6.41689278       2.21618078       0.06187633        4       0.00000000       0.04335880       0.04876737       0.00399604
Pt       9.02150175       2.25439242       0.07309913        4       0.00000000       0.05285402       0.04323197       0.16105365
Ni       2.50097761       4.42411338       0.05721811        4       1.00000000      -0.08080719       0.03594246       0.18264718
Pt       5.09971196       4.50584874       0.03954752        4       0.00000000      -0.08973356       0.17921797      -0.09963719
Ni       7.69428754       4.45488403       0.04050062        4       1.00000000       0.00491054       0.10409887       0.24722498
Ni      10.24957997       4.43726625       0.02651741        4       1.00000000       0.07149460       0.14624016       0.22410639
Ni       3.81006846       6.61392710       0.03755408        4       1.00000000      -0.08677818       0.11135731       0.16797155
Ni       6.41133493       6.62128892       0.03374636        4       1.00000000       0.01805322       0.05892675       0.11368094
Ni       8.90786499       6.53223293       0.08178106        4       1.00000000      -0.11223568      -0.12250852       0.27663608
Ni      11.53478995       6.53575574      -0.01478954        4       1.00000000       0.05260019      -0.12481285       0.06028441
Ni       1.29592959       0.72459070       2.19470393        3       1.00000000      -0.00143568       0.05420375       0.16808122
Ni       3.75560054       0.72705081       2.18852637        3       1.00000000      -0.17443363      -0.06494364      -0.06147267
Ni       6.39963583       0.73252784       2.18786087        3       1.00000000       0.09396656      -0.10451278      -0.02591355
Pt       8.95292825       0.72615168       2.17972101        3       0.00000000       0.11492692       0.17767285      -0.06211146
Ni       2.50243227       2.93906888       2.22771371        3       1.00000000      -0.02812622       0.04643492       0.16117596
Ni       5.08809269       2.95804651       2.17069340        3       1.00000000      -0.10552241       0.24611961      -0.10521169
Ni       7.66949292       2.97388587       2.17695665        3       1.00000000       0.13305299       0.04754807      -0.02218138
Ni      10.26037635       2.97121280       2.17972030        3       1.00000000       0.07573175       0.04666977       0.13870962
Ni       3.80212444       5.11414259       2.17249985        3       1.00000000      -0.05052518       0.01769024       0.12397504
Ni       6.40432516       5.14645638       2.13517208        3       1.00000000       0.02783329       0.10619457      -0.01641023
Ni       8.92047523       5.07388428       2.12011196        3       1.00000000      -0.02144680      -0.14580558       0.12600087
Ni      11.51723305       5.07014296       2.10915256        3       1.00000000       0.13096646      -0.21852397       0.14458459
Ni       5.14542816       7.25211545       2.09005799        3       1.00000000       0.02573207      -0.16962287      -0.00609697
Ni       7.60283502       7.28248087       2.07137203        3       1.00000000      -0.08720688      -0.11664459       0.02471428
Pt      10.25791967       7.19655307       2.12993126        3       0.00000000       0.07228766      -0.14193353      -0.11934724
Ni      12.78225855       7.25568676       2.05374789        3       1.00000000       0.05989356      -0.20945543       0.00158095
Ni       0.04042332       1.46809730       4.29055672        2       1.00000000       0.10829109       0.05087610      -0.05673892
Ni       2.47053184       1.47690204       4.25147714        2       1.00000000      -0.04595600       0.09233687      -0.09905882
Pt       5.10125917       1.46375591       4.18190843        2       0.00000000      -0.14655705       0.02227899       0.01384836
Ni       7.65472095       1.45478733       4.25390866        2       1.00000000       0.04530365       0.00129359      -0.08823831
Ni       1.26704345       3.63237307       4.29500651        2       1.00000000       0.03511060       0.01436361      -0.06243210
Ni       3.76618396       3.70088731       4.23582203        2       1.00000000      -0.05812329       0.11808329      -0.20096565
Pt       6.40846938       3.70740583       4.24817135        2       0.00000000       0.01514098      -0.02822958      -0.10790586
Ni       8.97302529       3.68350357       4.20675497        2       1.00000000       0.12751197       0.09702974      -0.20529350
Ni       2.52821603       5.76747710       4.27657928        2       1.00000000      -0.09194699      -0.11378982      -0.16786867
Ni       5.09561788       5.81702959       4.25889529        2       1.00000000       0.01844027      -0.05486132      -0.20327837
Ni       7.63501104       5.81866935       4.21907833        2       1.00000000       0.01433739       0.05263836      -0.19093773
Ni      10.24586437       5.76314013       4.24250343        2       1.00000000       0.08057212      -0.15747128      -0.00699520
Pt       3.83301311       7.92923195       4.19634337        2       0.00000000      -0.03016894      -0.12568403       0.12438688
Ni       6.36118773       7.99182133       4.18150395        2       1.00000000      -0.11495990      -0.04316454      -0.16802542
Pt       8.85376178       7.97497474       4.14582037        2       0.00000000      -0.10879260      -0.00081994       0.05591107
Ni      11.51045609       7.96791563       4.18450142        2       1.00000000       0.03346709      -0.12380509      -0.02936496
Pt      -0.01428728      -0.08467434       6.49345126        1       0.00000000       0.13301099      -0.04716787       0.12112752
Pt       2.50632972      -0.03171962       6.47624198        1       0.00000000      -0.10621059       0.04940614       0.18306662
Pt       5.10325291      -0.05058981       6.37822918        1       0.00000000       0.10674168       0.03522202      -0.36790117
Pt       7.63595600      -0.07453616       6.44846175        1       0.00000000      -0.08539729      -0.03159741       0.09397213
Ni       1.25015853       2.21622524       6.40289483        1       1.00000000       0.03224679       0.11831918      -0.20163734
Pt       3.77743498       2.28926593       6.34916691        1       0.00000000       0.02484616       0.26831735      -0.26000672
Ni       6.36960313       2.21339444       6.33671546        1       1.00000000      -0.01741866       0.08231419      -0.26283091
Pt       8.93138464       2.26758089       6.27936380        1       0.00000000       0.01878420       0.15619412      -0.38913549
Ni       2.50455274       4.40116254       6.37856674        1       1.00000000      -0.03089754       0.13657629      -0.20374909
Ni       5.09475702       4.41000895       6.31277811        1       1.00000000      -0.03457746       0.13723732      -0.26102688
Ni       7.59929848       4.36120434       6.39079792        1       1.00000000      -0.16062944       0.00238484      -0.05745765
Ni      10.26551045       4.35816378       6.35293513        1       1.00000000       0.26268119      -0.01391314      -0.17935643
Ni       3.81575430       6.45847438       6.38224547        1       1.00000000       0.00443163      -0.16168240      -0.12179212
Ni       6.34281478       6.48067415       6.36034101        1       1.00000000      -0.01226194      -0.04064352      -0.21651098
Pt       8.92398992       6.41271103       6.38918072        1       0.00000000       0.03262142      -0.14308278       0.11708884
Ni      11.51267455       6.47978106       6.33442521        1       1.00000000       0.05756688      -0.03177858      -0.21667863
