64
Lattice="10.356587666152997 -0.017941383672100287 0.036158310416984994 5.162756139037417 8.8134633497102 -0.025456608831658564 0.0 0.0 21.584824179315646" Properties=species:S:1:pos:R:3:tags:I:1:initial_magmoms:R:1:forces:R:3 unique_id=663cf829f86b4b9080dc03e0e3e5616a energy=-375.3912512318148 stress="0.006133986537419172 5.549019717935293e-07 0.0002181933743691718 5.549019717935293e-07 0.00478446960084632 0.00014362420522329473 0.0002181933743691718 0.00014362420522329473 -0.0021989505138083325" pbc="T T T"
Ni      -0.01127187      -0.01630992       0.14802295        1       1.00000000       0.00795350       0.06067422      -0.17573527
Ni       2.61430632      -0.01534822       0.17782772        2       1.00000000       0.07445523       0.05162895      -0.00157908
Ni       5.18093705      -0.04076471       0.14690215        1       1.00000000      -0.00430584       0.07191724      -0.47104546
Ni       7.76063179      -0.08111562       0.18765794        2       1.00000000      -0.09249696      -0.08881975      -0.22775358
Pt       1.29836505       2.21183058       0.07129865        1       0.00000000       0.00026233      -0.06766044       0.07479936
Pt       3.86291176       2.15317965       0.15688819        2       0.00000000       0.02223638      -0.00618598      -0.37704495
Pt       6.47033358       2.11264075       0.08596431        1       0.00000000       0.05793952      -0.04951985      -0.15363292
Pt       9.08435430       2.18336667       0.11166482        1       0.00000000       0.01728963       0.03183630      -0.62764668
Ni       2.55732257       4.45665105       0.01429449        0       1.00000000       0.00414341       0.04174201       0.15166222
Pt       5.12786242       4.44552428       0.00000000        0       0.00000000       0.12983782      -0.00093993      -0.31624968
Pt       7.80388053       4.45313713       0.00500971        0       0.00000000      -0.11814830       0.04888901      -0.26384942
Ni      10.38606070       4.44590131       0.04285138        0       1.00000000       0.03280523       0.06005244       0.16776516
Ni       3.82437115       6.65294154       0.03709044        0       1.00000000      -0.04089979       0.08345608       0.27353405
Pt       6.46515056       6.71379212       0.06116876        1       0.00000000      -0.00070397      -0.00529951       0.00048660
Ni       9.08713631       6.63790313       0.03230371        0       1.00000000      -0.02066205       0.05981371       0.08952327
Ni      11.65974841       6.60095615       0.04133922        0       1.00000000       0.10084562       0.04609109       0.24367806
Ni       1.33239614       0.71497955       2.22294369        4       1.00000000       0.08073855       0.02911536       0.30913945
Ni       3.85924058       0.73883984       2.23281978        4       1.00000000      -0.10321882       0.14426370       0.27447118
Ni       6.47270479       0.74158128       2.23115471        4       1.00000000      -0.03737989       0.17723222       0.29679367
Pt       9.07900359       0.70752975       2.24592270        4       0.00000000       0.06202732       0.18686773      -0.02698146
Ni       2.58465615       2.88106168       2.25745888        5       1.00000000      -0.01314380      -0.14009037       0.38940686
Ni       5.18531475       2.88786547       2.24496384        4       1.00000000      -0.03523596      -0.07126798       0.23636995
Ni       7.74387947       2.90160585       2.24029936        4       1.00000000      -0.03111252      -0.03366184       0.13190987
Ni      10.38138254       2.89106213       2.27527751        5       1.00000000       0.05664355      -0.09968479       0.35466670
Pt       3.88758924       5.13265764       2.20798229        4       0.00000000       0.03901353      -0.09880332      -0.09384257
Ni       6.47355636       5.13242152       2.19884093        4       1.00000000      -0.00142065      -0.03666676       0.06050390
Pt       9.02010705       5.09741096       2.27141964        5       0.00000000      -0.12990184      -0.10079587       0.00857608
Pt      11.65591825       5.06963772       2.21374214        4       0.00000000      -0.02801869      -0.15104104       0.08553014
Ni       5.20647455       7.34656388       2.16796449        4       1.00000000       0.11683478      -0.01995309       0.17594774
Ni       7.72247608       7.36211020       2.18758348        4       1.00000000      -0.14069534       0.03122302       0.18098337
Pt      10.34466676       7.36949070       2.10465613        3       0.00000000      -0.01673155      -0.01385630      -0.08163612
Ni      12.94867209       7.32027485       2.15476710        4       1.00000000       0.01621348      -0.04806204       0.03509332
Ni       0.07352675       1.49546341       4.30608922        6       1.00000000       0.18136920       0.04633345      -0.21138442
Ni       2.56048836       1.48268532       4.29677503        6       1.00000000      -0.07333336       0.03128200      -0.23899026
Ni       5.17908020       1.45824216       4.30628244        6       1.00000000      -0.10368390      -0.06841318      -0.31839103
Ni       7.77653343       1.45761723       4.33754563        6       1.00000000       0.00178761      -0.08973290      -0.22445274
Ni       1.30272839       3.64302905       4.35285861        7       1.00000000       0.00618499      -0.02268143      -0.06330910
Ni       3.84520856       3.64488900       4.30492919        6       1.00000000      -0.14780275      -0.10310594      -0.23798663
Pt       6.51522692       3.59845859       4.32513688        6       0.00000000       0.01834139      -0.07110029      -0.20040343
Ni       9.10835286       3.66339192       4.33524639        6       1.00000000       0.16681915      -0.06570846      -0.16221164
Ni       2.56850183       5.80065342       4.37620472        7       1.00000000      -0.06102537      -0.16759087       0.07265986
Pt       5.21900338       5.84423550       4.36690620        7       0.00000000       0.10439961      -0.01061974      -0.05774140
Ni       7.78492144       5.83619025       4.37124818        7       1.00000000       0.00085989      -0.00733170      -0.04243255
Ni      10.35886728       5.78629964       4.41237532        7       1.00000000       0.01043215      -0.06750650       0.08849942
Pt       3.91307639       8.05696733       4.28111092        6       0.00000000      -0.01701632       0.03437780      -0.00518433
Ni       6.48302798       8.07785623       4.27528756        6       1.00000000      -0.02059787       0.16668071      -0.31939432
Pt       8.99409086       8.04088301       4.27670322        6       0.00000000      -0.02639973       0.07236644       0.01760599
Pt      11.65264300       8.02327104       4.29056369        6       0.00000000      -0.04698969      -0.05921223      -0.01658332
Pt       0.03873897      -0.06558910       6.51527657        9       0.00000000       0.09014589       0.07630977       0.33544861
Pt       2.58815328      -0.07408682       6.52682496        9       0.00000000      -0.03745875       0.07053072       0.23311718
Pt       5.19243546      -0.08223273       6.55757211       10       0.00000000      -0.07161157       0.14488493       0.40245558
Pt       7.77999396      -0.08622870       6.58482418       10       0.00000000      -0.02735638       0.12914353       0.40554936
Ni       1.30932541       2.22896633       6.37664881        8       1.00000000      -0.00305790       0.13947502      -0.09247273
Pt       3.88417335       2.26003009       6.38388434        8       0.00000000      -0.02709688       0.01290127       0.33562364
Ni       6.48938492       2.19248922       6.42269021        8       1.00000000      -0.00668784      -0.04611158       0.14693820
Pt       9.09138994       2.25527533       6.38134780        8       0.00000000       0.01322035       0.05009360       0.53654253
Ni       2.56788375       4.41024670       6.43982097        8       1.00000000      -0.05585307      -0.03815474      -0.38871718
Ni       5.19708384       4.39023154       6.40302938        8       1.00000000      -0.01902475      -0.06564906       0.26299108
Ni       7.78065539       4.40838618       6.38804880        8       1.00000000       0.05905456       0.05031205       0.09623732
Ni      10.39619004       4.40251214       6.46312034        9       1.00000000       0.03918212      -0.03058985      -0.40114025
Ni       3.87162023       6.50859987       6.47768627        9       1.00000000      -0.08584867      -0.10878374      -0.18476430
Ni       6.50034206       6.52022143       6.40685450        8       1.00000000       0.14960459       0.02851235       0.15891122
Ni       9.07502381       6.48947128       6.47099114        9       1.00000000      -0.00415259      -0.10670907      -0.32826301
Ni      11.65602012       6.48347393       6.49171674        9       1.00000000      -0.01156802      -0.01669660      -0.32260108
