64
Lattice="10.277656364661638 -0.016052525367616283 0.03502091950460654 5.124926287567576 8.81004142969827 -0.021075062536083676 0.0 0.0 21.562150256539677" Properties=species:S:1:pos:R:3:tags:I:1:initial_magmoms:R:1:forces:R:3 unique_id=9de63a5e27e64a478e7c0d9d722e180f energy=-373.34373918718603 stress="0.005620929216770684 -5.202814563492086e-05 0.00014794432846720518 -5.202814563492086e-05 0.004873641746964991 1.1617832970937913e-05 0.00014794432846720518 1.1617832970937913e-05 -0.002129273036601471" pbc="T T T"
Ni       0.01464486       0.00063956       0.14774908        1       1.00000000       0.11442515       0.06011826      -0.19675721
Ni       2.57117729       0.00303135       0.17928541        2       1.00000000      -0.03151146       0.04592973      -0.05635599
Ni       5.13589703      -0.03338377       0.14499924        1       1.00000000      -0.05404402       0.13744027      -0.52067947
Ni       7.70603235      -0.07883168       0.18677521        2       1.00000000      -0.08960380      -0.03848786      -0.26442914
Ni       1.28943486       2.20834809       0.07165623        1       1.00000000       0.01644991      -0.00865078       0.34882936
Pt       3.76355784       2.15958885       0.14868190        1       0.00000000       0.04058196       0.01193082      -0.34473261
Pt       6.41735450       2.11661685       0.08235962        1       0.00000000       0.03468775      -0.03772232      -0.13911921
Pt       9.08676227       2.18861369       0.10554461        1       0.00000000      -0.02678121       0.08473754      -0.63860604
Ni       2.52507191       4.43012346       0.02047601        0       1.00000000      -0.01224172      -0.01558863       0.18214360
Pt       5.05118408       4.44969687       0.06115416        1       0.00000000      -0.01115432      -0.02463390      -0.09542706
Pt       7.74668344       4.44052251       0.00000000        0       0.00000000      -0.07529748      -0.01242247      -0.28384656
Ni      10.33547724       4.42270339       0.04353749        0       1.00000000       0.06121001       0.02719496       0.20720157
Ni       3.79082792       6.64056073       0.05546125        1       1.00000000      -0.05506239       0.04092366       0.29363760
Pt       6.41358565       6.70764416       0.05474690        1       0.00000000       0.00043694       0.01090599      -0.04515342
Ni       9.02215127       6.63432878       0.02852281        0       1.00000000      -0.03182767       0.04082734       0.02462165
Ni      11.57833045       6.59357693       0.03915937        0       1.00000000       0.09982420       0.01023254       0.19557587
Ni       1.32526235       0.73584969       2.18736878        4       1.00000000       0.07116549       0.07299853       0.21769528
Ni       3.82758021       0.74378719       2.21880507        4       1.00000000      -0.06450927       0.13460503       0.25949401
Ni       6.42071104       0.74560535       2.21967975        4       1.00000000      -0.05068553       0.18086602       0.26685278
Pt       9.01558759       0.70967180       2.23053144        4       0.00000000       0.05677361       0.15910130      -0.00359825
Ni       2.56447316       2.89627149       2.23422043        4       1.00000000       0.02865792      -0.11196041       0.27265417
Ni       5.11879505       2.91496552       2.23101252        4       1.00000000      -0.10190665      -0.02145045       0.18031914
Ni       7.68790662       2.90179793       2.22281359        4       1.00000000      -0.03116389      -0.01055075       0.08322679
Ni      10.33317081       2.89169634       2.24474057        4       1.00000000       0.14605789      -0.09328202       0.25626178
Ni       3.85873899       5.12935098       2.18605745        4       1.00000000       0.04748017      -0.11012953       0.09556799
Ni       6.39973388       5.13205260       2.18622811        4       1.00000000       0.03638007      -0.05704596       0.00796461
Pt       8.96523252       5.09360054       2.25929104        5       0.00000000      -0.09817363      -0.13712169      -0.03400100
Pt      11.63465087       5.06895690       2.20204519        4       0.00000000       0.05982653      -0.10551172       0.09842005
Ni       5.14629428       7.31726980       2.15401020        4       1.00000000       0.06135018      -0.07296777       0.10173285
Ni       7.65987959       7.36100276       2.17671661        4       1.00000000      -0.15862303       0.01136725       0.16775847
Pt      10.27576524       7.35930259       2.09366300        3       0.00000000       0.03385980      -0.01080648      -0.08033892
Ni      12.87595115       7.29303794       2.14349681        3       1.00000000       0.11113579      -0.09280845       0.06481061
Ni       0.07724940       1.49881682       4.28504506        6       1.00000000       0.19022882       0.05312530      -0.14687376
Ni       2.53846292       1.48896700       4.27398371        6       1.00000000      -0.07533075       0.04019686      -0.19528116
Ni       5.13580324       1.46215457       4.28237800        6       1.00000000      -0.13061265      -0.05534301      -0.32723548
Ni       7.71905663       1.46094488       4.31729792        6       1.00000000       0.01526194      -0.08483541      -0.21798030
Ni       1.29682255       3.64236495       4.33747593        6       1.00000000       0.02532431      -0.05210063      -0.03379303
Ni       3.81180472       3.65541422       4.26585249        6       1.00000000      -0.15411985      -0.07457100      -0.29831376
Pt       6.45981580       3.60185824       4.30184605        6       0.00000000       0.00000927      -0.08034726      -0.19369500
Ni       9.04271485       3.66601138       4.31562056        6       1.00000000       0.15607721      -0.07641229      -0.14269907
Ni       2.55750299       5.79328522       4.34116203        6       1.00000000      -0.03145796      -0.15870954       0.00593206
Pt       5.14853181       5.82616531       4.29810009        6       0.00000000       0.02700806      -0.06859392      -0.13381508
Ni       7.72342679       5.83740442       4.35279597        7       1.00000000      -0.04416676      -0.00190984      -0.08431105
Ni      10.28509446       5.78471198       4.39315115        7       1.00000000       0.03583385      -0.06155212       0.05836047
Pt       3.88816647       8.05176804       4.26466600        6       0.00000000      -0.00760086       0.05878560       0.02059398
Ni       6.43052999       8.07132696       4.25854298        6       1.00000000      -0.04279811       0.11216924      -0.29573022
Pt       8.92342174       8.04162677       4.26077760        6       0.00000000      -0.04940642       0.07578706       0.03091465
Pt      11.56572279       8.02013645       4.27312701        6       0.00000000      -0.03916561      -0.05558024       0.01726714
Pt       0.03618097      -0.05727398       6.49633698        9       0.00000000       0.09224733       0.05917275       0.37077410
Pt       2.56639896      -0.06495378       6.51202729        9       0.00000000      -0.03031345       0.04891595       0.23542486
Pt       5.14980845      -0.07433459       6.53564042        9       0.00000000      -0.06532413       0.16213973       0.46260896
Pt       7.72053180      -0.07810486       6.56215026       10       0.00000000      -0.02878559       0.13433941       0.47106610
Ni       1.29869862       2.23835088       6.42200226        8       1.00000000      -0.00896895       0.12881251      -0.30031112
Pt       3.85051554       2.27010528       6.35952163        8       0.00000000       0.00251151       0.01270652       0.35885544
Ni       6.43842904       2.20006841       6.39458455        8       1.00000000      -0.01081836      -0.03998415       0.20079570
Pt       9.02401243       2.26477605       6.35938782        8       0.00000000      -0.00631481       0.03907658       0.58480469
Ni       2.54475247       4.41411315       6.41844739        8       1.00000000      -0.01561910       0.00004111      -0.37199901
Ni       5.15599729       4.40141582       6.39204330        8       1.00000000      -0.02266205      -0.02293672       0.12249741
Ni       7.72022495       4.41581387       6.35978717        8       1.00000000       0.05026864       0.04456530       0.16558691
Ni      10.31961369       4.40752074       6.44154824        8       1.00000000       0.02346275      -0.01896288      -0.35560880
Ni       3.84426594       6.50772469       6.45401314        9       1.00000000      -0.06239781      -0.12965680      -0.19994326
Ni       6.44635643       6.52000153       6.37319518        8       1.00000000       0.09439793       0.03002811       0.11365520
Ni       9.00503544       6.49079266       6.44596511        8       1.00000000      -0.01075591      -0.09082330      -0.27740490
Ni      11.56510038       6.48583641       6.46809627        9       1.00000000      -0.00372980       0.00441903      -0.26586594
