64
Lattice="10.366790385706222 -0.03771472002611903 0.053910990518387165 5.150733287213868 8.943813886425461 0.03721068569534564 0.0 0.0 21.572353956147335" Properties=species:S:1:pos:R:3:tags:I:1:initial_magmoms:R:1:forces:R:3 unique_id=99f588e0a2354586a78b74b87868a0af energy=-377.19851548539367 stress="0.00616325986252535 8.304030240113941e-06 0.00046129527241100377 8.304030240113941e-06 0.006357967309138174 0.00019521731063356298 0.00046129527241100377 0.00019521731063356298 -0.0017218532465676784" pbc="T T T"
Ni      -0.00885088       0.03366715       0.12027632        1       1.00000000      -0.03918067       0.07528831       0.10178691
Ni       2.59005366      -0.00107898       0.13777716        1       1.00000000      -0.02985178       0.05210585      -0.00842277
Ni       5.18523549      -0.02465374       0.10589197        1       1.00000000       0.00427784       0.21531965      -0.28093907
Ni       7.80013148      -0.05186000       0.16275383        2       1.00000000       0.05689724      -0.00184134       0.06380219
Ni       1.25572590       2.23980789       0.03908110        0       1.00000000      -0.07535499      -0.00986916       0.52155675
Pt       3.82117943       2.23234762       0.13528995        1       0.00000000       0.01501666      -0.00231006      -0.48737164
Pt       6.50749390       2.16627325       0.15720365        2       0.00000000       0.07366538      -0.08031838      -0.41079725
Ni       9.10889361       2.19035406       0.14748757        1       1.00000000       0.06571511      -0.04502612       0.24576179
Ni       2.55901690       4.48046602       0.00000000        0       1.00000000      -0.00773949      -0.06065299       0.16533417
Ni       5.16631676       4.46409262       0.11008766        1       1.00000000       0.17874088      -0.08351521      -0.25553895
Pt       7.83969386       4.46422508       0.07717339        1       0.00000000       0.03896052      -0.06187511       0.06923229
Ni      10.37623108       4.43293415       0.04604314        0       1.00000000       0.00257027      -0.12270657       0.25219429
Ni       3.83594793       6.73585102       0.12048642        1       1.00000000      -0.03948599       0.20188548      -0.09907195
Pt       6.44213534       6.75061235       0.16195353        2       0.00000000      -0.07489303       0.06002350      -0.55669471
Ni       9.07291899       6.70292051       0.05287702        1       1.00000000      -0.06554580      -0.00758406       0.20176324
Ni      11.65401648       6.68439383       0.05042478        1       1.00000000       0.15530359       0.07008739       0.21742511
Ni       1.27942023       0.76782782       2.08957865        3       1.00000000      -0.11921297       0.16500193      -0.06403988
Ni       3.89113235       0.74220227       2.14956800        3       1.00000000       0.06401250      -0.01055778       0.13286440
Ni       6.51450833       0.73920787       2.19796557        4       1.00000000       0.10796694       0.13650235       0.27761787
Ni       9.08280294       0.74537790       2.15171216        4       1.00000000       0.01065634       0.17590301       0.07028339
Ni       2.56148048       2.96351027       2.14937751        3       1.00000000      -0.19687156      -0.00032218       0.03442625
Ni       5.18498315       2.95054306       2.20124354        4       1.00000000      -0.05556419      -0.11773308       0.26469727
Ni       7.82479736       2.94073368       2.20375921        4       1.00000000       0.28591432      -0.12609605       0.14332001
Ni      10.34093849       2.90799091       2.17371001        4       1.00000000      -0.03252305      -0.12290153       0.03743109
Pt       3.89297948       5.19517973       2.11254918        3       0.00000000      -0.03324190      -0.10795045       0.01514128
Ni       6.50987223       5.19565582       2.17733313        4       1.00000000       0.13497755      -0.05405042       0.12367007
Ni       9.03555613       5.17637379       2.20927134        4       1.00000000      -0.07240792      -0.12396637       0.20457835
Pt      11.62842253       5.14832131       2.12496220        3       0.00000000      -0.11489070      -0.10088445      -0.01564922
Ni       5.14811978       7.50000418       2.13887261        3       1.00000000      -0.12322932       0.14746427       0.00740067
Ni       7.75929267       7.44411156       2.17295066        4       1.00000000       0.07077140      -0.03098655       0.06138744
Pt      10.32895474       7.45307713       2.09461679        3       0.00000000       0.01900422      -0.07720777      -0.10317921
Ni      12.96161238       7.45139040       2.16374869        4       1.00000000      -0.01006143       0.02436096      -0.00509363
Ni      -0.01391248       1.53860597       4.25656752        6       1.00000000      -0.10402012       0.04541422      -0.35680849
Pt       2.60842811       1.52983319       4.19713682        5       0.00000000      -0.02792518      -0.00967862      -0.12375756
Ni       5.21194070       1.50028547       4.27942329        6       1.00000000       0.03676908       0.04804420      -0.38173592
Ni       7.82328626       1.49778355       4.28147790        6       1.00000000       0.12455131       0.02954792      -0.38579541
Pt       1.28715894       3.72136720       4.34929366        6       0.00000000      -0.07225931      -0.06588608      -0.03741791
Ni       3.89489607       3.73211852       4.29567838        6       1.00000000       0.05588528      -0.01098131      -0.27058562
Pt       6.54543567       3.68723098       4.21862664        5       0.00000000       0.01867470      -0.08145390      -0.08507117
Ni       9.06839216       3.68641268       4.31822229        6       1.00000000       0.00024435      -0.14754114      -0.37892111
Ni       2.57615264       5.94770022       4.33242449        6       1.00000000      -0.01436701      -0.01252208      -0.17158165
Pt       5.17242495       5.92565283       4.25569764        6       0.00000000      -0.03990657       0.00268050      -0.12480131
Ni       7.79801856       5.90717507       4.31531409        6       1.00000000      -0.03759932      -0.07001035      -0.35813807
Pt      10.32387321       5.89009497       4.42273699        7       0.00000000      -0.01436268       0.02592396      -0.10040512
Pt       3.87050575       8.25969342       4.21050681        5       0.00000000      -0.02676267       0.13864809      -0.12609111
Pt       6.46092918       8.21231855       4.21122868        5       0.00000000      -0.07309581       0.08807425      -0.22480443
Pt       9.04748604       8.17682271       4.30715958        6       0.00000000      -0.09388290       0.01844440      -0.05526858
Pt      11.67400977       8.20448636       4.30215460        6       0.00000000       0.03641114       0.04138780      -0.04874540
Pt       0.04467220       0.04887842       6.51707441        9       0.00000000      -0.02657709      -0.02511161       0.11829468
Pt       2.62038625       0.00023737       6.56191320       10       0.00000000       0.01157311      -0.02792218       0.36128123
Pt       5.20390704      -0.09879640       6.54889161        9       0.00000000      -0.03281125       0.14802770       0.39627065
Pt       7.79871328      -0.03700553       6.57235396       10       0.00000000       0.04116793       0.16381652       0.24101034
Ni       1.31186354       2.29452488       6.48900093        9       1.00000000      -0.01130054       0.00749810      -0.13474919
Pt       3.84324495       2.28163526       6.42845756        8       0.00000000       0.17291704      -0.06926929       0.51599961
Pt       6.52789628       2.23447331       6.43880725        8       0.00000000      -0.05382020      -0.10490637       0.54830039
Pt       9.15900582       2.32412970       6.50006516        9       0.00000000      -0.04932382       0.00258171      -0.08787765
Ni       2.53799012       4.47982033       6.48217639        9       1.00000000      -0.06673168       0.02843539      -0.16112852
Pt       5.18306671       4.46256146       6.53350285        9       0.00000000      -0.02060929      -0.07255973       0.30897693
Ni       7.84451052       4.48291133       6.42848630        8       1.00000000       0.12183795       0.07849755      -0.06982026
Ni      10.39783514       4.47917785       6.54543368        9       1.00000000      -0.02192555       0.04304991      -0.15478269
Pt       3.80130925       6.65861640       6.53967800        9       0.00000000       0.03467031      -0.00061038       0.09821167
Pt       6.56301829       6.65334010       6.46608229        9       0.00000000       0.01086771      -0.01551839       0.48688634
Ni       9.10386657       6.62757122       6.53459270        9       1.00000000      -0.07842208      -0.11569863      -0.04527604
Ni      11.63861196       6.62216610       6.54337028        9       1.00000000       0.00573725      -0.05598922      -0.11654515
