64
Lattice="10.307237420140806 -0.007343322230777138 0.004377395885266569 5.147259206470373 8.836200841226946 -0.022400203534353066 0.0 0.0 21.53482794700996" Properties=species:S:1:pos:R:3:tags:I:1:initial_magmoms:R:1:forces:R:3 unique_id=42a7b9f26b39462cb16c2ddcc5a2a109 stress="0.005456843624757282 -6.858206379292861e-05 9.020271925840053e-05 -6.858206379292861e-05 0.004804261997171336 -1.8484223718145003e-05 9.020271925840053e-05 -1.8484223718145003e-05 -0.0026387232385042397" energy=-374.0278301946252 pbc="T T T"
Ni       0.00793907       0.01461336       0.14095591        1       1.00000000       0.08941130      -0.00431567      -0.29540916
Ni       2.56992071      -0.00153280       0.17196351        2       1.00000000      -0.00281161       0.01911706      -0.21892707
Ni       5.15686718      -0.00881102       0.11244879        1       1.00000000       0.01033716       0.20791418      -0.30738258
Ni       7.73075810      -0.04026330       0.13088113        1       1.00000000      -0.11960737      -0.07832915      -0.24178792
Ni       1.25646594       2.21463647       0.14281389        1       1.00000000      -0.06339400       0.04626883      -0.02994412
Pt       3.81855800       2.21876577       0.13724775        1       0.00000000       0.00015742      -0.02722837      -0.56637087
Pt       6.49278249       2.21245609       0.05909329        1       0.00000000       0.05016151      -0.13965985      -0.06182155
Ni       9.05061805       2.23023769       0.10571938        1       1.00000000       0.03644877       0.15313720      -0.08966922
Ni       2.55527349       4.44023083       0.00000000        0       1.00000000      -0.07775745      -0.05240477       0.11645949
Ni       5.15391028       4.42764528       0.01762634        0       1.00000000       0.06015467      -0.08350133       0.03727029
Ni       7.74499208       4.41169357       0.02366674        0       1.00000000       0.03402627      -0.00370441       0.14790657
Ni      10.30596874       4.39953278       0.01359677        0       1.00000000      -0.00838785      -0.08114112       0.24252386
Ni       3.83429264       6.64017765       0.01793440        0       1.00000000      -0.03993360       0.13849942       0.19371881
Pt       6.43267442       6.62232099       0.04322053        0       0.00000000       0.03558706       0.09863103      -0.06294183
Ni       9.02142356       6.62580084       0.08984543        1       1.00000000      -0.07667175      -0.00545916      -0.30398420
Ni      11.61172196       6.62095360       0.00411949        0       1.00000000       0.08533800       0.01022695       0.17798063
Ni       1.29478335       0.74687766       2.11343605        3       1.00000000       0.01092208       0.05366273       0.07449223
Ni       3.86301733       0.73961926       2.16020003        4       1.00000000       0.07644505       0.00664462       0.15649728
Ni       6.44077508       0.75350552       2.19368266        4       1.00000000      -0.00536660       0.12614621       0.32360972
Pt       9.01859814       0.76639761       2.13395267        3       0.00000000      -0.01788922       0.09374421       0.09484813
Ni       2.54650583       2.92677912       2.15545932        4       1.00000000      -0.05222348       0.03624568       0.06852899
Ni       5.17306893       2.91460079       2.19445902        4       1.00000000       0.01168704      -0.11331445       0.21784510
Ni       7.71997922       2.92841799       2.16928269        4       1.00000000      -0.02352309      -0.02117162       0.17277057
Ni      10.31906901       2.90888456       2.15941553        4       1.00000000       0.02488196      -0.02221152       0.21788861
Pt       3.89882120       5.13162465       2.09810981        3       0.00000000       0.03699066      -0.07341266      -0.11932747
Ni       6.44200180       5.12923080       2.13940053        3       1.00000000      -0.01624525      -0.08791221       0.07956608
Pt       8.95504713       5.09652113       2.15796737        4       0.00000000      -0.00793456      -0.05327597       0.08674322
Pt      11.59876517       5.09568097       2.15497079        4       0.00000000      -0.00377778      -0.05733962       0.07431239
Ni       5.15350088       7.36431051       2.10966732        3       1.00000000      -0.05457264      -0.01629600       0.02306110
Ni       7.70739291       7.37034064       2.12029292        3       1.00000000       0.01728001      -0.00137411       0.10660684
Pt      10.34867359       7.40144302       2.08865464        3       0.00000000       0.07935837      -0.01478847       0.02346630
Ni      12.88203525       7.36003210       2.11401268        3       1.00000000       0.06203641      -0.03329710      -0.04804960
Ni      -0.02396861       1.51950092       4.28169912        6       1.00000000      -0.04894369       0.11499059      -0.13312981
Pt       2.57092562       1.54804072       4.18971312        5       0.00000000      -0.03448109       0.04328636       0.01329872
Ni       5.20244799       1.45696767       4.25932194        6       1.00000000       0.05204777      -0.11918572      -0.30123034
Ni       7.71290200       1.45914246       4.28612081        6       1.00000000       0.02147584      -0.10186122      -0.19364418
Ni       1.26331638       3.72176600       4.30449632        6       1.00000000      -0.06215107       0.01214623      -0.06011100
Ni       3.84021532       3.70042442       4.27794032        6       1.00000000      -0.11043490      -0.01839769      -0.23765760
Pt       6.48287176       3.61648826       4.28621470        6       0.00000000       0.03449937      -0.03094558      -0.07745008
Ni       9.05102889       3.67862005       4.29680222        6       1.00000000       0.12981055      -0.02367185      -0.10789888
Ni       2.52157992       5.84798063       4.34382992        6       1.00000000      -0.11846915      -0.07211782      -0.06041414
Pt       5.12463973       5.82562159       4.34035938        6       0.00000000      -0.03990378      -0.01563726      -0.08064374
Ni       7.74913837       5.83054880       4.30008575        6       1.00000000       0.04788270      -0.07059369      -0.16794150
Ni      10.34413128       5.82645949       4.32744299        6       1.00000000       0.04344436      -0.01784603      -0.08550707
Pt       3.77882482       8.07565724       4.22838321        5       0.00000000      -0.06064651      -0.02390764       0.00892217
Pt       6.43646284       8.07880084       4.19429208        5       0.00000000      -0.06569866       0.12712188      -0.12326019
Pt       9.06506600       8.05825318       4.23094388        5       0.00000000       0.02103676       0.01552819      -0.05357949
Ni      11.59489931       8.06837331       4.26786767        6       1.00000000      -0.05328864      -0.04578590      -0.19537697
Pt      -0.01566880      -0.08109797       6.51709854        8       0.00000000      -0.00271101       0.14512657       0.31874711
Pt       2.57906598      -0.04849911       6.53482795        8       0.00000000       0.07048777       0.06359687       0.44458922
Pt       5.18759869      -0.03004303       6.47755226        8       0.00000000       0.00491148       0.08472693       0.35930053
Pt       7.71043796      -0.07254445       6.49769222        8       0.00000000      -0.04602561       0.04696417       0.29194933
Pt       1.27772039       2.30336104       6.47071782        8       0.00000000      -0.01183991      -0.04133835       0.11822601
Pt       3.93261203       2.30686625       6.38338487        7       0.00000000       0.05228135       0.06351782       0.52428303
Ni       6.44800650       2.22228064       6.38084072        7       1.00000000      -0.03809924      -0.04824582       0.26504341
Pt       8.95931425       2.28103295       6.43332490        7       0.00000000       0.04146337      -0.08986892       0.02274165
Ni       2.57603217       4.47699347       6.41590730        7       1.00000000       0.07802168      -0.02366330      -0.29765285
Ni       5.16897028       4.43624740       6.45833158        8       1.00000000       0.05873715      -0.00034923      -0.06438057
Ni       7.68622516       4.40168150       6.43816143        7       1.00000000      -0.16506260       0.02390083      -0.13778617
Ni      10.33701565       4.42526027       6.41849123        7       1.00000000       0.07266356      -0.04331833      -0.22831836
Ni       3.83471594       6.53787860       6.44700718        7       1.00000000      -0.04799563      -0.01704396      -0.13009061
Ni       6.42879622       6.54034190       6.37822344        7       1.00000000       0.12058054      -0.00999978       0.23942809
Pt       9.03057215       6.47042569       6.45866306        8       0.00000000      -0.09057152       0.02943961       0.12352254
Ni      11.62063727       6.53544561       6.41352553        7       1.00000000      -0.00414873       0.02333151      -0.28445885
