101
Lattice="14.747579633050908 3.8169445179852467e-07 9.941081283805471e-08 3.8169445179852467e-07 14.747580514872006 -7.47423212986159e-08 0.0 0.0 36.25687252440943" Properties=species:S:1:pos:R:3:tags:I:1:initial_magmoms:R:1:forces:R:3 energy=-309.42437744140625 free_energy=-309.42437744140625 stress="0.007431076267809295 -4.777044774461705e-06 -2.4679792199266675e-05 -4.777044774461705e-06 0.0074310866844514555 -2.468015550291346e-05 -2.4679792199266675e-05 -2.468015550291346e-05 0.00040127784130461583" pbc="T T T"
Au       1.47475800       1.47475809       0.00000006        0       0.00000000      -0.00316947      -0.00316915       0.07204963
Au       4.42427393       1.47475817       0.00000008        0       0.00000000      -0.00080100       0.00193587       0.07814931
Au       7.37378985       1.47475824       0.00000010        0       0.00000000       0.00078113      -0.00310243       0.07048631
Au      10.32330578       1.47475832       0.00000012        0       0.00000000       0.00159555       0.00203656       0.07912691
Au      13.27282171       1.47475840       0.00000014        0       0.00000000       0.00449896      -0.00356834       0.07276656
Au       1.47475808       4.42427420       0.00000004        0       0.00000000       0.00193762      -0.00080134       0.07814669
Au       4.42427401       4.42427427       0.00000006        0       0.00000000       0.00376754       0.00376741       0.08750807
Au       7.37378993       4.42427435       0.00000008        0       0.00000000       0.00042073      -0.00548541       0.07808211
Au      10.32330586       4.42427442       0.00000010        0       0.00000000      -0.00244419       0.00269780       0.08645155
Au      13.27282178       4.42427450       0.00000012        0       0.00000000      -0.00192214      -0.00090913       0.07951565
Au       1.47475815       7.37379030       0.00000003        0       0.00000000      -0.00310076       0.00078181       0.07048522
Au       4.42427408       7.37379037       0.00000005        0       0.00000000      -0.00548432       0.00041990       0.07808193
Au       7.37379001       7.37379045       0.00000007        0       0.00000000       0.00029035       0.00029147       0.07179206
Au      10.32330593       7.37379053       0.00000009        0       0.00000000       0.00543619       0.00003551       0.07617611
Au      13.27282186       7.37379060       0.00000011        0       0.00000000       0.00454052       0.00004252       0.07076610
Au       1.47475823      10.32330640       0.00000001        0       0.00000000       0.00203613       0.00159422       0.07912552
Au       4.42427416      10.32330648       0.00000003        0       0.00000000       0.00269812      -0.00244417       0.08645000
Au       7.37379008      10.32330655       0.00000005        0       0.00000000       0.00003555       0.00543495       0.07617462
Au      10.32330601      10.32330663       0.00000007        0       0.00000000      -0.00197249      -0.00197291       0.08520193
Au      13.27282194      10.32330670       0.00000009        0       0.00000000      -0.00180703       0.00062730       0.07896168
Au       1.47475831      13.27282250       0.00000000        0       0.00000000      -0.00356652       0.00450034       0.07276498
Au       4.42427423      13.27282257       0.00000002        0       0.00000000      -0.00090984      -0.00191956       0.07951601
Au       7.37379016      13.27282265       0.00000004        0       0.00000000       0.00004243       0.00454267       0.07076582
Au      10.32330609      13.27282272       0.00000006        0       0.00000000       0.00062866      -0.00180539       0.07896260
Au      13.27282201      13.27282280       0.00000008        0       0.00000000       0.00351430       0.00351621       0.07358021
Au       0.00000001      -0.00000001       2.08562419        1       0.00000000      -0.00240012      -0.00240063      -0.10412318
Au       2.94951594       0.00000007       2.08562421        1       0.00000000      -0.00279206      -0.01092344      -0.10682294
Au       5.89903187       0.00000014       2.08562423        1       0.00000000      -0.00330420      -0.00970033      -0.10512988
Au       8.84854779       0.00000021       2.08562425        1       0.00000000       0.00232882       0.00326472      -0.10402292
Au      11.79806373       0.00000029       2.08562427        1       0.00000000       0.00150534       0.00287715      -0.10403238
Au       0.00000009       2.94951609       2.08562417        1       0.00000000      -0.01092163      -0.00279479      -0.10682226
Au       2.94951602       2.94951617       2.08562419        1       0.00000000       0.03359589       0.03359476      -0.06679739
Au       5.89903194       2.94951624       2.08562421        1       0.00000000      -0.02080251       0.03159574      -0.05767549
Au       8.84854787       2.94951632       2.08562423        1       0.00000000       0.01261226       0.03552506      -0.05591649
Au      11.79806380       2.94951640       2.08562425        1       0.00000000      -0.04274516       0.03807907      -0.06531864
Au       0.00000017       5.89903220       2.08562416        1       0.00000000      -0.00970223      -0.00330569      -0.10512836
Au       2.94951609       5.89903227       2.08562418        1       0.00000000       0.03159735      -0.02080223      -0.05767506
Au       5.89903202       5.89903235       2.08562420        1       0.00000000      -0.06370626      -0.06370471      -0.10638621
Au       8.84854795       5.89903242       2.08562422        1       0.00000000       0.04435372      -0.05487098      -0.11724362
Au      11.79806387       5.89903250       2.08562424        1       0.00000000      -0.03763856      -0.02128471      -0.06561298
Au       0.00000024       8.84854830       2.08562414        1       0.00000000       0.00326427       0.00232914      -0.10402380
Au       2.94951617       8.84854838       2.08562416        1       0.00000000       0.03552629       0.01261352      -0.05591556
Au       5.89903210       8.84854846       2.08562418        1       0.00000000      -0.05486894       0.04435060      -0.11724158
Au       8.84854802       8.84854853       2.08562420        1       0.00000000       0.05238435       0.05238199      -0.12111059
Au      11.79806395       8.84854861       2.08562422        1       0.00000000      -0.02760261       0.02380281      -0.07097947
Au       0.00000032      11.79806441       2.08562413        1       0.00000000       0.00287805       0.00150668      -0.10403179
Au       2.94951625      11.79806448       2.08562415        1       0.00000000       0.03807869      -0.04274357      -0.06531509
Au       5.89903217      11.79806455       2.08562417        1       0.00000000      -0.02128309      -0.03763641      -0.06560978
Au       8.84854810      11.79806463       2.08562419        1       0.00000000       0.02380389      -0.02759869      -0.07097809
Au      11.79806403      11.79806471       2.08562421        1       0.00000000      -0.03099139      -0.03098783      -0.06765418
Au       1.46795989       1.46795959       4.15510514        2       0.00000000      -0.00295269      -0.00295231       0.00559410
Au       4.41455092       1.46746324       4.14543833        2       0.00000000      -0.00265814       0.00154957       0.00874762
Au       7.37004849       1.46968988       4.15240332        2       0.00000000       0.00566802       0.00236540       0.00135110
Au      10.32675030       1.48224313       4.14797950        2       0.00000000      -0.00056721      -0.00438732       0.00372209
Au      13.27252246       1.47275869       4.15732263        2       0.00000000      -0.00102694      -0.00122131       0.00299694
Au       1.46746322       4.41455120       4.14543897        2       0.00000000       0.00155214      -0.00265895       0.00874565
Au       4.43007101       4.43007122       4.20218638        2       0.00000000       0.00619604       0.00619366       0.00159678
Au       7.36714121       4.42087895       4.17538265        2       0.00000000      -0.01418893       0.00051651       0.00161716
Au      10.29420452       4.44809000       4.20385694        2       0.00000000       0.00680945      -0.00232971      -0.00158902
Au      13.25698283       4.41893460       4.14920931        2       0.00000000       0.01216958       0.00144561       0.00060491
Au       1.46969031       7.37004831       4.15240331        2       0.00000000       0.00236520       0.00566853       0.00135282
Au       4.42087873       7.36714132       4.17538256        2       0.00000000       0.00051916      -0.01418721       0.00161811
Au       7.36851977       7.36851993       4.09449445        2       0.00000000       0.00171550       0.00171844       0.00269102
Au      10.32379115       7.37959566       4.16685455        2       0.00000000      -0.00980753      -0.00351642       0.00150888
Au      13.27025391       7.37592082       4.15111930        2       0.00000000       0.00325120      -0.00207250       0.00900194
Au       1.48224317      10.32675098       4.14798012        2       0.00000000      -0.00438500      -0.00056259       0.00372007
Au       4.44808913      10.29420496       4.20385730        2       0.00000000      -0.00232752       0.00681232      -0.00159148
Au       7.37959496      10.32379157       4.16685470        2       0.00000000      -0.00351596      -0.00980579       0.00150517
Au      10.31068519      10.31068604       4.19661951        2       0.00000000      -0.00341021      -0.00341419      -0.00410262
Au      13.27257333      10.32966126       4.14872647        2       0.00000000      -0.00550612       0.00005705       0.00552786
Au       1.47275873      13.27252203       4.15732291        2       0.00000000      -0.00122001      -0.00102860       0.00299595
Au       4.41893456      13.25698284       4.14920979        2       0.00000000       0.00144479       0.01217046       0.00060449
Au       7.37592085      13.27025385       4.15111900        2       0.00000000      -0.00207266       0.00324996       0.00899997
Au      10.32966134      13.27257337       4.14872722        2       0.00000000       0.00005738      -0.00549964       0.00552400
Au      13.27611117      13.27611187       4.15652311        2       0.00000000      -0.00004986      -0.00004879       0.00501978
Au      -0.00114241      -0.00114507       6.21716350        3       0.00000000       0.00037130       0.00038245       0.01035565
Au       2.95476482      -0.00996619       6.21719186        3       0.00000000      -0.00292742       0.00022270       0.00820129
Au       5.89822131      -0.01916203       6.21644931        3       0.00000000      -0.00313164       0.00550060       0.00556813
Au       8.84914158      -0.00034991       6.21588553        3       0.00000000       0.00021702      -0.00078728       0.00467610
Au      11.79146956       0.00235835       6.21653162        3       0.00000000       0.00240203       0.00089460       0.00932877
Au      -0.00996641       2.95476403       6.21719127        3       0.00000000       0.00023275      -0.00292949       0.00821939
Au       2.91676008       2.91675995       6.22482503        3       0.00000000       0.01155559       0.01155479       0.00043570
Au       5.87044451       2.88604292       6.22155768        3       0.00000000       0.00245043       0.02274713      -0.00732621
Au       8.85496675       2.91805109       6.21629769        3       0.00000000       0.00074463       0.00244284       0.00544431
Au      11.80593354       2.93682055       6.22492070        3       0.00000000      -0.00040347      -0.00459934      -0.00018744
Au      -0.01916129       5.89822128       6.21644941        3       0.00000000       0.00549457      -0.00312938       0.00555848
Au       2.88604284       5.87044447       6.22155810        3       0.00000000       0.02274864       0.00245032      -0.00732684
Au       5.82653839       5.82653880       6.24759474        3       0.00000000       0.02833933       0.02834076       0.02032445
Au       8.87521788       5.89040447       6.23802111        3       0.00000000      -0.00112163      -0.02533685       0.01221642
Au      11.81639838       5.89036202       6.21964331        3       0.00000000       0.00107369       0.00061292       0.00515608
Au      -0.00034810       8.84914219       6.21588471        3       0.00000000      -0.00079202       0.00021266       0.00468028
Au       2.91805186       8.85496719       6.21629854        3       0.00000000       0.00244073       0.00074342       0.00544510
Au       5.89040454       8.87521792       6.23802140        3       0.00000000      -0.02533602      -0.00112563       0.01221867
Au       8.87728970       8.87729014       6.23692458        3       0.00000000      -0.00031416      -0.00031473       0.01377933
Au      11.82909585       8.86631319       6.22211626        3       0.00000000      -0.00662928      -0.00351809      -0.00198569
Au       0.00235540      11.79146967       6.21653409        3       0.00000000       0.00090276       0.00240154       0.00932588
Au       2.93681918      11.80593412       6.22492112        3       0.00000000      -0.00459902      -0.00040223      -0.00018619
Au       5.89036197      11.81639887       6.21964341        3       0.00000000       0.00061133       0.00107499       0.00515459
Au       8.86631254      11.82909660       6.22211657        3       0.00000000      -0.00351912      -0.00663148      -0.00198338
Au      11.81537568      11.81537531       6.22254840        3       0.00000000       0.00043554       0.00043841       0.00571416
O        7.29162792       7.29162807       7.19896074        0       0.00000000       0.02047753       0.02047808       0.02990973
