101
Lattice="14.747579633050908 3.8169445179852467e-07 9.941081283805471e-08 3.8169445179852467e-07 14.747580514872006 -7.47423212986159e-08 0.0 0.0 36.25687252440943" Properties=species:S:1:pos:R:3:tags:I:1:initial_magmoms:R:1:forces:R:3 energy=-309.4007568359375 free_energy=-309.4007568359375 stress="0.007510245724414071 -8.497649046931494e-05 4.751746924285665e-05 -8.497649046931494e-05 0.007510250932735152 4.7516501401941603e-05 4.751746924285665e-05 4.7516501401941603e-05 0.0005061669174614907" pbc="T T T"
Au       1.47475800       1.47475809       0.00000006        0       0.00000000       0.00257942       0.00257993       0.08012856
Au       4.42427393       1.47475817       0.00000008        0       0.00000000       0.00137550      -0.00636097       0.07471560
Au       7.37378985       1.47475824       0.00000010        0       0.00000000      -0.00292265       0.00198757       0.09053463
Au      10.32330578       1.47475832       0.00000012        0       0.00000000      -0.00335692      -0.00356774       0.07915416
Au      13.27282171       1.47475840       0.00000014        0       0.00000000      -0.00065992       0.00030758       0.07776430
Au       1.47475808       4.42427420       0.00000004        0       0.00000000      -0.00635910       0.00137514       0.07471416
Au       4.42427401       4.42427427       0.00000006        0       0.00000000      -0.00052669      -0.00052718       0.07160900
Au       7.37378993       4.42427435       0.00000008        0       0.00000000       0.00480971      -0.00271732       0.08071135
Au      10.32330586       4.42427442       0.00000010        0       0.00000000       0.00235156      -0.00126331       0.07034399
Au      13.27282178       4.42427450       0.00000012        0       0.00000000      -0.00472609      -0.00250877       0.07277061
Au       1.47475815       7.37379030       0.00000003        0       0.00000000       0.00198944      -0.00292198       0.09053294
Au       4.42427408       7.37379037       0.00000005        0       0.00000000      -0.00271577       0.00480863       0.08071093
Au       7.37379001       7.37379045       0.00000007        0       0.00000000      -0.00488784      -0.00488614       0.08837778
Au      10.32330593       7.37379053       0.00000009        0       0.00000000      -0.00162028      -0.00001482       0.07806559
Au      13.27282186       7.37379060       0.00000011        0       0.00000000       0.00231367       0.00043729       0.08252206
Au       1.47475823      10.32330640       0.00000001        0       0.00000000      -0.00356801      -0.00335818       0.07915186
Au       4.42427416      10.32330648       0.00000003        0       0.00000000      -0.00126271       0.00235081       0.07034254
Au       7.37379008      10.32330655       0.00000005        0       0.00000000      -0.00001570      -0.00162062       0.07806522
Au      10.32330601      10.32330663       0.00000007        0       0.00000000       0.00189422       0.00189335       0.07178818
Au      13.27282194      10.32330670       0.00000009        0       0.00000000      -0.00696105       0.00421879       0.07193206
Au       1.47475831      13.27282250       0.00000000        0       0.00000000       0.00030963      -0.00065908       0.07776231
Au       4.42427423      13.27282257       0.00000002        0       0.00000000      -0.00250905      -0.00472423       0.07277005
Au       7.37379016      13.27282265       0.00000004        0       0.00000000       0.00043821       0.00231551       0.08252301
Au      10.32330609      13.27282272       0.00000006        0       0.00000000       0.00421976      -0.00696018       0.07193263
Au      13.27282201      13.27282280       0.00000008        0       0.00000000      -0.00073761      -0.00073488       0.07848061
Au       0.00000001      -0.00000001       2.08562419        1       0.00000000      -0.00170639      -0.00170439      -0.08867827
Au       2.94951594       0.00000007       2.08562421        1       0.00000000      -0.00263045      -0.00099895      -0.08678634
Au       5.89903187       0.00000014       2.08562423        1       0.00000000       0.03012407       0.05502332      -0.04866288
Au       8.84854779       0.00000021       2.08562425        1       0.00000000      -0.05035570       0.05980359      -0.04826067
Au      11.79806373       0.00000029       2.08562427        1       0.00000000      -0.00844194      -0.00060727      -0.09426112
Au       0.00000009       2.94951609       2.08562417        1       0.00000000      -0.00099819      -0.00263389      -0.08678558
Au       2.94951602       2.94951617       2.08562419        1       0.00000000      -0.05747346      -0.05747366      -0.13775183
Au       5.89903194       2.94951624       2.08562421        1       0.00000000       0.06845848      -0.03247304      -0.10790730
Au       8.84854787       2.94951632       2.08562423        1       0.00000000      -0.05405965      -0.00538333      -0.02952112
Au      11.79806380       2.94951640       2.08562425        1       0.00000000      -0.00237486       0.00379288      -0.09634338
Au       0.00000017       5.89903220       2.08562416        1       0.00000000       0.05502033       0.03012365      -0.04866090
Au       2.94951609       5.89903227       2.08562418        1       0.00000000      -0.03246935       0.06845906      -0.10790391
Au       5.89903202       5.89903235       2.08562420        1       0.00000000       0.07469207       0.07469331      -0.09737760
Au       8.84854795       5.89903242       2.08562422        1       0.00000000      -0.01701691       0.02804142      -0.04664578
Au      11.79806387       5.89903250       2.08562424        1       0.00000000       0.02705926       0.01009382      -0.09450667
Au       0.00000024       8.84854830       2.08562414        1       0.00000000       0.05980311      -0.05035394      -0.04825913
Au       2.94951617       8.84854838       2.08562416        1       0.00000000      -0.00538302      -0.05405921      -0.02951963
Au       5.89903210       8.84854846       2.08562418        1       0.00000000       0.02804375      -0.01701996      -0.04664541
Au       8.84854802       8.84854853       2.08562420        1       0.00000000      -0.02214853      -0.02215138      -0.05724358
Au      11.79806395       8.84854861       2.08562422        1       0.00000000       0.02925871       0.00350607      -0.09772918
Au       0.00000032      11.79806441       2.08562413        1       0.00000000      -0.00060780      -0.00844145      -0.09425658
Au       2.94951625      11.79806448       2.08562415        1       0.00000000       0.00379125      -0.00237350      -0.09634086
Au       5.89903217      11.79806455       2.08562417        1       0.00000000       0.01009605       0.02706074      -0.09450822
Au       8.84854810      11.79806463       2.08562419        1       0.00000000       0.00350817       0.02926368      -0.09772968
Au      11.79806403      11.79806471       2.08562421        1       0.00000000       0.00585738       0.00586026      -0.09418803
Au       1.46160415       1.46160394       4.16242270        2       0.00000000       0.00735532       0.00735601       0.01438441
Au       4.40994717       1.47880822       4.16504077        2       0.00000000       0.00887736       0.00296689       0.00934415
Au       7.33383196       1.53574299       4.22541445        2       0.00000000      -0.00234889      -0.00707370      -0.00371583
Au      10.30780480       1.48021842       4.14940207        2       0.00000000       0.00217049      -0.00216804       0.00141175
Au      13.26148538       1.46939303       4.15288587        2       0.00000000      -0.00128717      -0.00208597      -0.00001241
Au       1.47880853       4.40994768       4.16504144        2       0.00000000       0.00297023       0.00887726       0.00934494
Au       4.42987562       4.42987557       4.09112856        2       0.00000000      -0.00111034      -0.00110697       0.01778914
Au       7.37850805       4.45172616       4.18465145        2       0.00000000      -0.01212050      -0.01563669       0.00553346
Au      10.33757155       4.43524048       4.15326495        2       0.00000000      -0.00853790      -0.00007321      -0.00181912
Au      13.28156882       4.42643371       4.15745003        2       0.00000000      -0.00137238      -0.00375973      -0.00418301
Au       1.53574355       7.33383195       4.22541495        2       0.00000000      -0.00707431      -0.00235026      -0.00371702
Au       4.45172588       7.37850813       4.18465134        2       0.00000000      -0.01563804      -0.01212427       0.00553097
Au       7.38963776       7.38963773       4.20077069        2       0.00000000      -0.00173465      -0.00173505      -0.00917767
Au      10.35291036       7.39341793       4.14842237        2       0.00000000      -0.00543787      -0.00076383      -0.00394259
Au      13.31227468       7.37727448       4.15606582        2       0.00000000      -0.00992941       0.00150057      -0.00228878
Au       1.48021909      10.30780538       4.14940214        2       0.00000000      -0.00216746       0.00217466       0.00141176
Au       4.43523987      10.33757124       4.15326500        2       0.00000000      -0.00007542      -0.00853729      -0.00181944
Au       7.39341747      10.35291092       4.14842251        2       0.00000000      -0.00076486      -0.00543949      -0.00394414
Au      10.33798425      10.33798461       4.15762990        2       0.00000000       0.00160978       0.00160681       0.00235530
Au      13.28096353      10.32283712       4.15993598        2       0.00000000      -0.00057235       0.00256488      -0.00143394
Au       1.46939324      13.26148574       4.15288603        2       0.00000000      -0.00208330      -0.00129351      -0.00001161
Au       4.42643403      13.28156751       4.15744976        2       0.00000000      -0.00376558      -0.00136662      -0.00418044
Au       7.37727433      13.31227576       4.15606604        2       0.00000000       0.00150367      -0.00993081      -0.00228821
Au      10.32283667      13.28096398       4.15993631        2       0.00000000       0.00256256      -0.00057017      -0.00143450
Au      13.26841052      13.26841122       4.15936583        2       0.00000000       0.00018258       0.00017933       0.00380027
Au      -0.01726761      -0.01726819       6.22412298        3       0.00000000       0.00039559       0.00039910       0.00204656
Au       2.92759695      -0.04799914       6.22801344        3       0.00000000      -0.00207159       0.00845727      -0.00642002
Au       5.89846423       0.02576762       6.23052238        3       0.00000000       0.00071928      -0.00989274      -0.00700630
Au       8.86066592       0.01618271       6.22847061        3       0.00000000      -0.00581976      -0.00396496      -0.00450362
Au      11.79121061       0.00908507       6.21996848        3       0.00000000      -0.00094877      -0.00115018       0.00408880
Au      -0.04799835       2.92759663       6.22801358        3       0.00000000       0.00845853      -0.00207497      -0.00641853
Au       2.85553766       2.85553729       6.22869871        3       0.00000000       0.01944371       0.01944428       0.00326237
Au       5.82595632       2.96481450       6.25476423        3       0.00000000       0.02932232      -0.02320818       0.00614868
Au       8.87640631       2.96923725       6.21676302        3       0.00000000      -0.00970172      -0.01217997      -0.00053491
Au      11.79488366       2.95442356       6.22344099        3       0.00000000      -0.00518670       0.00073050      -0.00393322
Au       0.02576837       5.89846520       6.23052317        3       0.00000000      -0.00989424       0.00071995      -0.00700801
Au       2.96481466       5.82595650       6.25476482        3       0.00000000      -0.02321098       0.02932246       0.00614737
Au       6.04426074       6.04426033       6.26843194        3       0.00000000      -0.00254105      -0.00254472       0.02722538
Au       8.95235067       5.94999924       6.22086476        3       0.00000000      -0.00550528      -0.00605054       0.00243872
Au      11.85157555       5.90658297       6.22595839        3       0.00000000      -0.01645950      -0.00063558      -0.00664704
Au       0.01618302       8.86066598       6.22847072        3       0.00000000      -0.00396498      -0.00582050      -0.00450331
Au       2.96923735       8.87640653       6.21676334        3       0.00000000      -0.01218056      -0.00970198      -0.00053507
Au       5.94999860       8.95235007       6.22086431        3       0.00000000      -0.00604819      -0.00549958       0.00244056
Au       8.90128720       8.90128758       6.23097922        3       0.00000000      -0.00570644      -0.00570692      -0.00616598
Au      11.82891750       8.84706794       6.22450059        3       0.00000000      -0.00331764       0.00371619      -0.00149219
Au       0.00908529      11.79120997       6.21996877        3       0.00000000      -0.00114963      -0.00094842       0.00408453
Au       2.95442346      11.79488337       6.22344193        3       0.00000000       0.00072956      -0.00518521      -0.00393593
Au       5.90658297      11.85157544       6.22595845        3       0.00000000      -0.00063437      -0.01646265      -0.00664505
Au       8.84706816      11.82891797       6.22450134        3       0.00000000       0.00371388      -0.00331568      -0.00149149
Au      11.80042755      11.80042761       6.22085326        3       0.00000000       0.00325015       0.00324883       0.00590071
O        4.67615948       4.67616087       7.24713201        0       0.00000000      -0.02240121      -0.02240362       0.00558916
