64
Lattice="10.352071086263805 0.005834718877825984 0.020326463013476837 5.181088557904045 8.933376064519221 -0.0007173358835960217 0.016596487552857784 -0.010258297313150241 8.846420210192356" Properties=species:S:1:pos:R:3:tags:I:1:initial_magmoms:R:1:forces:R:3 unique_id=6189751bbcf54e91b969e6f9d6820352 stress="0.00031094511058721297 3.226959686254753e-06 -1.022881523192726e-05 3.226959686254753e-06 0.0003095879136408228 1.1642087101586382e-05 -1.022881523192726e-05 1.1642087101586382e-05 0.00029019263147819774" energy=-400.5578070496176 pbc="T T T"
Ni      -0.03486443      -0.00580295       0.19822281        4       1.00000000      -0.14879907       0.00308301       0.36231112
Ni       2.61029274      -0.01726612       0.11209485        4       1.00000000       0.11976159      -0.04340810       0.25172258
Ni       5.17951884      -0.01683520       0.16808784        4       1.00000000       0.07133181       0.10365807       0.25644023
Ni       7.78660191      -0.03403317       0.12938036        4       1.00000000       0.07281041      -0.14588285       0.23366496
Pt       1.26495083       2.20647346       0.16447324        4       0.00000000      -0.08266554      -0.03817637       0.24668297
Pt       3.88843810       2.22383423       0.12079628        4       0.00000000       0.06099320       0.02194662      -0.07857717
Pt       6.51389880       2.17387460       0.20519695        4       0.00000000       0.11891505      -0.12052647       0.14503814
Ni       9.05645180       2.20503858       0.16644590        4       1.00000000      -0.02303623      -0.16490626       0.17581452
Ni       2.59431817       4.49163699       0.14117023        4       1.00000000       0.05766524      -0.03613347       0.15172943
Ni       5.17642667       4.47366390       0.16459611        4       1.00000000       0.18733183      -0.06747675       0.22099673
Pt       7.83441991       4.48337276       0.11821114        4       0.00000000       0.13811564      -0.00125302      -0.08819231
Ni      10.36331762       4.50486173       0.07880980        4       1.00000000       0.06805912       0.07533980       0.04989528
Ni       3.85675213       6.72916581       0.17764442        4       1.00000000      -0.04652223       0.12781132       0.24668744
Pt       6.45964339       6.75415833       0.20784903        4       0.00000000      -0.03788168       0.03397304       0.14676933
Ni       9.08487789       6.71946457       0.08325129        4       1.00000000       0.01428400       0.04511005       0.03572823
Ni      11.66199132       6.72086206       0.07959299        4       1.00000000       0.11176131       0.09803602      -0.02105862
Ni       1.30104105       0.70452220       2.21029093        3       1.00000000      -0.02397278      -0.00960413      -0.08294041
Ni       3.88117112       0.75740355       2.22239250        3       1.00000000       0.04284517       0.00997591      -0.03636690
Ni       6.49946573       0.74853447       2.26574287        3       1.00000000       0.07175907       0.01573769       0.16710525
Ni       9.03338780       0.73060794       2.21223231        3       1.00000000      -0.16467409       0.00100151      -0.08000145
Ni       2.62217498       2.96093150       2.23520426        3       1.00000000      -0.02983972       0.05597725      -0.03260078
Ni       5.18189163       2.95255413       2.26341683        3       1.00000000      -0.04190959      -0.15257723       0.07030039
Ni       7.76368346       2.96056120       2.26012064        3       1.00000000      -0.05356735      -0.10881486      -0.05455999
Pt      10.25559885       2.94032957       2.28552918        3       0.00000000      -0.07116230      -0.02724721      -0.07075685
Pt       3.91870678       5.19871565       2.18362965        3       0.00000000      -0.01519466      -0.02022571       0.10017377
Ni       6.51459458       5.20086954       2.23689727        3       1.00000000       0.13626841       0.02475458      -0.02768741
Ni       9.02908990       5.22514334       2.27105393        3       1.00000000      -0.08162750       0.07076431       0.17236621
Pt      11.63990752       5.23850164       2.19241825        3       0.00000000      -0.09643614       0.02851186      -0.03229236
Ni       5.16798260       7.48446525       2.20246563        3       1.00000000      -0.10701124       0.06657040      -0.02839776
Ni       7.77292728       7.44904770       2.22875144        3       1.00000000       0.02978705      -0.02735751      -0.02138701
Pt      10.32674602       7.47658148       2.15163016        3       0.00000000      -0.01158012      -0.01657983      -0.01396114
Ni      12.96388999       7.48694329       2.19971512        3       1.00000000      -0.06194103       0.06615242      -0.06369313
Ni      -0.02662609       1.50661093       4.36966117        2       1.00000000      -0.01962830       0.05586596      -0.03185894
Pt       2.66477550       1.52609890       4.31821552        2       0.00000000      -0.00213104       0.06579575      -0.12901027
Ni       5.19332715       1.50154845       4.36183812        2       1.00000000       0.10271305      -0.03265684      -0.22685154
Ni       7.78998851       1.50049327       4.35846271        2       1.00000000       0.05982186       0.04826086      -0.24092379
Pt       1.25786592       3.77799654       4.37170298        2       0.00000000       0.06266788      -0.00345155       0.09154300
Ni       3.90184058       3.70339799       4.38150996        2       1.00000000       0.06198959       0.05195939      -0.11488295
Pt       6.54057285       3.68411340       4.29538552        2       0.00000000      -0.04544851      -0.06472170       0.08349774
Ni       9.06021596       3.74991640       4.41022267        2       1.00000000      -0.02165516       0.10272058      -0.06720158
Ni       2.57755702       5.95075477       4.39264180        2       1.00000000      -0.01405598       0.06710704      -0.10073666
Pt       5.18122708       5.92457273       4.33775327        2       0.00000000       0.07492792       0.03967439       0.11602391
Ni       7.83662133       5.90369333       4.37714249        2       1.00000000       0.06519822      -0.10107918      -0.19982857
Ni      10.33172258       5.93420713       4.44830825        2       1.00000000      -0.05380580       0.00424458      -0.07425995
Pt       3.87033454       8.24421546       4.29685700        2       0.00000000      -0.01802573       0.01933047      -0.03919236
Pt       6.48858561       8.21077991       4.29741793        2       0.00000000      -0.02063570       0.03328239       0.00884083
Pt       9.06872355       8.12387172       4.39376849        2       0.00000000      -0.05553503      -0.03075385       0.02477423
Pt      11.66904005       8.18935289       4.39506652        2       0.00000000      -0.02358790       0.01517773      -0.01705790
Pt       0.00753750      -0.00219289       6.61684020        1       0.00000000      -0.01779452      -0.01495295       0.18607198
Ni       2.62815919      -0.00984081       6.58320030        1       1.00000000       0.00210493      -0.00197539      -0.13540854
Pt       5.15013945      -0.06411973       6.63851555        1       0.00000000      -0.13062771      -0.17667291       0.16347486
Ni       7.75445836      -0.00827166       6.59085619        1       1.00000000      -0.05752077       0.02796379      -0.10733638
Pt       1.33597489       2.21257895       6.52129865        1       0.00000000       0.10321964      -0.01155179      -0.25808917
Ni       3.89328802       2.20615158       6.49617447        1       1.00000000       0.01600236      -0.03657462      -0.26077826
Pt       6.47916816       2.17734997       6.50562563        1       0.00000000      -0.05287689      -0.05963293      -0.21300113
Pt       9.05931451       2.29480138       6.55393857        1       0.00000000       0.01937045       0.08303481       0.01103849
Pt       2.54631312       4.48587324       6.58815700        1       0.00000000      -0.12813821       0.06027313       0.06524246
Pt       5.19159925       4.42479638       6.60055930        1       0.00000000      -0.00858464      -0.00028332       0.04658691
Ni       7.82804117       4.48076232       6.49051554        1       1.00000000       0.04803476       0.01358051      -0.27463390
Ni      10.32505410       4.52819799       6.56354491        1       1.00000000      -0.12535653       0.15801526      -0.18293137
Pt       3.81394918       6.73497571       6.61545812        1       0.00000000      -0.09851752       0.07664237       0.13939419
Pt       6.60610333       6.67922924       6.53087486        1       0.00000000       0.13593399       0.01802529      -0.16532399
Ni       9.11011759       6.64546606       6.56644237        1       1.00000000       0.11199016      -0.21527938      -0.18385737
Ni      11.61421645       6.68280031       6.57656452        1       1.00000000      -0.17391650      -0.05960197      -0.21427726
