64
Lattice="10.390043282171984 -0.044804944531598175 0.09231618474929441 5.156219420906478 8.914643502510147 0.04715539062231612 0.07537584921209085 0.0009402618050560986 8.872179286185231" Properties=species:S:1:pos:R:3:tags:I:1:initial_magmoms:R:1:forces:R:3 unique_id=daf40c4054c54a7eb3843bdb5a8a7249 stress="-0.0032837697058192283 1.9089502334000222e-05 -4.0698501524881e-05 1.9089502334000222e-05 -0.0032860872848923736 1.1199377244923246e-05 -4.0698501524881e-05 1.1199377244923246e-05 -0.002780171706415778" energy=-402.9615129036554 pbc="T T T"
Ni      -0.00625365      -0.01656821       0.19464904        4       1.00000000       0.00084200       0.01400665       0.21057661
Ni       2.62936572      -0.02137527       0.14682521        4       1.00000000       0.10998678       0.01388387       0.15135360
Ni       5.20016330      -0.04941777       0.21512684        4       1.00000000       0.03829837       0.02239745       0.14508312
Ni       7.79150585      -0.10076261       0.27430801        4       1.00000000       0.00510182      -0.08345886       0.25534775
Pt       1.30295300       2.23258705       0.11833331        4       0.00000000       0.06162739       0.03933923      -0.12120495
Pt       3.87445978       2.16558847       0.23528857        4       0.00000000       0.04678808       0.01652377       0.02501465
Pt       6.49231795       2.11859736       0.16164651        4       0.00000000       0.06605223      -0.02819132      -0.13788995
Pt       9.11351004       2.18784171       0.20825490        4       0.00000000       0.05454369       0.02655974      -0.11531256
Ni       2.56677655       4.50108294       0.15271498        4       1.00000000       0.04251231       0.02193318       0.04334904
Pt       5.13616033       4.48725208       0.08809171        4       0.00000000       0.04094076       0.05234679      -0.21935517
Pt       7.81780720       4.48741088       0.20672355        4       0.00000000       0.01552405       0.03549513      -0.15403015
Ni      10.41388417       4.47477019       0.17168419        4       1.00000000       0.06931848       0.07808501       0.07639086
Ni       3.82802529       6.73189233       0.14048172        4       1.00000000      -0.00009257       0.08449770       0.12068572
Pt       6.47734585       6.78387580       0.26642650        4       0.00000000       0.02575340       0.05776427       0.00328779
Ni       9.10517708       6.70770649       0.16086845        4       1.00000000       0.06852032       0.07031291       0.04364701
Ni      11.68923586       6.65971699       0.17466319        4       1.00000000       0.12405412      -0.00815382       0.02091659
Ni       1.35147204       0.75788510       2.23760965        3       1.00000000       0.04495217       0.07402809      -0.04380640
Ni       3.86079068       0.73074781       2.28212965        3       1.00000000      -0.10616842      -0.02037559       0.08003744
Ni       6.52289385       0.73256123       2.29162192        3       1.00000000       0.02767621       0.01653967       0.04665952
Pt       9.11458798       0.70982528       2.34251173        3       0.00000000       0.02697948       0.02843678       0.11591203
Ni       2.59051317       2.92356802       2.33072574        3       1.00000000      -0.01494796      -0.05982799       0.09952489
Ni       5.20173575       2.95571297       2.29206555        3       1.00000000      -0.00183566       0.04831885      -0.06084392
Ni       7.78720315       2.91451968       2.33536045        3       1.00000000       0.01595267      -0.07027250      -0.08132531
Ni      10.41971788       2.91072061       2.39150531        3       1.00000000       0.06027019      -0.04279845       0.03887169
Pt       3.89526705       5.19622333       2.28779308        3       0.00000000       0.02901234      -0.03088730      -0.01821778
Ni       6.48576543       5.19763964       2.30966590        3       1.00000000      -0.04187592       0.07151439      -0.02515492
Pt       9.04767264       5.14690814       2.37794062        3       0.00000000      -0.00364813      -0.02272603       0.06479629
Pt      11.69378168       5.11084734       2.31858849        3       0.00000000      -0.04081315      -0.05589344       0.06907956
Ni       5.17857722       7.44613790       2.27686051        3       1.00000000      -0.06188738       0.03164623       0.09409310
Ni       7.77516119       7.45259188       2.30338144        3       1.00000000       0.04971184       0.03843474       0.02050349
Pt      10.37963043       7.45050492       2.23530637        3       0.00000000       0.04110513      -0.07354365       0.09175378
Ni      12.98906790       7.38833272       2.30919378        3       1.00000000       0.02751715      -0.05714840       0.07080964
Ni       0.07583084       1.55948819       4.36383064        2       1.00000000       0.09411444       0.01878666      -0.13914976
Ni       2.58573770       1.54123863       4.39453154        2       1.00000000      -0.01060890       0.04540127      -0.11267523
Pt       5.20197268       1.50120146       4.35024038        2       0.00000000      -0.05156992       0.00122406      -0.04893701
Ni       7.84238323       1.48193363       4.45647296        2       1.00000000      -0.02053940      -0.03428842      -0.05470626
Ni       1.33110781       3.65866082       4.40974369        2       1.00000000       0.01738993      -0.03806419      -0.09666883
Ni       3.85212151       3.69873629       4.41098703        2       1.00000000      -0.09389863      -0.02243256      -0.10465838
Pt       6.56620040       3.68623567       4.38680526        2       0.00000000       0.02399233      -0.02667857      -0.15246490
Ni       9.14921220       3.63108253       4.43125162        2       1.00000000       0.06615161      -0.15148247      -0.18140267
Ni       2.59842633       5.90994981       4.44350028        2       1.00000000      -0.01663158      -0.05109117      -0.04997430
Pt       5.18444156       5.89617107       4.45723252        2       0.00000000      -0.02624112       0.01674484      -0.04283844
Ni       7.79877717       5.92450054       4.44948241        2       1.00000000      -0.06109437       0.05723299      -0.07835416
Pt      10.41074509       5.81288001       4.60701061        2       0.00000000      -0.04199323      -0.06896153       0.02047047
Pt       3.89892575       8.18161799       4.43612031        2       0.00000000       0.00480922       0.04295794       0.12764044
Pt       6.50213897       8.24897995       4.36253735        2       0.00000000      -0.06815868       0.08137308      -0.00297040
Pt       9.04715520       8.14601289       4.48364907        2       0.00000000       0.01149822      -0.03504692       0.03256335
Pt      11.71558383       8.12586017       4.46374706        2       0.00000000      -0.03900482       0.01147452       0.04097946
Pt       0.10709249       0.02570082       6.64498756        1       0.00000000      -0.00545706       0.05156844       0.20728705
Ni       2.64197367      -0.00712808       6.60786251        1       1.00000000      -0.04970991       0.05605404      -0.04012051
Pt       5.19452834      -0.07860143       6.71078633        1       0.00000000      -0.10504539      -0.00835778       0.12926896
Pt       7.81942314      -0.07814134       6.73637334        1       0.00000000      -0.07592268      -0.01142223       0.26556341
Ni       1.34260042       2.24657669       6.47592583        1       1.00000000      -0.01635714       0.04579492      -0.19825375
Pt       3.89551796       2.23191184       6.53957354        1       0.00000000      -0.07620263       0.01455190       0.01547524
Ni       6.52315604       2.20780946       6.55197698        1       1.00000000      -0.04286525      -0.03209081      -0.18146874
Pt       9.17801009       2.22798020       6.52265324        1       0.00000000      -0.01496451      -0.05161164      -0.09447431
Pt       2.57737913       4.50679433       6.57724450        1       0.00000000      -0.05759843       0.02012412       0.03326921
Ni       5.21232477       4.42488214       6.53080129        1       1.00000000      -0.03154357      -0.08247852      -0.21452464
Pt       7.86169951       4.44818975       6.55042999        1       0.00000000       0.01725741      -0.01405708      -0.04801046
Ni      10.44234755       4.42631177       6.67825674        1       1.00000000      -0.00824945      -0.08578190       0.03608641
Ni       3.89605174       6.66204103       6.62284525        1       1.00000000      -0.03123114      -0.00903327       0.00127294
Pt       6.53906561       6.67513736       6.59937406        1       0.00000000       0.00131919       0.01202637       0.04957415
Ni       9.12908192       6.63864536       6.67625374        1       1.00000000      -0.03720921      -0.05205849      -0.00015242
Ni      11.69691793       6.61968112       6.69740776        1       1.00000000      -0.07620713       0.01083532      -0.02819900
