64
Lattice="10.15694826207725 -0.006596111443969199 0.002974610879643073 5.072761730962009 8.71132894867314 -0.11680474133344523 0.0 0.0 21.471729615728492" Properties=species:S:1:pos:R:3:tags:I:1:initial_magmoms:R:1:forces:R:3 unique_id=f5e2ca58cb1e4ebc9bc8c84e3aa4b0eb stress="0.0023413676963797477 -8.299829777208135e-05 6.41074023162227e-05 -8.299829777208135e-05 0.0017787939827427195 -0.0007981452163581257 6.41074023162227e-05 -0.0007981452163581257 -0.005003333606056631" energy=-368.30816205185295 pbc="T T T"
Ni       0.03928416      -0.05757184       0.20042248        2       1.00000000       0.08909954       0.00511481      -0.43940040
Ni       2.48848210      -0.04313548       0.20666908        2       1.00000000       0.02898089      -0.01143976      -0.18543816
Pt       5.10031254      -0.04972086       0.17050944        2       0.00000000      -0.10885904       0.16428876      -1.06735965
Ni       7.63700947      -0.06866268       0.20261794        2       1.00000000      -0.03730684      -0.08472851      -0.47708138
Ni       1.26066190       2.18178471       0.10561522        1       1.00000000      -0.04458041      -0.01048745       0.28576307
Pt       3.75914825       2.22671164       0.17579914        2       0.00000000      -0.00225028      -0.06038699      -0.78237585
Ni       6.35175982       2.21045362       0.10177796        1       1.00000000      -0.04950446      -0.01678340       0.09200345
Pt       8.89608411       2.20898775       0.10473956        1       0.00000000       0.05657349       0.13251487      -0.79837859
Ni       2.50661503       4.38855939       0.05349299        1       1.00000000       0.04385527      -0.02183472       0.34249364
Ni       5.07055420       4.38156598       0.01830263        0       1.00000000      -0.13383447      -0.00284301       0.10053141
Ni       7.60718696       4.37146834       0.03140730        0       1.00000000       0.12924722      -0.02379554       0.02723719
Ni      10.19005064       4.37622942       0.06401288        1       1.00000000      -0.03033099      -0.01583040       0.29496225
Ni       3.80638318       6.50032664       0.02699683        0       1.00000000       0.03665685      -0.01326468       0.25984699
Ni       6.33254252       6.53195061       0.00000000        0       1.00000000       0.00167959       0.07027334       0.15764347
Ni       8.84501816       6.46083316       0.10012265        1       1.00000000      -0.09681339      -0.02879018      -0.20306837
Ni      11.46053079       6.45975343       0.01193809        0       1.00000000       0.01798489       0.03486572       0.22570166
Ni       1.30075535       0.71100612       2.19800622        4       1.00000000      -0.00145105       0.09911058       0.13119556
Ni       3.73015538       0.69064382       2.19638668        4       1.00000000      -0.15200535      -0.08766699       0.20375105
Ni       6.38107530       0.71929976       2.17950813        4       1.00000000       0.07752894       0.03498828       0.09822940
Pt       8.91420956       0.70158945       2.20830974        4       0.00000000       0.06789598      -0.10558923       0.21426626
Ni       2.49381769       2.90209721       2.21880609        4       1.00000000      -0.03069165      -0.00757647       0.14557398
Ni       5.06949625       2.89549223       2.15573895        4       1.00000000       0.01148602       0.02216280       0.09212394
Ni       7.61557016       2.88754023       2.17441916        4       1.00000000      -0.01603593       0.01842019       0.12942114
Ni      10.20856422       2.91413145       2.19627555        4       1.00000000       0.09432267       0.00551842       0.12546370
Ni       3.76390553       5.04466453       2.11693187        3       1.00000000      -0.02777778      -0.06063234       0.05406022
Pt       6.34303174       5.08787373       2.08008579        3       0.00000000       0.02219468      -0.02637504      -0.02995406
Ni       8.90237376       4.99480478       2.12622254        3       1.00000000       0.03340985      -0.12130327       0.08591322
Ni      11.45109945       5.00093900       2.13179722        3       1.00000000       0.01169868      -0.05518528       0.14943743
Ni       5.09132670       7.21913296       2.05226668        3       1.00000000      -0.03697560       0.02794341       0.07383770
Ni       7.59160315       7.26262053       2.09814316        3       1.00000000      -0.01082710       0.02438558       0.12744355
Pt      10.15593221       7.15533551       2.16228454        4       0.00000000       0.03764230      -0.15951886       0.14320490
Ni      12.69746953       7.15345784       2.05721151        3       1.00000000       0.02749090      -0.09348890       0.07844400
Ni       0.06663420       1.43698479       4.25570174        7       1.00000000       0.12289309      -0.01581180      -0.11487845
Ni       2.48172111       1.41625648       4.22574691        6       1.00000000      -0.03315179      -0.02344951      -0.13997606
Pt       5.05332409       1.37435740       4.17027898        6       0.00000000       0.01685786      -0.04516281      -0.17788942
Ni       7.61806368       1.39604327       4.26412081        7       1.00000000      -0.05538945      -0.09350417      -0.18796526
Ni       1.27174450       3.58491202       4.25345208        7       1.00000000       0.03317090      -0.03892269      -0.08838912
Ni       3.74980285       3.64672843       4.20414874        6       1.00000000      -0.03104563       0.06151965      -0.15392243
Pt       6.37850762       3.61770957       4.29213421        7       0.00000000       0.02381104       0.01139470       0.04329039
Ni       8.94462477       3.62559958       4.19514474        6       1.00000000       0.05089026       0.07090443      -0.16166575
Ni       2.50792222       5.69413423       4.22258563        6       1.00000000      -0.05651274      -0.03859152      -0.15402200
Ni       5.06601982       5.73999494       4.25175376        7       1.00000000       0.02730319      -0.01195632      -0.10007655
Ni       7.63149926       5.78500959       4.20174214        6       1.00000000       0.07193764       0.07636890      -0.11712413
Ni      10.18631643       5.69452782       4.22851491        6       1.00000000       0.04150613       0.00327639      -0.07845897
Pt       3.81333806       7.84406757       4.15610762        6       0.00000000       0.02422073       0.03794382      -0.01180572
Ni       6.37112352       7.90880265       4.12719519        5       1.00000000      -0.01102505       0.01453590      -0.14947181
Ni       8.82759565       7.88855538       4.15748224        6       1.00000000      -0.12829061       0.04104757      -0.19225250
Ni      11.44143841       7.85269059       4.17152275        6       1.00000000       0.04821455      -0.10914732      -0.12000507
Pt       0.01967841      -0.11303388       6.46879686       10       0.00000000      -0.18565262       0.19016703       0.25476034
Pt       2.52195052      -0.07398592       6.40960810        9       0.00000000       0.26689541       0.07455625       0.12621543
Pt       5.09301654      -0.09616410       6.32651590        8       0.00000000      -0.21201731      -0.10956478       1.11251523
Pt       7.60926661      -0.12020708       6.47172962       10       0.00000000       0.10099458       0.17190759       0.41005649
Ni       1.26705131       2.17651361       6.35099176        9       1.00000000       0.01887725       0.04423314      -0.13606621
Pt       3.78155092       2.25599475       6.31537661        8       0.00000000      -0.14429232      -0.02041890       0.69483948
Ni       6.34612498       2.15744161       6.39506722        9       1.00000000       0.00830540       0.00421538       0.04894239
Pt       8.89967897       2.21611914       6.25476143        8       0.00000000      -0.00389536      -0.19348311       0.83318781
Ni       2.50506184       4.34963477       6.32702021        8       1.00000000       0.05538643      -0.04133649      -0.29729034
Ni       5.08026185       4.35592678       6.35994902        9       1.00000000      -0.11620378       0.00583325      -0.06076468
Ni       7.56428831       4.29259621       6.37803873        9       1.00000000       0.00153442      -0.00952360       0.07113297
Ni      10.23864502       4.28401629       6.33362183        8       1.00000000       0.04227090      -0.00084992      -0.24258110
Ni       3.80420626       6.36922517       6.32801095        8       1.00000000      -0.02249748       0.01447421      -0.21432466
Ni       6.31670128       6.39375684       6.30529995        8       1.00000000       0.00419049       0.06976831      -0.19683411
Pt       8.88427878       6.32685513       6.33613972        8       0.00000000       0.04574793       0.12633204       0.02109881
Ni      11.45892937       6.38103386       6.30396534        8       1.00000000      -0.01353749       0.10117861      -0.17576769
