64
Lattice="10.32287936584124 -0.027925701202569386 -0.0007636789257653227 5.137255316260706 8.86046849968049 -0.03778022020767332 -0.0006235412318139707 -0.03525953150671715 8.777658880955158" Properties=species:S:1:pos:R:3:tags:I:1:initial_magmoms:R:1:forces:R:3 unique_id=e69a237c83044102ae024ae261ca8a2c stress="0.00020936562307621864 4.59859673050389e-06 -1.0784161392284071e-05 4.59859673050389e-06 0.00021552218910176474 1.2241676829461362e-05 -1.0784161392284071e-05 1.2241676829461362e-05 0.00021086224761002192" energy=-397.10472100202264 pbc="T T T"
Ni       0.00157690       0.01946236       0.18147933        4       1.00000000       0.02442315       0.02594808       0.23438369
Ni       2.57528982      -0.00456827       0.21113025        4       1.00000000      -0.00215379      -0.00004541       0.39009941
Ni       5.15452031      -0.02820554       0.16744949        4       1.00000000      -0.04874712       0.12012798       0.26775322
Ni       7.74450156      -0.06998459       0.18843250        4       1.00000000      -0.04554088      -0.17176551       0.34421269
Ni       1.25169246       2.21839772       0.09699164        4       1.00000000      -0.13603730       0.00877900       0.20104330
Pt       3.79467841       2.21500335       0.10535239        4       0.00000000      -0.08306547       0.02403926      -0.13970186
Pt       6.46322669       2.15198269       0.18640100        4       0.00000000       0.04626971      -0.04251157       0.20255309
Ni       9.06667826       2.19090222       0.13970722        4       1.00000000       0.09696703       0.03188440       0.14221587
Ni       2.56219119       4.44597621       0.05531943        4       1.00000000       0.06724629       0.04090474      -0.00331483
Ni       5.11541516       4.43717955       0.16871865        4       1.00000000      -0.03454770       0.00473702       0.32539971
Pt       7.80440455       4.42525732       0.08951994        4       0.00000000       0.10860773      -0.00288218      -0.09496518
Ni      10.34212277       4.40019809       0.05615326        4       1.00000000       0.11885111      -0.05990385       0.12087040
Ni       3.81873511       6.64003846       0.16754396        4       1.00000000      -0.05696058      -0.07013972       0.28990476
Pt       6.40504626       6.67772277       0.16207090        4       0.00000000      -0.07163280      -0.00717625       0.08273263
Ni       9.03499073       6.64106420       0.04534006        4       1.00000000      -0.01440413       0.00615900       0.00622996
Ni      11.61333498       6.61739049       0.04107186        4       1.00000000       0.11938883      -0.06152820      -0.00430212
Ni       1.30150362       0.75227908       2.16108447        3       1.00000000      -0.00139850       0.15321399      -0.05306013
Ni       3.85802626       0.74776852       2.19692510        3       1.00000000       0.03424942       0.08346382       0.06649552
Ni       6.44367516       0.73063819       2.23395635        3       1.00000000      -0.02515924       0.12800338       0.15441016
Pt       9.03947511       0.74827201       2.17762208        3       0.00000000       0.00458860       0.08518945       0.14267875
Ni       2.57376511       2.93977089       2.19820650        3       1.00000000       0.00137240       0.06331482      -0.03079224
Ni       5.12053643       2.95006899       2.22183044        3       1.00000000      -0.18899588      -0.00861651      -0.01372971
Ni       7.76197807       2.94738880       2.22862408        3       1.00000000       0.13863542       0.06678710      -0.05038103
Ni      10.32054421       2.91916551       2.19334473        3       1.00000000       0.07683264       0.05570287       0.06812260
Ni       3.88628844       5.15137379       2.19145541        3       1.00000000       0.05482950      -0.05771375       0.10378839
Ni       6.42110130       5.15275534       2.20645403        3       1.00000000      -0.01942528       0.11484096      -0.08560760
Ni       9.00045952       5.11978085       2.20984033        3       1.00000000      -0.00046695      -0.09738606       0.10750563
Pt      11.64819027       5.07649676       2.15022840        3       0.00000000       0.08423172      -0.07835110       0.00433152
Ni       5.11535988       7.34097822       2.16708582        3       1.00000000      -0.12680176      -0.12546054      -0.06381800
Ni       7.72028498       7.36124552       2.16328955        3       1.00000000       0.03141803      -0.11995928      -0.09757673
Pt      10.28487191       7.36229125       2.07540376        3       0.00000000       0.02530266      -0.16040577      -0.04776531
Ni      12.90521925       7.32645168       2.12750885        3       1.00000000       0.00119315      -0.12207402       0.00813098
Ni      -0.00477165       1.52990538       4.32746323        2       1.00000000       0.02391496       0.12886536      -0.13126431
Pt       2.56410298       1.57174764       4.29816029        2       0.00000000      -0.01465657      -0.00438757      -0.08267720
Ni       5.14636842       1.48338236       4.30798044        2       1.00000000      -0.02765420       0.08974427      -0.18349090
Ni       7.76021612       1.47568468       4.31231333        2       1.00000000       0.05393519       0.05867326      -0.08850239
Ni       1.27931685       3.67290550       4.36849901        2       1.00000000      -0.04375418      -0.00634033      -0.10609691
Ni       3.84364544       3.70896704       4.31324365        2       1.00000000      -0.02324411       0.12993812      -0.24763377
Pt       6.45502816       3.68982174       4.22447374        2       0.00000000      -0.07768622      -0.06981973       0.09075372
Ni       9.02928066       3.63325374       4.30719149        2       1.00000000       0.02313814      -0.11489067      -0.30989152
Ni       2.57643143       5.81916088       4.32733872        2       1.00000000       0.01957441      -0.15058247      -0.13236254
Ni       5.12073378       5.84402548       4.27391425        2       1.00000000      -0.05431082      -0.05612717      -0.17772557
Ni       7.74139148       5.83274400       4.29264952        2       1.00000000       0.02828384      -0.02773481      -0.27153210
Pt      10.30032853       5.76501520       4.39098284        2       0.00000000      -0.00671510      -0.01321516      -0.10157237
Pt       3.85102518       8.07501041       4.25068892        2       0.00000000      -0.05064184      -0.11453822       0.14645921
Pt       6.41518341       8.08112256       4.19403890        2       0.00000000      -0.04886232       0.00026179      -0.01884176
Pt       8.98878405       8.08499639       4.27131080        2       0.00000000      -0.01972526       0.07174151       0.07562870
Pt      11.60850834       8.10147939       4.26318329        2       0.00000000       0.05155994       0.02320173       0.07182436
Pt       0.02556636       0.02394012       6.56177692        1       0.00000000       0.00330476       0.05606706       0.06713462
Pt       2.59204503       0.02985377       6.59193759        1       0.00000000       0.00453800       0.13556931       0.24066589
Pt       5.14338124      -0.09376157       6.57213210        1       0.00000000       0.00134031      -0.15047957       0.07189871
Pt       7.73454575      -0.05658163       6.58218221        1       0.00000000       0.02752836       0.02533084       0.14539247
Ni       1.30740797       2.27156161       6.49014684        1       1.00000000       0.04371373       0.20077440      -0.13433881
Ni       3.82593420       2.21847360       6.42750112        1       1.00000000      -0.06770577       0.04837874      -0.28277016
Pt       6.44027929       2.19395565       6.42545366        1       0.00000000       0.00357394       0.06703580      -0.24850160
Pt       9.09406525       2.28973244       6.47919815        1       0.00000000       0.12450226       0.14121232       0.01798562
Ni       2.50169475       4.36861507       6.46605680        1       1.00000000      -0.17726087      -0.07003054      -0.26560006
Pt       5.07758396       4.35427297       6.49262850        1       0.00000000      -0.10406411      -0.05265118       0.08601020
Ni       7.78184820       4.41629054       6.40448465        1       1.00000000       0.10219374       0.07004024      -0.33813638
Ni      10.34861166       4.40586441       6.49650039        1       1.00000000       0.15327380       0.08269699      -0.03630762
Pt       3.77105005       6.55084063       6.50572257        1       0.00000000      -0.12434439      -0.05125906       0.16355919
Pt       6.50011469       6.55352620       6.41566724        1       0.00000000       0.01372567      -0.00578558      -0.31621096
Ni       9.04200460       6.54461348       6.49016886        1       1.00000000       0.01609741      -0.13661926      -0.15264933
Ni      11.56589775       6.53171027       6.49710688        1       1.00000000      -0.03264272      -0.13224654      -0.12905398
