64
Lattice="10.292524620308086 0.006903560997634696 -0.040656649632088794 5.152240969354571 8.875306399339525 -0.09175720498630467 0.0 0.0 21.635124979934645" Properties=species:S:1:pos:R:3:tags:I:1:initial_magmoms:R:1:forces:R:3 unique_id=b6aeec63dbb14ba986395fe0e8645171 stress="0.004804419547300766 2.4856136432155165e-05 -0.00028142639236772066 2.4856136432155165e-05 0.004622506660192767 -0.0004437269699673819 -0.00028142639236772066 -0.0004437269699673819 -0.002626397855080497" energy=-374.76884086057015 pbc="T T T"
Ni      -0.00426606       0.00586594       0.22712260        2       1.00000000       0.07547897       0.00227770      -0.32396095
Ni       2.56913560      -0.00293571       0.24448770        2       1.00000000       0.00316322       0.00987230      -0.22939063
Ni       5.14665295      -0.01703412       0.18312086        2       1.00000000       0.02303032       0.15414604      -0.26748944
Ni       7.71797997      -0.04944669       0.08977113        1       1.00000000      -0.12958101      -0.06066499       0.17120839
Ni       1.26584313       2.20642479       0.18964051        2       1.00000000       0.00546315      -0.03577137      -0.13566326
Pt       3.80366464       2.21238864       0.11599989        1       0.00000000       0.03660871      -0.03151414      -0.04128091
Pt       6.48056147       2.20385461       0.18908724        2       0.00000000       0.01697197      -0.07330275      -0.54482888
Ni       9.02048013       2.22499407       0.12372806        1       1.00000000      -0.04062845       0.03154935      -0.14923399
Ni       2.54622357       4.45016017       0.04728666        0       1.00000000      -0.10101654      -0.04787647       0.15183244
Ni       5.13809734       4.43113652       0.13506269        1       1.00000000       0.02167351      -0.10933675      -0.52659598
Ni       7.77469809       4.43348158       0.05552560        1       1.00000000       0.15623490      -0.06719024       0.18215489
Ni      10.28265173       4.44312381       0.02876033        0       1.00000000      -0.04802908       0.00054571       0.26897953
Ni       3.82623596       6.66961508       0.05340276        1       1.00000000      -0.01051448       0.07198572       0.22106724
Pt       6.43622074       6.68904886       0.01819436        0       0.00000000      -0.00793111       0.14431057      -0.24279350
Ni       9.01613914       6.63534305       0.11199546        1       1.00000000      -0.08970741      -0.10946567      -0.20934224
Ni      11.60035933       6.66016296       0.00000000        0       1.00000000       0.00924602      -0.01844204       0.23383185
Ni       1.30012307       0.71292478       2.20068738        4       1.00000000       0.00633692      -0.01665579       0.03503299
Ni       3.84926815       0.74563937       2.22633303        4       1.00000000       0.04249923       0.04730271       0.18707223
Ni       6.41110755       0.73321376       2.26700793        5       1.00000000      -0.03678698       0.06613339       0.26848124
Pt       8.95291911       0.70468491       2.18194647        4       0.00000000      -0.09617038      -0.00428987       0.05603532
Ni       2.57148308       2.92385439       2.22379469        4       1.00000000       0.01347981       0.02004467       0.08902385
Ni       5.11969373       2.89448549       2.24865132        4       1.00000000      -0.10783063      -0.14415160       0.25757260
Ni       7.73994140       2.94179460       2.22292165        4       1.00000000       0.06434357       0.01665855       0.17030373
Pt      10.27959291       2.94192308       2.20888805        4       0.00000000       0.02915578      -0.02419997       0.16397915
Pt       3.84492123       5.15004267       2.15312086        4       0.00000000       0.01588980      -0.05809959      -0.09176651
Pt       6.51053133       5.15390805       2.16337519        4       0.00000000       0.05430758      -0.03760787       0.00002204
Ni       9.00198540       5.16502292       2.17777971        4       1.00000000       0.06775789       0.00004312       0.13729433
Pt      11.56284051       5.17241112       2.17218626        4       0.00000000       0.01925567      -0.03800332       0.06435206
Ni       5.13705203       7.39425676       2.13919916        3       1.00000000      -0.02853333      -0.05444521       0.02025970
Ni       7.72367351       7.40877419       2.13828391        3       1.00000000       0.04457832       0.04991667       0.09375659
Pt      10.30424523       7.42058809       2.09436734        3       0.00000000      -0.00977826       0.04492239       0.04398475
Ni      12.85010860       7.39671810       2.10790344        3       1.00000000      -0.01638512       0.01387942      -0.03414615
Ni      -0.03342479       1.48954523       4.39112378        8       1.00000000      -0.01510095       0.06758068      -0.09711573
Pt       2.57960489       1.54214144       4.30159824        7       0.00000000      -0.01145300       0.07141936      -0.00607461
Ni       5.15079418       1.44334260       4.32390379        7       1.00000000       0.03128556      -0.02354166      -0.27940039
Ni       7.69386993       1.43789007       4.33291959        7       1.00000000      -0.03326572      -0.01104880      -0.14949261
Ni       1.25927694       3.72599077       4.39364762        8       1.00000000      -0.01854283       0.03861101      -0.03331192
Ni       3.81718539       3.67706516       4.36560457        8       1.00000000      -0.00402895       0.03286908      -0.15952053
Pt       6.47233104       3.62310864       4.29211402        7       0.00000000       0.04485376      -0.03240818       0.05316375
Ni       9.02776527       3.70252389       4.34588228        7       1.00000000       0.09824951       0.08712448      -0.04612351
Ni       2.49783845       5.85692871       4.40902938        8       1.00000000      -0.09349958      -0.06454566      -0.01959642
Pt       5.08461877       5.87437361       4.36055827        8       0.00000000      -0.00882864       0.00181109      -0.00081788
Ni       7.75700604       5.84178490       4.33087469        7       1.00000000       0.13270466      -0.03647506      -0.15243648
Ni      10.31157130       5.83994030       4.34373254        7       1.00000000       0.00945447       0.02591398      -0.05878042
Pt       3.72988260       8.10567586       4.32037595        7       0.00000000      -0.08610634       0.01073949       0.05802212
Pt       6.41696024       8.11715646       4.23166877        6       0.00000000      -0.04113950       0.11639399      -0.12267261
Pt       9.04737329       8.07367742       4.25008282        7       0.00000000       0.00162073      -0.00744021      -0.01354144
Ni      11.57086765       8.09776932       4.29700522        7       1.00000000      -0.13763489      -0.01202705      -0.12146384
Pt      -0.07751100      -0.10575948       6.63512498       11       0.00000000       0.09440983       0.18823480       0.20990912
Pt       2.56493915      -0.04428774       6.63354334       11       0.00000000       0.06721102      -0.05759082       0.31719710
Pt       5.19922414      -0.09233209       6.57262195       11       0.00000000       0.01511972      -0.08161305       0.25146428
Ni       7.68819764      -0.08795270       6.53510175       10       1.00000000      -0.02083669       0.05109522      -0.03519998
Pt       1.29933689       2.28955063       6.56337459       11       0.00000000      -0.06601716      -0.10404182       0.02629786
Ni       3.84348633       2.20847973       6.45069086       10       1.00000000       0.09938287       0.00808197       0.10287414
Pt       6.41064492       2.16771697       6.46711194       10       0.00000000      -0.06470543      -0.05066432       0.65903424
Pt       8.98487316       2.24660692       6.48747277       10       0.00000000       0.05581064      -0.00859327       0.03058612
Ni       2.53125501       4.45300854       6.48388238       10       1.00000000       0.02333296       0.07228878      -0.24870111
Pt       5.06028094       4.42681601       6.56363963       11       0.00000000      -0.11678911      -0.07646418       0.34701417
Ni       7.69688823       4.40894283       6.48415123       10       1.00000000      -0.09706701      -0.01192685      -0.11520657
Ni      10.30908572       4.42808355       6.45518937       10       1.00000000       0.12146978       0.01897278      -0.23027940
Ni       3.76809033       6.60153251       6.50306266       10       1.00000000      -0.06825040      -0.02304305      -0.14160924
Ni       6.41901078       6.58513671       6.40502160        9       1.00000000       0.11518610       0.01471875       0.28026989
Pt       9.01142311       6.49442130       6.49402749       10       0.00000000       0.01499465       0.06916660       0.01065727
Ni      11.61372248       6.57270969       6.43801040        9       1.00000000      -0.02440264      -0.01616877      -0.33489786
