64
Lattice="10.319819671340136 0.0013446138591944794 -0.006890927294476322 5.161074305430412 8.867817842027552 -0.04033330977747871 0.0 0.0 21.563655916047203" Properties=species:S:1:pos:R:3:tags:I:1:initial_magmoms:R:1:forces:R:3 unique_id=881b18f52a7c4417aefb222e3a522f46 energy=-374.9258552500064 stress="0.005656432596359806 0.00015673142776560773 1.9923541592935456e-05 0.00015673142776560773 0.005775952657906979 -0.000142990630986991 1.9923541592935456e-05 -0.000142990630986991 -0.0015650300790087442" pbc="T T T"
Ni       0.00934926      -0.00876429       0.15471381        2       1.00000000       0.08262844      -0.00373345      -0.16785258
Ni       2.57830103       0.00380074       0.17572730        2       1.00000000      -0.01901082       0.03713634      -0.05764300
Ni       5.15463555      -0.01873984       0.13054802        1       1.00000000      -0.04641794       0.18428699      -0.37911250
Ni       7.73260491      -0.06149533       0.15181047        2       1.00000000      -0.08466803      -0.09190560      -0.19175905
Ni       1.29959509       2.22280957       0.06760602        1       1.00000000       0.02671660       0.01175638       0.43728164
Pt       3.80049101       2.22736400       0.14074904        1       0.00000000       0.00354192       0.00888177      -0.26947698
Pt       6.43237142       2.17396323       0.07072937        1       0.00000000       0.04236447      -0.02185826      -0.02767170
Pt       9.11689463       2.21894817       0.07261594        1       0.00000000      -0.01504455       0.07518479      -0.52694324
Ni       2.57552454       4.46231226       0.02160735        0       1.00000000       0.09128691      -0.00219872       0.28062028
Ni       5.12165544       4.45534468       0.14358175        1       1.00000000      -0.06818257       0.02811114      -0.02808948
Pt       7.77958731       4.48349597       0.05062041        1       0.00000000      -0.00235687       0.01727620      -0.04871968
Ni      10.36658668       4.46269308       0.01657240        0       1.00000000       0.06561930       0.01272427       0.21220884
Ni       3.83244464       6.64494627       0.05155549        1       1.00000000      -0.03465217      -0.02153151       0.42035491
Pt       6.41528903       6.70254474       0.13385047        1       0.00000000      -0.03722530       0.03515310      -0.58539494
Ni       9.05461675       6.66978305       0.00976667        0       1.00000000      -0.11588408       0.02160947       0.07822872
Ni      11.63243364       6.64593430       0.00000000        0       1.00000000       0.11027936       0.01284804       0.22423140
Ni       1.32018629       0.76896785       2.14950727        4       1.00000000       0.06185876       0.21223868       0.02961280
Ni       3.84437344       0.76157741       2.19287208        5       1.00000000      -0.03718199       0.12437714       0.25718942
Ni       6.43445604       0.76199907       2.18933576        5       1.00000000      -0.06457796       0.19631798       0.22654984
Pt       9.03517101       0.73469209       2.19793004        5       0.00000000       0.01266488       0.16579099       0.03524155
Ni       2.57326165       2.92455926       2.22442172        5       1.00000000       0.01155041      -0.09652180       0.25779263
Ni       5.13907750       2.95588271       2.20234174        5       1.00000000      -0.10016751      -0.01668131       0.19929409
Ni       7.74198915       2.96609780       2.19737837        5       1.00000000       0.08006225       0.02162077       0.13233680
Ni      10.34751563       2.94845429       2.20560868        5       1.00000000       0.07953071      -0.04875766       0.19275922
Ni       3.87763822       5.14676343       2.12367407        4       1.00000000      -0.01709513      -0.14905987      -0.06128755
Ni       6.44950383       5.15056912       2.16469734        5       1.00000000       0.08486118      -0.10196064       0.07937919
Ni       9.00845866       5.14473249       2.17776769        5       1.00000000      -0.03812331      -0.15384780       0.18845509
Pt      11.65771293       5.10520909       2.11971468        4       0.00000000       0.07174173      -0.11672648       0.04407947
Ni       5.13238893       7.36424120       2.13148743        4       1.00000000      -0.16247159      -0.07598784       0.02157594
Ni       7.73937949       7.38296434       2.13645373        4       1.00000000       0.02798378      -0.05850986       0.07969566
Pt      10.29906751       7.38915615       2.04708718        3       0.00000000       0.02124585      -0.14273317      -0.11053470
Ni      12.92142975       7.35234677       2.09309030        4       1.00000000       0.06380195      -0.11309220       0.01104327
Ni       0.03397492       1.53909270       4.30229031        7       1.00000000       0.13692913       0.14001672      -0.21417399
Ni       2.55371975       1.53152382       4.27241505        7       1.00000000      -0.04731829       0.08162082      -0.30355680
Ni       5.14563558       1.49458048       4.28280581        7       1.00000000      -0.09724040       0.04910540      -0.34564669
Ni       7.74030783       1.48522897       4.30016679        7       1.00000000       0.02308607      -0.08825424      -0.27112929
Ni       1.31201698       3.63156021       4.34084299        7       1.00000000       0.06518710      -0.09432160      -0.10815478
Ni       3.81136047       3.66196155       4.26217557        7       1.00000000      -0.09817406      -0.07752158      -0.32384084
Pt       6.49215921       3.62209413       4.25927868        7       0.00000000      -0.03881614       0.00153270      -0.05069880
Ni       9.04227195       3.66731788       4.26244303        7       1.00000000       0.05841703      -0.12091080      -0.42377567
Ni       2.56694904       5.83295778       4.34152449        7       1.00000000      -0.02509237      -0.18446956      -0.03832072
Pt       5.11018941       5.83198758       4.20731803        6       0.00000000      -0.03162538      -0.13761524      -0.12470206
Ni       7.76142345       5.85482322       4.27872208        7       1.00000000      -0.02881431      -0.04283455      -0.33211705
Pt      10.31497257       5.79112214       4.36628677        8       0.00000000       0.07621360      -0.04808121      -0.03042182
Pt       3.85664443       8.10842926       4.27376359        7       0.00000000      -0.02822599       0.00151938       0.06692545
Pt       6.45117156       8.17125020       4.16842307        6       0.00000000      -0.04459205       0.14064752      -0.19478168
Pt       9.01091731       8.14507557       4.24405962        6       0.00000000      -0.11827690       0.10510869      -0.01083578
Pt      11.61653478       8.12787875       4.22650502        6       0.00000000       0.03020773      -0.00619227      -0.06450958
Pt      -0.00294831      -0.00068121       6.54907958       10       0.00000000      -0.02166040       0.18822397       0.38600826
Pt       2.57200266      -0.00577210       6.55987768       11       0.00000000       0.07437017       0.08177329       0.35143906
Pt       5.16622658      -0.06342636       6.54984454       10       0.00000000      -0.03809864       0.13558888       0.45450014
Pt       7.72517342      -0.05195911       6.56365592       11       0.00000000       0.00800839       0.19018516       0.43609592
Ni       1.27605765       2.26296087       6.44677014        9       1.00000000      -0.06578991       0.13223660      -0.33063289
Pt       3.81310753       2.24036250       6.37170705        9       0.00000000       0.01653553      -0.00823151       0.36546824
Ni       6.45805829       2.20178106       6.39749336        9       1.00000000      -0.03023236      -0.07440780       0.11059901
Pt       9.03647173       2.29657324       6.35302112        9       0.00000000       0.02471321      -0.06975832       0.51331270
Ni       2.51921589       4.43894104       6.44636124        9       1.00000000      -0.05122923       0.01859280      -0.38702516
Pt       5.12762387       4.40675983       6.51629930       10       0.00000000      -0.05046348      -0.07192192       0.12834899
Ni       7.77505505       4.41975971       6.38144881        9       1.00000000       0.04619131       0.12814946      -0.00325351
Ni      10.34839556       4.42368877       6.46845905       10       1.00000000       0.06460687      -0.06838319      -0.22267822
Ni       3.81491442       6.58661604       6.47209762       10       1.00000000      -0.06552644      -0.07029976      -0.21406356
Pt       6.49841332       6.57897217       6.41266005        9       0.00000000       0.09101950      -0.08735811       0.50097054
Ni       9.05996293       6.56257869       6.46569258       10       1.00000000       0.00552120      -0.10722782      -0.10453002
Ni      11.61874781       6.55930060       6.47338861       10       1.00000000       0.06549086       0.01328018      -0.16826476
