64
Lattice="9.87879510275101 -0.0026893113614762 -0.02346704477612879 4.937068539417777 8.570743142307476 0.010840304526969258 0.0 0.0 21.240064226369697" Properties=species:S:1:pos:R:3:tags:I:1:initial_magmoms:R:1:forces:R:3 unique_id=5bc1f0603eec4f3ea8beb93555cec5f1 stress="0.003742415987420365 5.135511706207283e-06 -0.00020081651611720012 5.135511706207283e-06 0.0037358235162898573 0.00018853522784518598 -0.00020081651611720012 0.00018853522784518598 -0.0023340510842276363" energy=-357.1888176701497 pbc="T T T"
Ni      -0.00372041       0.00125947       0.04056179        0       1.00000000      -0.02818513       0.01514302      -0.01396362
Ni       2.46452971       0.01218493       0.02940785        0       1.00000000       0.02464718       0.03787834      -0.03959186
Ni       4.93560606       0.00950462       0.01521959        0       1.00000000      -0.00103663       0.02667988       0.07956350
Ni       7.40590170       0.00002249       0.02670752        0       1.00000000      -0.01542124      -0.02807359       0.01552847
Ni       1.23952573       2.13855482       0.03320838        0       1.00000000       0.01371079       0.01270732       0.05083844
Ni       3.70005000       2.14578301       0.02994445        0       1.00000000      -0.00033351       0.00716822       0.10261393
Ni       6.16254488       2.13883498       0.02839020        0       1.00000000      -0.05955885      -0.00133339      -0.03028504
Ni       8.63983889       2.13244695       0.03140299        0       1.00000000       0.03523779       0.03582738      -0.02553113
Ni       2.47896936       4.28796962       0.04328088        0       1.00000000       0.00785821       0.00412129       0.07860430
Ni       4.92477069       4.28520066       0.02823472        0       1.00000000      -0.02314972      -0.00495625       0.10639554
Ni       7.36939718       4.27154361       0.00181935        0       1.00000000      -0.00976087      -0.04644536      -0.21056233
Ni       9.92352783       4.25912635       0.08560026        1       1.00000000       0.10897026      -0.04264338      -0.80032890
Ni       3.69763967       6.43124748       0.03964708        0       1.00000000      -0.01623177      -0.00614168       0.12470085
Ni       6.16087455       6.43402567       0.05313426        1       1.00000000      -0.03424227      -0.00957875      -0.12028583
Ni       8.63690397       6.47014958       0.00000000        0       1.00000000       0.03705353       0.03584785      -0.19770074
Ni      11.11763517       6.43559286       0.02947687        0       1.00000000      -0.01371535      -0.02332253       0.09588572
Ni       1.23718556       0.74475930       2.02178513        2       1.00000000       0.01320783       0.01337537       0.00242455
Ni       3.70166181       0.73265999       2.05226753        3       1.00000000       0.00383441       0.02756164       0.00250602
Ni       6.14792345       0.70755940       2.01792455        2       1.00000000      -0.01604307       0.00273053       0.00547130
Ni       8.65229678       0.69803572       2.01702083        2       1.00000000      -0.00337398      -0.02479526       0.03614367
Ni       2.47578101       2.86289412       2.06123242        3       1.00000000       0.00767971       0.02844904       0.02510366
Ni       4.91679395       2.85622525       2.05650000        3       1.00000000      -0.03242250      -0.00823136       0.00365291
Ni       7.37533089       2.83585249       2.01517390        2       1.00000000      -0.02299990      -0.01789778       0.02130290
Ni       9.90791927       2.81091603       2.04960223        2       1.00000000       0.01976295      -0.02194569       0.05325290
Ni       3.69457562       5.00035667       2.06764606        3       1.00000000       0.00135670       0.00080656       0.03019258
Ni       6.10679494       4.99283830       2.03688101        2       1.00000000      -0.02236920      -0.01663295       0.04122780
Pt       8.66266450       4.99590067       2.01793225        2       0.00000000      -0.05846002       0.04296075       0.00396141
Ni      11.17385022       5.00646166       2.05811209        3       1.00000000       0.05602333       0.02352942       0.05491673
Ni       4.90526186       7.13763676       2.03985546        2       1.00000000      -0.03648540      -0.00535174       0.01858118
Ni       7.39748788       7.19300990       2.01869310        2       1.00000000      -0.00811316       0.01884935       0.04390737
Ni       9.90008944       7.18891858       2.05264287        3       1.00000000       0.01793814       0.01289101       0.03375981
Ni      12.34436381       7.14293990       2.05258068        3       1.00000000      -0.00235599      -0.00389089       0.02882698
Ni       0.00925405       1.49299152       4.13612130        4       1.00000000       0.00731972       0.04118421      -0.03642620
Ni       2.49042062       1.48861393       4.11879168        4       1.00000000      -0.00165936       0.02426712      -0.08187361
Ni       4.88415328       1.44234430       4.11802629        4       1.00000000      -0.01668136       0.00519024      -0.07983945
Pt       7.38216366       1.42075362       4.10962590        4       0.00000000       0.01015773      -0.01224071       0.07912948
Ni       1.26586744       3.57844159       4.10184481        4       1.00000000       0.02670749       0.02691878      -0.04833505
Ni       3.68686264       3.58189253       4.12143360        4       1.00000000      -0.02514649       0.01041935      -0.06974312
Ni       6.09421704       3.56383228       4.12108662        4       1.00000000      -0.04126289      -0.02163401      -0.06121723
Ni       8.66608793       3.54708943       4.11088002        4       1.00000000       0.01988601      -0.00745842      -0.07333722
Ni       2.46222884       5.71518006       4.13694994        4       1.00000000      -0.00407584      -0.03111610      -0.02432495
Ni       4.86014798       5.69313977       4.13346920        4       1.00000000      -0.03201953      -0.00298363      -0.06500524
Pt       7.39264098       5.69098910       4.18014746        5       0.00000000       0.02346507      -0.01256186       0.06828387
Ni       9.93579434       5.75266299       4.11088216        4       1.00000000       0.02029870      -0.00573481      -0.05957324
Ni       3.65138554       7.81971395       4.14286846        4       1.00000000      -0.03479223      -0.02537738      -0.04057963
Pt       6.12961784       7.93041899       4.13373954        4       0.00000000      -0.00093665      -0.00127243       0.06703696
Ni       8.68245446       7.90697547       4.12468316        4       1.00000000      -0.02483298      -0.00234385      -0.06530082
Ni      11.08684159       7.83412458       4.11966563        4       1.00000000       0.00016487      -0.01588502      -0.06542935
Ni      -0.04020174       0.02236265       6.21127815        6       1.00000000      -0.03740648      -0.01924105       0.09201589
Ni       2.48737097       0.03381500       6.19577954        6       1.00000000       0.03402207       0.02438282       0.00717969
Ni       4.93514767       0.02504293       6.15664336        6       1.00000000       0.02627728       0.04958276      -0.08470071
Ni       7.39180471      -0.01653545       6.19030857        6       1.00000000      -0.00200307      -0.01352889       0.03113743
Ni       1.25985824       2.11759829       6.16713707        6       1.00000000      -0.01819027       0.04337859      -0.03067124
Ni       3.69873059       2.15843877       6.16372435        6       1.00000000       0.03480192      -0.01075278      -0.11093631
Ni       6.12666747       2.15431230       6.19325690        6       1.00000000      -0.05047352      -0.04060917       0.01196208
Ni       8.62512181       2.11947888       6.19253222        6       1.00000000       0.05143881       0.05489865       0.12286264
Ni       2.51314256       4.29578129       6.16687168        6       1.00000000      -0.05942368       0.00236174      -0.07877959
Ni       4.91614282       4.29228794       6.16925166        6       1.00000000       0.00611329      -0.00391201      -0.07986262
Ni       7.34540354       4.25031277       6.20029784        6       1.00000000       0.04204611      -0.08517780       0.30782871
Pt       9.88344821       4.29791766       6.18798589        6       0.00000000       0.04710332      -0.01678224       0.41349422
Ni       3.68801319       6.43566993       6.17913121        6       1.00000000       0.02761926       0.00695310      -0.03955923
Ni       6.12790000       6.43763631       6.24006423        6       1.00000000      -0.04053419       0.01494744       0.16236801
Ni       8.64486463       6.50332362       6.19138863        6       1.00000000       0.08231415       0.00848166       0.25389607
Ni      11.13161443       6.48003306       6.15847230        6       1.00000000      -0.01331953      -0.06964066      -0.04281331
