64
Lattice="10.311689230710515 0.018615984155677973 -0.03282667950164637 5.171966530550523 8.888481782706593 -0.008521868853123305 -0.02680287157630461 0.007440150113733129 8.784748072295972" Properties=species:S:1:pos:R:3:tags:I:1:initial_magmoms:R:1:forces:R:3 unique_id=92534d9d21d946eda580da5aae0ac06f stress="0.00023087580601007657 2.0573447234511504e-06 -2.033076170979347e-06 2.0573447234511504e-06 0.00023365526552060478 -2.383959211023018e-06 -2.033076170979347e-06 -2.383959211023018e-06 0.00022874228153180187" energy=-397.1064231809938 pbc="T T T"
Ni      -0.00313815       0.02642818       0.18066287        4       1.00000000      -0.00794221       0.06238281       0.24980903
Ni       2.56695879       0.01373955       0.20594049        4       1.00000000      -0.01886979       0.02802991       0.36838744
Ni       5.15142294       0.00243008       0.14642858        4       1.00000000      -0.06729400       0.11334861       0.23980738
Ni       7.73598349      -0.02963971       0.15706508        4       1.00000000      -0.03651736      -0.13782391       0.33886930
Ni       1.25789575       2.22981577       0.10626003        4       1.00000000      -0.13242999       0.04641346       0.19100437
Pt       3.80664304       2.24268435       0.18288232        4       0.00000000      -0.07436662       0.06403626       0.12453715
Pt       6.46996224       2.18466055       0.09681626        4       0.00000000       0.05847690      -0.02028551      -0.06834495
Ni       9.06749700       2.23655318       0.11793390        4       1.00000000       0.10024746       0.04127993       0.14893947
Ni       2.57667635       4.47348804       0.06881327        4       1.00000000       0.05364914       0.07492411      -0.02081439
Ni       5.12994228       4.47125906       0.17383117        4       1.00000000      -0.02277777       0.02250422       0.34962600
Pt       7.80850838       4.46000466       0.09260435        4       0.00000000       0.06752051      -0.00735402      -0.07948561
Ni      10.34977642       4.44941774       0.05095163        4       1.00000000       0.08321166      -0.03925819       0.10404300
Ni       3.83701693       6.66437362       0.10636865        4       1.00000000      -0.11299949      -0.03142859       0.20130653
Pt       6.41450768       6.71509614       0.18010067        4       0.00000000      -0.12397499       0.01093913       0.09730077
Ni       9.04300155       6.68655269       0.14165756        4       1.00000000      -0.12259505       0.00893205       0.23174842
Ni      11.63663332       6.67822845       0.03852350        4       1.00000000       0.08804407      -0.01576051      -0.02150721
Ni       1.29251346       0.76853792       2.15388843        3       1.00000000      -0.04262056       0.13691270      -0.12442956
Ni       3.85270424       0.76580322       2.19742385        3       1.00000000       0.06241742       0.07207821       0.03873136
Ni       6.43218621       0.78387220       2.20569099        3       1.00000000      -0.02059444       0.15445252       0.13225059
Pt       9.02482735       0.79511738       2.15797376        3       0.00000000      -0.02529384       0.09174396       0.17031826
Ni       2.57125192       2.97446446       2.20973925        3       1.00000000       0.01994374       0.10326379      -0.07466117
Ni       5.14583956       2.98856833       2.22818971        3       1.00000000      -0.10591998       0.01109164       0.01042493
Ni       7.74390421       2.99120846       2.22026964        3       1.00000000       0.07513555       0.05370078      -0.00511853
Ni      10.31294740       2.97656171       2.17663073        3       1.00000000       0.04164898       0.04721922       0.07156655
Ni       3.90184746       5.18423157       2.20572830        3       1.00000000       0.07621891      -0.03395431       0.05553411
Ni       6.43314933       5.18892937       2.22389262        3       1.00000000      -0.01189090       0.07635244      -0.01798253
Ni       9.00313738       5.17123443       2.20862102        3       1.00000000      -0.01608912      -0.10824913       0.12148671
Pt      11.65737467       5.14157041       2.13448629        3       0.00000000       0.11382587      -0.04677207      -0.01839188
Ni       5.12937504       7.37568890       2.19220668        3       1.00000000      -0.19583883      -0.15908785      -0.09628039
Ni       7.73271405       7.40925348       2.17962100        3       1.00000000       0.02010792      -0.12284112      -0.04794345
Pt      10.31557278       7.43286870       2.09106535        3       0.00000000       0.08811731      -0.09901200      -0.01595832
Ni      12.92647811       7.39836640       2.12604485        3       1.00000000       0.06867843      -0.15131876      -0.04443177
Ni      -0.02761070       1.54723889       4.34653505        2       1.00000000      -0.05712912       0.10295265      -0.11100276
Pt       2.52363554       1.59090950       4.24655608        2       0.00000000       0.02145668      -0.00429051       0.00177511
Ni       5.16428684       1.53277403       4.30890333        2       1.00000000      -0.05896001       0.06315044      -0.16872028
Ni       7.73347664       1.52959609       4.32111941        2       1.00000000       0.05540676      -0.02562813      -0.09908306
Ni       1.28481449       3.69791075       4.39054311        2       1.00000000       0.01546893      -0.03132839      -0.07165604
Ni       3.84572124       3.76664150       4.30025153        2       1.00000000      -0.02897918       0.06301226      -0.23838624
Pt       6.45474505       3.70814822       4.27632923        2       0.00000000      -0.06407058       0.00725205      -0.00389692
Ni       9.02134578       3.69694009       4.29961569        2       1.00000000       0.01773378      -0.09947142      -0.30283101
Ni       2.60836437       5.86711188       4.38435974        2       1.00000000       0.04638043      -0.13567765      -0.10552774
Ni       5.11847958       5.88734866       4.29426554        2       1.00000000      -0.01358585      -0.11890536      -0.22391076
Ni       7.72987061       5.88532365       4.29818238        2       1.00000000       0.04307511      -0.04848934      -0.21576403
Pt      10.33348734       5.82260041       4.33923022        2       0.00000000      -0.02101916      -0.00875277       0.00576345
Pt       3.86927697       8.09358334       4.31546944        2       0.00000000      -0.01518339      -0.10456806       0.11222611
Pt       6.42653009       8.12975642       4.21135009        2       0.00000000      -0.05688076      -0.02542941      -0.05520108
Pt       9.00991777       8.16802984       4.27821439        2       0.00000000      -0.00852610      -0.01622797       0.12573407
Pt      11.62433432       8.17720622       4.26931138        2       0.00000000       0.06896075       0.02703841       0.07554730
Pt      -0.02349607       0.03697916       6.56959400        1       0.00000000       0.05619405       0.09427964       0.08181264
Pt       2.54495495       0.04013610       6.58609054        1       0.00000000      -0.00403752       0.00907219       0.20953850
Pt       5.16465672       0.02071904       6.55206738        1       0.00000000       0.08585222      -0.02071587       0.03531523
Pt       7.71814372      -0.00896335       6.55957118        1       0.00000000      -0.03813888      -0.03118092       0.15754401
Ni       1.26030262       2.29916563       6.50208706        1       1.00000000       0.00011694       0.14148273      -0.16780950
Pt       3.82017030       2.29780717       6.44236070        1       0.00000000      -0.14154232       0.06484953      -0.28506832
Ni       6.44905511       2.25591146       6.41366743        1       1.00000000       0.00307559       0.03089313      -0.27076664
Pt       9.01788942       2.34291972       6.46469274        1       0.00000000      -0.00358132       0.09108647       0.00868492
Ni       2.51708274       4.48419834       6.48735962        1       1.00000000      -0.09213780       0.05583135      -0.25462462
Pt       5.10542333       4.46518047       6.50829121        1       0.00000000      -0.05205997       0.06036150       0.09695750
Ni       7.72847224       4.43635210       6.41039960        1       1.00000000      -0.08412558       0.00466768      -0.29752444
Ni      10.36272999       4.43323043       6.48867754        1       1.00000000       0.25093717      -0.05678247      -0.11564550
Ni       3.81009704       6.62819344       6.50445547        1       1.00000000      -0.08593478      -0.08289323      -0.13755752
Pt       6.42454628       6.62965470       6.43462679        1       0.00000000       0.00036853       0.04216219      -0.31545737
Pt       9.06617268       6.56768228       6.54905232        1       0.00000000       0.15982579      -0.19025417       0.09399292
Ni      11.64034730       6.62118169       6.49595808        1       1.00000000       0.12181068      -0.10395634      -0.17479954
