64
Lattice="10.327262294582948 -0.00029642152392537547 0.004276231988807242 5.163374438721528 8.89494996509024 -0.0010865644672540724 0.00349152879811489 -0.00304025789546382 8.795755117642896" Properties=species:S:1:pos:R:3:tags:I:1:initial_magmoms:R:1:forces:R:3 unique_id=2862ac6eb0914c128a49c04c9815c84b stress="0.00024418947122406554 2.783493974694467e-06 -1.4015870157331329e-05 2.783493974694467e-06 0.0002489719896092077 1.3107413974690402e-05 -1.4015870157331329e-05 1.3107413974690402e-05 0.000239277980558332" energy=-398.4100090262474 pbc="T T T"
Ni      -0.02139407       0.02709766       0.20496150        4       1.00000000      -0.07972528       0.11520109       0.31365800
Ni       2.58150220       0.00541179       0.21127498        4       1.00000000       0.01358565       0.00785377       0.38648815
Ni       5.16265406      -0.01144730       0.16504193        4       1.00000000      -0.01734304       0.15260678       0.26137683
Ni       7.77051417      -0.03365220       0.11798485        4       1.00000000       0.07507752      -0.09747063       0.21295801
Ni       1.27180060       2.21715621       0.16975752        4       1.00000000      -0.07808817      -0.06384342       0.23449553
Pt       3.81383778       2.22538337       0.11256546        4       0.00000000      -0.04841277       0.04114785      -0.14000255
Pt       6.48359832       2.16455445       0.19585994        4       0.00000000       0.06902275      -0.09388153       0.18901337
Ni       9.05834770       2.18830650       0.15478435        4       1.00000000       0.01814065      -0.15836941       0.13795094
Ni       2.56248667       4.46368854       0.06133584        4       1.00000000      -0.07118360       0.03579756      -0.03355227
Ni       5.15763891       4.45043537       0.15988302        4       1.00000000       0.17668111      -0.08230245       0.20386122
Pt       7.81950430       4.45813310       0.10721024        4       0.00000000       0.16547259      -0.02313669      -0.10048666
Ni      10.35631837       4.45867550       0.06271375        4       1.00000000       0.11887597       0.00651228       0.01581220
Ni       3.84032844       6.70235836       0.17463116        4       1.00000000      -0.04764669       0.15713954       0.20545021
Pt       6.43424039       6.72492184       0.20164964        4       0.00000000      -0.05754254       0.05391035       0.15507184
Ni       9.06083748       6.68514026       0.07777268        4       1.00000000       0.00063919       0.02946935      -0.00174756
Ni      11.63277845       6.68044313       0.06329552        4       1.00000000       0.10978168       0.04381213      -0.02316885
Ni       1.29104947       0.73056536       2.16273591        3       1.00000000      -0.02536031       0.03494424      -0.04295552
Ni       3.86583677       0.75985848       2.20675668        3       1.00000000       0.04982965       0.04760333       0.05621681
Ni       6.48168965       0.74368282       2.24643732        3       1.00000000       0.07807467       0.03042544       0.15802502
Ni       9.01412963       0.72985401       2.18525734        3       1.00000000      -0.13655549       0.03303294      -0.04473453
Ni       2.58536971       2.94936587       2.20738476        3       1.00000000      -0.06380204       0.06861193      -0.05299777
Ni       5.15915143       2.93601584       2.24076385        3       1.00000000      -0.07544876      -0.16271507       0.04176237
Ni       7.75810028       2.94524348       2.23988428        3       1.00000000       0.10658061      -0.10070795      -0.06606271
Pt      10.29199538       2.91188846       2.22922289        3       0.00000000      -0.02575811       0.00590191       0.08473346
Pt       3.88831062       5.16614006       2.16163395        3       0.00000000      -0.03389987      -0.05863673       0.01447122
Ni       6.49375799       5.17613669       2.22033759        3       1.00000000       0.12732702       0.02223405      -0.05585936
Ni       9.00862737       5.19092391       2.25305689        3       1.00000000      -0.02641416      -0.01606380       0.17028442
Pt      11.61056399       5.17861719       2.21681735        3       0.00000000      -0.07292709      -0.01617788       0.00851845
Ni       5.14271616       7.45661897       2.18599795        3       1.00000000      -0.11989431       0.06018545      -0.06266889
Ni       7.74973873       7.41177973       2.20739350        3       1.00000000       0.03288397      -0.08420135      -0.00156753
Pt      10.30504470       7.42883973       2.12607564        3       0.00000000       0.00735740      -0.06948443      -0.02378187
Ni      12.92292428       7.44669724       2.16791449        3       1.00000000      -0.06432701       0.01014218      -0.07209121
Ni      -0.01633702       1.53605873       4.34986024        2       1.00000000       0.02084795       0.12917243       0.00793286
Pt       2.60549363       1.58134378       4.28320405        2       0.00000000      -0.07037518       0.06583769      -0.03798673
Ni       5.16357279       1.49782801       4.32735864        2       1.00000000       0.02857564      -0.02630973      -0.19672568
Ni       7.76837921       1.49575000       4.31883295        2       1.00000000       0.08593201       0.05026428      -0.22203721
Ni       1.27300706       3.75935883       4.38277793        2       1.00000000      -0.06253412       0.08378092      -0.05201340
Ni       3.84827087       3.70701038       4.36509805        2       1.00000000      -0.01154524       0.07754886      -0.15647852
Pt       6.51655022       3.67115905       4.26324293        2       0.00000000      -0.00562194      -0.07214818       0.07013318
Ni       9.07105029       3.73385748       4.36553369        2       1.00000000       0.11936484       0.07114628      -0.13927729
Ni       2.53346169       5.87312788       4.39078763        2       1.00000000      -0.07934481      -0.06804346      -0.05746002
Pt       5.14470919       5.89617745       4.30545741        2       0.00000000       0.03928372       0.04448120       0.07216351
Ni       7.81442758       5.87554284       4.34132858        2       1.00000000       0.10293350      -0.08937312      -0.19129457
Ni      10.32356403       5.86635142       4.41499995        2       1.00000000      -0.00575543      -0.06272301      -0.08755046
Pt       3.84839442       8.20981052       4.27429642        2       0.00000000       0.00668238       0.03490879      -0.00629126
Pt       6.45669526       8.18299863       4.25030088        2       0.00000000      -0.00277495       0.05439122       0.03851950
Pt       9.04356654       8.09440642       4.33141898        2       0.00000000      -0.02430280      -0.00227049       0.09874279
Pt      11.63849877       8.14044094       4.35061216        2       0.00000000       0.00576820      -0.05505005      -0.03254831
Pt      -0.03357064       0.01009107       6.58205733        1       0.00000000      -0.02167012       0.01759690       0.19193380
Pt       2.62170171       0.01333285       6.60372297        1       0.00000000       0.01177722       0.04761730       0.23194945
Pt       5.20744317      -0.07667783       6.59024234        1       0.00000000       0.03596293      -0.27565257       0.14597897
Ni       7.73636688      -0.01151905       6.54115092        1       1.00000000       0.04605511       0.03348236      -0.11429904
Pt       1.32114383       2.34361864       6.54628224        1       0.00000000       0.03452265       0.12420750       0.13828419
Ni       3.87014115       2.23658406       6.45018388        1       1.00000000       0.01771269      -0.07413322      -0.29893361
Pt       6.45899545       2.18661528       6.46085889        1       0.00000000      -0.01342581      -0.02905035      -0.24778375
Pt       9.03284055       2.29883106       6.50244528        1       0.00000000       0.04840686       0.12881458       0.00954369
Ni       2.53806424       4.46362069       6.49762664        1       1.00000000      -0.15340268       0.12267101      -0.28210196
Pt       5.09725094       4.38980137       6.55585811        1       0.00000000      -0.12516173      -0.02343439       0.04381730
Ni       7.80001399       4.46138948       6.43849420        1       1.00000000       0.07559855       0.02776789      -0.30759882
Ni      10.33092666       4.51265376       6.49283135        1       1.00000000      -0.01358230       0.14767429      -0.23601086
Pt       3.74322265       6.65320058       6.57292338        1       0.00000000      -0.13919866       0.06268498       0.12929397
Pt       6.53122457       6.60382764       6.48495084        1       0.00000000       0.04724989      -0.04791512      -0.21167272
Ni       9.08563728       6.59693954       6.51582426        1       1.00000000       0.06300236      -0.17913299      -0.21076066
Ni      11.58386913       6.60615280       6.52137269        1       1.00000000      -0.16598192      -0.24835259      -0.21793910
