64
Lattice="10.332300595064325 0.0006747743788263872 0.037655462250073296 5.166734669286043 8.901456795086313 -0.007631546551168897 0.0 0.0 21.612904629121367" Properties=species:S:1:pos:R:3:tags:I:1:initial_magmoms:R:1:forces:R:3 unique_id=229f05c0be754fec944e5e0056181009 stress="0.0013322803451960002 0.00021618006725452818 0.0004359093793276689 0.00021618006725452818 0.0015413519324367058 -2.677054075291039e-05 0.0004359093793276689 -2.677054075291039e-05 -0.006029866430789238" energy=-377.7607734265247 pbc="T T T"
Ni       0.01731059      -0.00575296       0.14968636        1       1.00000000       0.08298443      -0.01496559      -0.20822633
Ni       2.55785538       0.01270637       0.18555842        2       1.00000000      -0.00152915       0.04345954      -0.21704707
Pt       5.16190276      -0.04093504       0.12197662        1       0.00000000      -0.00914456       0.32520389      -1.05239338
Ni       7.77531884      -0.05498411       0.17671217        2       1.00000000      -0.07175232      -0.04725726      -0.26694954
Ni       1.30254339       2.23196453       0.06484745        1       1.00000000       0.00369329       0.04658631       0.36662990
Pt       3.79853240       2.27710419       0.15503433        2       0.00000000       0.11660543      -0.05422476      -0.52979137
Pt       6.47097723       2.23443288       0.08324729        1       0.00000000       0.05605094      -0.07333385      -0.07346483
Pt       9.14385583       2.22564680       0.09778461        1       0.00000000      -0.02632965       0.14688085      -0.50590538
Ni       2.55999680       4.47673591       0.00000000        0       1.00000000       0.02657577      -0.03277113       0.19475710
Ni       5.16312070       4.46816760       0.12501311        1       1.00000000       0.10357101       0.02266847      -0.37501662
Pt       7.80562697       4.50776290       0.06357739        1       0.00000000       0.03039347      -0.00495983       0.00312582
Ni      10.38265487       4.47496264       0.04486448        0       1.00000000       0.02346489      -0.03485664       0.17210697
Ni       3.84014010       6.68808753       0.03992388        0       1.00000000       0.04079678       0.06545457       0.28729666
Pt       6.42978895       6.72939093       0.15794172        2       0.00000000      -0.04311753       0.02290139      -0.61436457
Ni       9.06129365       6.66473697       0.05298855        1       1.00000000      -0.05616396       0.02830341       0.08916593
Ni      11.65995774       6.64218236       0.04236919        0       1.00000000       0.05837002       0.07641561       0.22255808
Ni       1.30972440       0.76395384       2.12413732        3       1.00000000       0.00517395       0.09896639       0.07064502
Ni       3.86392459       0.75978348       2.19735234        4       1.00000000       0.00966563      -0.00546242       0.27482078
Ni       6.46218112       0.77987109       2.22834633        4       1.00000000      -0.00560810       0.15032931       0.26523106
Pt       9.05401807       0.75073980       2.22835804        4       0.00000000      -0.03183392      -0.02748044       0.18283205
Ni       2.55476738       2.94606611       2.19041933        4       1.00000000      -0.07128696      -0.05384075       0.10116017
Ni       5.18047383       2.93564246       2.22850827        4       1.00000000       0.02854334      -0.07885279       0.23651866
Ni       7.77368920       2.98017320       2.22564227        4       1.00000000       0.03047466       0.02589151       0.16700502
Ni      10.35425032       2.95165379       2.24896295        4       1.00000000       0.00534619      -0.05793274       0.15467749
Pt       3.89642742       5.16258684       2.12259442        3       0.00000000       0.04321318      -0.04889813       0.04339380
Ni       6.50540733       5.17506962       2.19718469        4       1.00000000       0.07940728      -0.09929204       0.18636091
Ni       9.01284633       5.15069796       2.22239879        4       1.00000000      -0.06474456      -0.17383688       0.16131161
Pt      11.61865011       5.10503215       2.16329882        4       0.00000000      -0.04160595      -0.08485294       0.07121163
Ni       5.16172240       7.41982587       2.15407894        4       1.00000000      -0.12289562       0.01604230       0.15237332
Ni       7.75342418       7.40362205       2.16620656        4       1.00000000       0.04696412      -0.02926760       0.14706095
Pt      10.30999277       7.35788647       2.15306213        4       0.00000000      -0.01714764      -0.23193551       0.03797378
Ni      12.93308185       7.39854146       2.14846829        3       1.00000000      -0.00902835      -0.01275288       0.06039967
Ni       0.01309435       1.54951724       4.30275409        6       1.00000000       0.01631131       0.03469119      -0.19459541
Pt       2.56374026       1.57363589       4.24418125        5       0.00000000      -0.07908976      -0.04655524      -0.09958955
Ni       5.19269711       1.50306449       4.30729218        6       1.00000000      -0.02162311       0.02359592      -0.32489270
Ni       7.76999667       1.49340361       4.33430035        6       1.00000000      -0.02350685      -0.08374198      -0.27033764
Ni       1.29710748       3.69133579       4.36081486        7       1.00000000      -0.03061295      -0.01511081      -0.03950652
Ni       3.86011885       3.71273104       4.30902848        6       1.00000000      -0.02809512       0.02467162      -0.22705663
Pt       6.52489900       3.63941175       4.29511516        6       0.00000000      -0.00377679      -0.02789491      -0.11798950
Ni       9.06984440       3.67981255       4.29760921        6       1.00000000       0.02949223      -0.06322416      -0.35255664
Ni       2.58171050       5.86244991       4.37959562        7       1.00000000       0.00825787      -0.11915140      -0.04532079
Pt       5.16287556       5.86960287       4.29715550        6       0.00000000      -0.05048607      -0.07747517      -0.15451450
Ni       7.78873586       5.86751703       4.31644163        6       1.00000000      -0.01101555      -0.05825347      -0.29274287
Pt      10.34081456       5.81580256       4.43375420        7       0.00000000       0.01205247       0.02312091      -0.02467013
Pt       3.87742052       8.14562646       4.31042174        6       0.00000000       0.01767729       0.03915540      -0.05249191
Pt       6.46303305       8.16978296       4.21276621        5       0.00000000      -0.06795852       0.14005333      -0.26788994
Pt       9.02799304       8.14099229       4.30426068        6       0.00000000      -0.12065475      -0.01804616      -0.16823951
Pt      11.66514860       8.15889109       4.28040317        6       0.00000000      -0.00137478      -0.08627533      -0.22134856
Pt       0.01953621       0.00745807       6.57222722       10       0.00000000      -0.04281485       0.19774859       0.25362968
Pt       2.59897945      -0.00309011       6.60808825       10       0.00000000       0.08906362       0.03139916       0.38621012
Pt       5.19676954      -0.04966092       6.46526996        9       0.00000000      -0.07698162       0.21984982       1.17879235
Pt       7.75483156      -0.04794359       6.61290463       10       0.00000000       0.03649501       0.22644931       0.33449182
Ni       1.29448555       2.28821913       6.48185878        9       1.00000000      -0.08750966       0.08556191      -0.25988677
Pt       3.85207299       2.26890611       6.43900214        8       0.00000000       0.16269573       0.02076925       0.57292546
Ni       6.49464160       2.22090196       6.43446103        8       1.00000000      -0.03720408      -0.07032902       0.12744900
Pt       9.06730731       2.31657566       6.39780331        8       0.00000000      -0.00290755      -0.11252855       0.54877614
Ni       2.54095381       4.47063455       6.46952425        9       1.00000000      -0.00388615      -0.03253465      -0.32705202
Pt       5.16354182       4.43348533       6.56086277       10       0.00000000      -0.02538566      -0.09916648       0.26776656
Ni       7.80937703       4.44820595       6.42243569        8       1.00000000       0.03616625       0.10084156      -0.01256838
Ni      10.38629252       4.44924263       6.53232270        9       1.00000000      -0.00024817      -0.08099048      -0.20595972
Ni       3.83802857       6.61855242       6.50466380        9       1.00000000      -0.03972006      -0.03060381      -0.17372865
Pt       6.53391458       6.61359015       6.46460657        9       0.00000000       0.13843506      -0.05714298       0.61722529
Ni       9.09657802       6.58597980       6.52593565        9       1.00000000      -0.02357656      -0.04253962      -0.07013830
Ni      11.65968048       6.59028937       6.53306203        9       1.00000000       0.01267565       0.05132690      -0.18964705
