64
Lattice="10.167202400233215 0.02976836536595704 -0.02230937094547991 5.109381360752716 8.799439271781555 -0.006285427459867626 -0.0182155250996329 0.0045907804803320485 8.686463329810445" Properties=species:S:1:pos:R:3:tags:I:1:initial_magmoms:R:1:forces:R:3 unique_id=f12c83c8aa5d44f790122656ffcfb33b stress="-7.68413627956141e-05 1.1373165001318341e-06 9.37639602414665e-06 1.1373165001318341e-06 -6.381365223217389e-05 6.973959494478618e-07 9.37639602414665e-06 6.973959494478618e-07 -1.9763839028019703e-05" energy=-390.71904886679533 pbc="T T T"
Ni       0.02667819      -0.04051135       0.18307601        4       1.00000000       0.06834273      -0.07359778       0.27458614
Ni       2.48637106       0.00588549       0.18516334        4       1.00000000      -0.05738486       0.00111369       0.17321339
Pt       5.13702558       0.00299947       0.19001917        4       0.00000000       0.04643111      -0.01554410       0.33375444
Ni       7.64645465      -0.01812471       0.14219203        4       1.00000000       0.07975798      -0.12680430       0.17013904
Ni       1.27098569       2.21319682       0.11976376        4       1.00000000      -0.01749432       0.04933250       0.26112581
Pt       3.77899485       2.27344231       0.18814596        4       0.00000000      -0.09009633       0.08603135       0.23810610
Ni       6.36561611       2.25409761       0.10685713        4       1.00000000      -0.03560996       0.09693437       0.24184422
Pt       8.90445555       2.27074498       0.13208131        4       0.00000000       0.01371348      -0.01168612       0.28670625
Ni       2.52741339       4.44370692       0.10905005        4       1.00000000      -0.01522997       0.11306581       0.20383513
Ni       5.10761545       4.44847613       0.19166401        4       1.00000000      -0.09166323       0.12427595       0.27690036
Ni       7.58417084       4.41302177       0.10113638        4       1.00000000      -0.18268807       0.02418884       0.20618023
Ni      10.23064829       4.41852504       0.09189214        4       1.00000000       0.16134592       0.03934122       0.20246478
Ni       3.82906481       6.58594527       0.11027220        4       1.00000000      -0.00412546      -0.03363756       0.18331303
Ni       6.32564423       6.60119744       0.11107925        4       1.00000000      -0.12067113       0.01869957       0.14848245
Pt       8.88336760       6.55497906       0.18744556        4       0.00000000      -0.05408330      -0.06459339       0.31817905
Ni      11.50576510       6.58205094       0.09450772        4       1.00000000       0.05243668      -0.04925966       0.20322099
Ni       1.30819356       0.73417249       2.16846166        3       1.00000000      -0.02412921       0.06392383       0.01938581
Ni       3.75677707       0.71807754       2.20592911        3       1.00000000      -0.15196881      -0.08247547      -0.12279676
Ni       6.36891434       0.75516950       2.19679201        3       1.00000000       0.07392700      -0.04922674      -0.05054502
Pt       8.87334207       0.68500012       2.19828531        3       0.00000000       0.04041191      -0.03592319      -0.07316838
Ni       2.51169910       2.97204129       2.24144026        3       1.00000000      -0.02232820       0.12061297       0.11503324
Ni       5.09566796       2.98468793       2.16988443        3       1.00000000      -0.08848712       0.14851184      -0.06918016
Ni       7.60713094       2.98671247       2.17989869        3       1.00000000       0.07522131      -0.01297326       0.02683499
Ni      10.21741504       3.01478435       2.17897252        3       1.00000000       0.08806054       0.07894502       0.01455749
Ni       3.80876962       5.14481547       2.18384856        3       1.00000000      -0.09207536       0.01663211       0.07980385
Ni       6.34759436       5.16206358       2.12474585        3       1.00000000      -0.03450697       0.09409966      -0.03387906
Ni       8.93312538       5.10535704       2.19671400        3       1.00000000       0.14929063      -0.12534356      -0.02847025
Ni      11.45779161       5.16016209       2.17085738        3       1.00000000       0.05249190       0.01466580       0.09270229
Ni       5.11298554       7.28451189       2.18161851        3       1.00000000      -0.03203088      -0.17701438       0.09173882
Ni       7.60832430       7.37520989       2.18529879        3       1.00000000      -0.09306589       0.10184642      -0.08600155
Ni      10.21239344       7.31828624       2.25138594        3       1.00000000       0.01764016      -0.11213205       0.08093837
Ni      12.70984240       7.29927534       2.17014737        3       1.00000000      -0.01944657      -0.23703711       0.06232516
Pt       0.06536688       1.49633694       4.26165421        2       0.00000000       0.03277232       0.08694057       0.13102499
Ni       2.53002584       1.48589743       4.24274645        2       1.00000000       0.11260753       0.03366488      -0.17755306
Pt       5.06549543       1.44845738       4.17768710        2       0.00000000      -0.08174677      -0.05620516       0.08846785
Ni       7.61801606       1.45822797       4.27498318        2       1.00000000       0.03123999      -0.06767919      -0.04639303
Ni       1.29793004       3.71552915       4.31043245        2       1.00000000       0.08981387       0.12571656      -0.12714520
Ni       3.75243982       3.73784147       4.24840200        2       1.00000000      -0.01993792       0.15050914      -0.17151831
Pt       6.36775450       3.67871111       4.24797159        2       0.00000000      -0.06698812       0.05229457       0.06016499
Ni       8.94878403       3.73928315       4.24746729        2       1.00000000       0.14481078       0.10356214      -0.17268670
Ni       2.54634110       5.85982548       4.30486953        2       1.00000000       0.01894852      -0.02639308      -0.20436857
Ni       5.03370844       5.91350906       4.27369247        2       1.00000000      -0.08463346      -0.01465925      -0.18717414
Pt       7.62630225       5.91675543       4.20130562        2       0.00000000       0.08042399       0.07603735       0.03072407
Ni      10.24548272       5.86975793       4.25355644        2       1.00000000       0.09632495      -0.04211696      -0.14201409
Ni       3.81379005       7.99865712       4.28302372        2       1.00000000      -0.01298362      -0.17015955      -0.05409203
Ni       6.35739196       8.05848069       4.24121649        2       1.00000000      -0.08163789       0.04884847      -0.19705543
Ni       8.90815906       8.07246225       4.22490301        2       1.00000000       0.00587592      -0.05914220      -0.12647350
Ni      11.47935774       8.01147533       4.22595679        2       1.00000000       0.05552960      -0.11754132      -0.12344858
Pt      -0.01790290      -0.06805543       6.46527411        1       0.00000000       0.09394650      -0.07591206       0.10943989
Pt       2.50946890       0.00145872       6.41373837        1       0.00000000      -0.08774552      -0.03188694      -0.04287690
Pt       5.09457737      -0.01163378       6.36322326        1       0.00000000       0.07079658      -0.00502510      -0.30261603
Pt       7.61566635      -0.03083411       6.40269340        1       0.00000000      -0.11954767      -0.05456285      -0.02593382
Ni       1.25375933       2.26628644       6.43095444        1       1.00000000      -0.01159983       0.06252296      -0.09421094
Pt       3.75088657       2.29517105       6.35740541        1       0.00000000      -0.06968397       0.10813525      -0.31231004
Ni       6.35322950       2.24061401       6.42865306        1       1.00000000      -0.08671048       0.00216525      -0.13664233
Pt       8.87882055       2.32780105       6.34601154        1       0.00000000      -0.01661362       0.08889327      -0.34847266
Ni       2.48728371       4.45376910       6.40547548        1       1.00000000      -0.01424891       0.07782969      -0.19549295
Pt       5.08677788       4.49356865       6.46729673        1       0.00000000      -0.02375048       0.07929062       0.17675590
Ni       7.61232204       4.42778530       6.43436144        1       1.00000000      -0.07892522       0.03486551      -0.13266242
Ni      10.23756782       4.42346040       6.39322262        1       1.00000000       0.20833789      -0.05806805      -0.21058172
Ni       3.78396830       6.56653451       6.40731573        1       1.00000000      -0.13283444      -0.06337886      -0.21496973
Ni       6.35934363       6.59131949       6.42275149        1       1.00000000       0.09900118       0.02390643      -0.20018107
Pt       8.94535581       6.50899721       6.37167444        1       0.00000000       0.09032996      -0.22339230      -0.27371546
Ni      11.49065420       6.55150817       6.38515679        1       1.00000000       0.06684266      -0.07403206      -0.21731920
