64
Lattice="10.265893825709794 -0.0016339558106798595 0.0014332314265849515 5.13153186561419 8.868616066061069 1.1323145295768177e-05 0.0011702285594847798 -0.0006649562100679466 8.774930875953773" Properties=species:S:1:pos:R:3:tags:I:1:initial_magmoms:R:1:forces:R:3 unique_id=241c6462ea124705b2522413184c5308 stress="0.00022100238730720506 4.885445334494136e-06 -1.88051461664653e-05 4.885445334494136e-06 0.0002210093072678443 -1.2263044976237169e-05 -1.88051461664653e-05 -1.2263044976237169e-05 0.00021735163284497538" energy=-396.3758921584508 pbc="T T T"
Ni       0.01068437      -0.00444153       0.17997300        4       1.00000000      -0.00155600       0.01341558       0.33225944
Ni       2.56381034       0.00379559       0.21298813        4       1.00000000       0.01505033       0.00313027       0.42859317
Ni       5.12484864      -0.01601670       0.16472813        4       1.00000000      -0.05781257       0.11654453       0.23407515
Ni       7.69437664      -0.06294413       0.18952804        4       1.00000000      -0.02521177      -0.10691322       0.36405879
Ni       1.29279672       2.22573889       0.10764696        4       1.00000000       0.02566430       0.04550365       0.23616415
Pt       3.78170831       2.23018074       0.19244306        4       0.00000000      -0.00455408       0.06320672       0.15557160
Pt       6.40038719       2.17573817       0.11609950        4       0.00000000       0.04256886       0.00314727      -0.04438385
Pt       9.06962745       2.21819973       0.12156930        4       0.00000000       0.12164356      -0.03138135       0.13902956
Ni       2.56105276       4.46420466       0.07366182        4       1.00000000       0.07250891       0.09249256       0.01442136
Ni       5.09328691       4.45975872       0.19125416        4       1.00000000      -0.04149492       0.04320343       0.35842014
Pt       7.73621748       4.48597075       0.10488402        4       0.00000000       0.03381448       0.08074187      -0.07193132
Ni      10.31312099       4.46372404       0.07540196        4       1.00000000       0.12690951       0.09961369       0.13186699
Ni       3.80828178       6.64676151       0.11379983        4       1.00000000      -0.08125627      -0.03804083       0.22353901
Pt       6.37731193       6.70675233       0.18204481        4       0.00000000      -0.08309494       0.02754978       0.05195692
Ni       9.00831936       6.67016959       0.07487576        4       1.00000000      -0.02267446       0.06136167       0.02443640
Ni      11.57141284       6.64695976       0.06763176        4       1.00000000       0.11258945      -0.00769923       0.00112793
Ni       1.29666390       0.73512685       2.18319017        3       1.00000000      -0.05376550      -0.01895861      -0.02980515
Ni       3.83783874       0.75150100       2.21148512        3       1.00000000       0.04598553       0.05245802       0.04662594
Ni       6.40343561       0.76871568       2.22565096        3       1.00000000      -0.05374640       0.13486727       0.11204841
Pt       8.99416013       0.72895889       2.24494329        3       0.00000000      -0.00859152       0.14979402      -0.04387933
Ni       2.55957728       2.96141388       2.22781190        3       1.00000000       0.02156202       0.09036771      -0.01857416
Ni       5.11805098       2.97503366       2.24791489        3       1.00000000      -0.12970774       0.00521776       0.02936690
Ni       7.69939982       2.97406530       2.24791915        3       1.00000000       0.09877853       0.00659952      -0.08770387
Ni      10.28964093       2.95661548       2.25272729        3       1.00000000       0.05638687      -0.02468524       0.12478858
Ni       3.88407541       5.17155608       2.21517782        3       1.00000000       0.07537046      -0.00499213       0.09735288
Ni       6.39687727       5.17895718       2.24031165        3       1.00000000      -0.01418382       0.09484978      -0.04315741
Ni       8.95699135       5.15381093       2.23225151        3       1.00000000      -0.04008453      -0.07013299       0.08045325
Pt      11.60071850       5.11878411       2.17826207        3       0.00000000       0.09983189      -0.03325754       0.05051145
Ni       5.13407463       7.35842847       2.23531843        3       1.00000000       0.02878993      -0.13556165       0.03979571
Ni       7.66399074       7.39185638       2.22654728        3       1.00000000      -0.15488248      -0.08634304       0.02998544
Pt      10.24295208       7.39409242       2.11722150        3       0.00000000      -0.02312868      -0.13423511      -0.05360653
Ni      12.86266156       7.35498155       2.16641786        3       1.00000000       0.09921257      -0.17827152       0.00671413
Ni       0.00417340       1.52069705       4.32881236        2       1.00000000      -0.05074916       0.05909365      -0.09444405
Pt       2.50105433       1.54077428       4.25292539        2       0.00000000       0.02243204      -0.04040211       0.07480747
Ni       5.14347435       1.50594481       4.32225439        2       1.00000000      -0.09413534       0.00969447      -0.14167905
Ni       7.70102997       1.50349975       4.33325166        2       1.00000000       0.00605234      -0.03094125      -0.09751185
Ni       1.28331851       3.68862877       4.38485117        2       1.00000000      -0.01430989       0.00381449      -0.03530735
Ni       3.82926855       3.74710505       4.30521801        2       1.00000000      -0.03992872       0.06237758      -0.19637415
Pt       6.43124198       3.69489473       4.29248057        2       0.00000000      -0.07981072      -0.00592970       0.04613805
Ni       8.98789067       3.68506306       4.30114560        2       1.00000000      -0.00268843      -0.09092716      -0.35245257
Ni       2.59887573       5.85456225       4.38302570        2       1.00000000       0.03788525      -0.12500319      -0.08189759
Ni       5.12365697       5.88837624       4.29925736        2       1.00000000       0.06556143      -0.16390108      -0.20178378
Ni       7.68571124       5.88389520       4.31296196        2       1.00000000      -0.04219290      -0.05448490      -0.28865967
Pt      10.26037146       5.81308649       4.41815511        2       0.00000000       0.00428807      -0.00982000      -0.05094345
Pt       3.91241493       8.05789243       4.32577955        2       0.00000000       0.00416942      -0.13133942       0.22807960
Ni       6.40613137       8.11047566       4.29145103        2       1.00000000      -0.02501646      -0.03712335      -0.19421254
Pt       8.91377795       8.10770904       4.30736000        2       0.00000000      -0.06192526       0.03624297       0.12775763
Pt      11.57556538       8.13819639       4.28923960        2       0.00000000       0.06926564       0.00924326       0.04895038
Pt       0.00904271       0.02167154       6.53733582        1       0.00000000       0.04103122       0.07950682       0.10916181
Pt       2.56069573       0.00201062       6.57590228        1       0.00000000       0.00544969       0.04385100       0.23656546
Pt       5.14263986      -0.04780767       6.56138434        1       0.00000000       0.06559084      -0.12180194       0.02209988
Pt       7.69911002      -0.03670106       6.57317307        1       0.00000000      -0.06443286      -0.05038776       0.16432702
Ni       1.26988816       2.28865727       6.49203538        1       1.00000000      -0.03883796       0.20002693      -0.16840768
Pt       3.81734158       2.26995265       6.43865976        1       0.00000000      -0.07806695       0.07006345      -0.27602357
Ni       6.43088527       2.23115547       6.42236729        1       1.00000000      -0.02078494       0.01091637      -0.27217328
Pt       8.99179927       2.31743308       6.38628414        1       0.00000000      -0.03887016       0.12331321      -0.37248243
Ni       2.50948197       4.46936025       6.48203842        1       1.00000000      -0.13120490       0.04473949      -0.23909955
Pt       5.09737292       4.45562626       6.51773655        1       0.00000000      -0.05377179       0.03566722       0.12646110
Ni       7.73552458       4.44613253       6.41805825        1       1.00000000       0.06952206       0.08887819      -0.32454970
Ni      10.29694202       4.44580697       6.51340731        1       1.00000000       0.09391379       0.00783069      -0.05254671
Ni       3.80069267       6.60731120       6.50244744        1       1.00000000      -0.10258022      -0.09209753      -0.09899555
Pt       6.45131857       6.60694823       6.40233703        1       0.00000000       0.05538184       0.03474049      -0.30683446
Ni       9.01170567       6.57986714       6.51651071        1       1.00000000       0.06214076      -0.17437290      -0.12882040
Ni      11.56167909       6.57940034       6.52352724        1       1.00000000       0.05570075      -0.10506065      -0.12927069
