64
Lattice="10.294097216843804 0.0034696365734517573 -0.014317143595230111 5.15005340183641 8.910888030460727 -0.01642406499418788 0.0 0.0 21.535846241846954" Properties=species:S:1:pos:R:3:tags:I:1:initial_magmoms:R:1:forces:R:3 unique_id=637c5ef76a394bda821a18c09b1c1f1d energy=-376.2891482966189 stress="0.005754113055168167 0.0002136227539320117 -4.283398559720964e-06 0.0002136227539320117 0.006011803255317582 -2.2261646795615416e-06 -4.283398559720964e-06 -2.2261646795615416e-06 -0.0012145789611665916" pbc="T T T"
Ni       0.00916803      -0.00741385       0.12396510        1       1.00000000       0.06981537      -0.00602057      -0.02375181
Ni       2.53717387       0.01073740       0.14765697        1       1.00000000      -0.06765551       0.05356707      -0.02772454
Pt       5.13823981      -0.03530453       0.07838255        1       0.00000000      -0.07232116       0.16969670      -0.87650825
Ni       7.74273980      -0.05412743       0.11617268        1       1.00000000      -0.04026441      -0.11098350      -0.14107539
Ni       1.29082544       2.23486941       0.04828850        0       1.00000000      -0.00715925       0.03929008       0.40663463
Pt       3.77670292       2.28246682       0.13356903        1       0.00000000       0.06714769      -0.00703491      -0.44782994
Pt       6.43450791       2.23844172       0.05587951        1       0.00000000       0.02478897       0.00955655      -0.05811825
Pt       9.09757292       2.22766141       0.05549273        1       0.00000000      -0.00165976       0.12337460      -0.42504823
Ni       2.56544996       4.48754000       0.01054733        0       1.00000000       0.11321639       0.01792391       0.28217495
Ni       5.10767913       4.48830542       0.12102074        1       1.00000000      -0.11424479       0.13001683       0.12596588
Pt       7.75873054       4.50875112       0.04419726        0       0.00000000       0.00949678       0.06484615      -0.00673063
Ni      10.34232385       4.47649777       0.00412610        0       1.00000000       0.06247913      -0.00612676       0.26072900
Ni       3.82181737       6.67421771       0.04645089        0       1.00000000      -0.01787969      -0.04777486       0.49315953
Pt       6.38689496       6.73392769       0.11941587        1       0.00000000      -0.09007330       0.04849194      -0.28379377
Ni       9.01838612       6.67082925       0.09654035        1       1.00000000      -0.11862855      -0.02723664      -0.27758324
Ni      11.61841557       6.65314111       0.00000000        0       1.00000000       0.06986319       0.07241500       0.24190442
Ni       1.29430167       0.73764155       2.13992843        2       1.00000000      -0.02604202      -0.00357047       0.03224893
Ni       3.83434580       0.76589290       2.17159091        3       1.00000000       0.02348014       0.00196208       0.21756428
Ni       6.43148850       0.78423561       2.18951642        3       1.00000000      -0.04607251       0.20350750       0.25628489
Pt       9.02094574       0.73401869       2.18715212        3       0.00000000       0.01409184       0.08630699       0.02268246
Ni       2.56339862       2.97238149       2.18440340        3       1.00000000       0.03869080       0.03750570       0.06929638
Ni       5.13045864       2.99211494       2.19407041        3       1.00000000      -0.08591681       0.03574859       0.19099880
Ni       7.72262694       2.99090738       2.19570653        3       1.00000000       0.06668771       0.00813433       0.19710755
Ni      10.31448003       2.97051136       2.19005416        3       1.00000000       0.04466746      -0.06654312       0.22585898
Ni       3.89471387       5.19281896       2.16110268        3       1.00000000       0.14143261      -0.02379318       0.13196123
Ni       6.41452366       5.20284609       2.18593796        3       1.00000000      -0.04488454       0.03351611       0.17087705
Ni       8.97529353       5.16702061       2.17153796        3       1.00000000      -0.10936762      -0.21826786       0.23234504
Pt      11.64406367       5.12971755       2.10442239        2       0.00000000       0.14414529      -0.09623483       0.05658878
Ni       5.14893693       7.39383456       2.17685424        3       1.00000000       0.00697227      -0.14469333       0.19326986
Ni       7.67600409       7.42524890       2.16049567        3       1.00000000      -0.14843533      -0.02570383       0.21460403
Pt      10.27607087       7.37645264       2.12917858        2       0.00000000       0.00737653      -0.14203009      -0.23157372
Ni      12.90246127       7.39278526       2.09446860        2       1.00000000       0.13878090      -0.13338085       0.02168299
Ni      -0.00231370       1.52271490       4.29827476        5       1.00000000      -0.04446465       0.04341536      -0.21407239
Pt       2.50013330       1.55303644       4.21048252        4       0.00000000      -0.02926308      -0.06128930       0.00772116
Ni       5.15372328       1.52256138       4.27190828        5       1.00000000      -0.05709668       0.05119238      -0.38323795
Ni       7.71665281       1.51091987       4.28769543        5       1.00000000      -0.00951829      -0.03773432      -0.30648062
Ni       1.28538888       3.69569742       4.34739779        5       1.00000000       0.03105768      -0.05275082      -0.06323625
Ni       3.83709797       3.76013011       4.26503874        5       1.00000000      -0.03068979       0.10388817      -0.33998038
Pt       6.44372627       3.70963952       4.24405642        4       0.00000000      -0.04974442       0.02398096      -0.01726269
Ni       9.00776283       3.69818268       4.25730166        5       1.00000000      -0.01057916      -0.07224613      -0.42759410
Ni       2.61011629       5.87960927       4.34253237        5       1.00000000       0.12855912      -0.16043815      -0.08304818
Ni       5.12911724       5.91119867       4.25144697        5       1.00000000       0.04815339      -0.18242994      -0.37828396
Ni       7.69112864       5.91138691       4.25720437        5       1.00000000      -0.06309383      -0.04145109      -0.40811450
Pt      10.31143532       5.82062178       4.31646387        5       0.00000000       0.06971410      -0.02198997       0.07635458
Pt       3.92661510       8.09546581       4.27360822        5       0.00000000       0.12351026      -0.14576998       0.12363154
Ni       6.41888576       8.14746179       4.24331593        4       1.00000000      -0.04136932      -0.02800689      -0.40844056
Pt       8.92073134       8.15922393       4.23289548        4       0.00000000      -0.12648269       0.00209071      -0.06636458
Pt      11.62277923       8.17580409       4.22625282        4       0.00000000       0.06098210      -0.06265192      -0.04827534
Pt      -0.00859730       0.02806738       6.51528601        8       0.00000000       0.01899473       0.23137162       0.19553819
Pt       2.54645604       0.02628141       6.53584624        8       0.00000000       0.05343373      -0.11893514       0.33529359
Pt       5.15894104       0.01193584       6.41847103        7       0.00000000      -0.04387384       0.13241724       0.92114017
Pt       7.71893235      -0.03467551       6.53107265        8       0.00000000       0.04911769       0.22596240       0.25357216
Ni       1.26699687       2.29307547       6.46637395        8       1.00000000      -0.05660965       0.15457011      -0.28224962
Pt       3.81315692       2.29414814       6.40724164        7       0.00000000       0.05623004       0.12575829       0.39787780
Ni       6.44369924       2.24638734       6.38960534        7       1.00000000      -0.03766904      -0.02442181       0.02131861
Pt       9.01020360       2.32497501       6.34863637        6       0.00000000      -0.01845423      -0.07392762       0.44311418
Ni       2.51440266       4.48831685       6.45417149        8       1.00000000      -0.04919577       0.01115838      -0.41996693
Pt       5.10244298       4.46960955       6.47963168        8       0.00000000      -0.12227000       0.00228841      -0.07736553
Ni       7.71729602       4.43459766       6.38623001        7       1.00000000      -0.03949149       0.05920068      -0.03918036
Ni      10.34771996       4.43026128       6.46484356        8       1.00000000       0.12225395      -0.06892877      -0.18667611
Ni       3.80520893       6.63792673       6.46823857        8       1.00000000      -0.07710754      -0.05903839      -0.28091849
Pt       6.40964618       6.64904906       6.36433045        7       0.00000000       0.07057881       0.03178675       0.32936960
Pt       9.04818752       6.56854357       6.51846308        8       0.00000000      -0.03030238      -0.05390930       0.30352487
Ni      11.62085525       6.61735810       6.47401023        8       1.00000000       0.05216240      -0.00962726      -0.22190981
