64
Lattice="10.32158576235032 -0.01651364259379927 0.047494538393311 5.146491647179916 8.869520527034268 0.022909070336503867 0.0 0.0 21.588248774769045" Properties=species:S:1:pos:R:3:tags:I:1:initial_magmoms:R:1:forces:R:3 unique_id=e1cf917803ac4ac185adffa3ae1dca29 energy=-376.00990916838066 stress="0.005868494164170357 -9.262120762995227e-05 0.0002835342357141034 -9.262120762995227e-05 0.0051692685197466965 0.00015199631435737498 0.0002835342357141034 0.00015199631435737498 -0.0018068168035956633" pbc="T T T"
Ni       0.01452315       0.00611305       0.11413456        1       1.00000000       0.11386242       0.07571016      -0.08681298
Ni       2.58275013       0.00834954       0.14662264        1       1.00000000      -0.05014848       0.03328219       0.05327614
Ni       5.15865233      -0.02971908       0.12376060        1       1.00000000      -0.05717563       0.09994833      -0.44879165
Ni       7.74089323      -0.06843486       0.16107712        2       1.00000000      -0.04579713      -0.07938557      -0.16402938
Ni       1.29412056       2.22652941       0.05078550        1       1.00000000      -0.00152284      -0.00818457       0.40473932
Pt       3.77770758       2.17749299       0.14445975        1       0.00000000       0.03724420       0.04527063      -0.41271198
Pt       6.44924182       2.12607451       0.07353618        1       0.00000000       0.06660996      -0.01983699      -0.18255629
Pt       9.12608715       2.20566199       0.09897196        1       0.00000000       0.01903401       0.05997882      -0.53689634
Ni       2.52823314       4.45965411       0.00679296        0       1.00000000      -0.03567028      -0.00660411       0.22739648
Pt       5.09976376       4.46634410       0.00000000        0       0.00000000       0.08750708      -0.06869328      -0.31971239
Pt       7.78003630       4.46775867       0.10271886        1       0.00000000      -0.07275915       0.01307693      -0.77850612
Ni      10.37597626       4.45185758       0.04935836        0       1.00000000       0.04962893       0.02516909       0.23186858
Ni       3.81312866       6.69427510       0.03933649        0       1.00000000      -0.06362791       0.10345006       0.31405607
Pt       6.44246642       6.75880432       0.07200742        1       0.00000000       0.02132213      -0.00094291      -0.01325939
Ni       9.06118692       6.68173410       0.04713529        0       1.00000000      -0.02891386       0.03497761       0.14312793
Ni      11.62132735       6.64382622       0.05272206        1       1.00000000       0.10526310       0.02495570       0.28610727
Ni       1.33091158       0.74856242       2.17672432        4       1.00000000       0.05371242       0.08248707       0.21319883
Ni       3.82867296       0.73863173       2.18789782        4       1.00000000      -0.20211748       0.03089182       0.18535791
Ni       6.46716464       0.73959342       2.19353592        4       1.00000000       0.05339124       0.06705587       0.18841593
Pt       9.06024135       0.72262684       2.22908289        4       0.00000000       0.08736281       0.15434615       0.00368213
Ni       2.55185602       2.90700050       2.22761118        4       1.00000000      -0.06979021      -0.14005740       0.34484733
Ni       5.16539452       2.94191757       2.19333043        4       1.00000000      -0.00390469       0.06252347       0.09907938
Ni       7.73589591       2.92159833       2.23111565        4       1.00000000       0.05264286      -0.08064797       0.11528741
Ni      10.36881574       2.91528658       2.25299630        5       1.00000000       0.09867405      -0.12014852       0.28265339
Pt       3.87789722       5.17737559       2.21312171        4       0.00000000       0.03189395      -0.07221095      -0.05637231
Ni       6.44910744       5.18908392       2.20355417        4       1.00000000      -0.01855282       0.07523273       0.07802675
Pt       9.00773394       5.14560269       2.30186021        5       0.00000000      -0.11695753      -0.11878831       0.01670862
Pt      11.62135505       5.10857104       2.22205137        4       0.00000000      -0.00920355      -0.10443145       0.13606161
Ni       5.18993196       7.40803354       2.18167381        4       1.00000000       0.10287706       0.03146076       0.16924345
Ni       7.69707205       7.42027761       2.20173656        4       1.00000000      -0.14809678       0.05004081       0.18192105
Pt      10.31574311       7.42346577       2.12687262        3       0.00000000       0.00896747      -0.01353433      -0.05259161
Ni      12.91405790       7.37801224       2.17786491        4       1.00000000       0.04807985      -0.03498383       0.01948002
Ni       0.08087966       1.52173999       4.29157617        6       1.00000000       0.20827803       0.05325407      -0.20946433
Ni       2.52913478       1.51070612       4.29896015        6       1.00000000      -0.13475250       0.02955350      -0.20580562
Pt       5.14664665       1.48669709       4.25442087        6       0.00000000      -0.12312385      -0.06826948      -0.12713609
Ni       7.77743520       1.48876195       4.34141492        6       1.00000000       0.01868414      -0.05472853      -0.24305112
Ni       1.30282754       3.68198809       4.35941471        7       1.00000000       0.00666367      -0.08435224      -0.03432872
Ni       3.81512797       3.71529130       4.32622163        6       1.00000000      -0.18479227      -0.05502136      -0.17882725
Pt       6.50878076       3.68209484       4.27732536        6       0.00000000       0.06200216      -0.08627169      -0.21907032
Ni       9.10587524       3.68782509       4.33516206        6       1.00000000       0.21655154      -0.13747754      -0.16545571
Ni       2.56568056       5.85323007       4.38962258        7       1.00000000      -0.06011345      -0.18979011       0.05530035
Pt       5.19422114       5.91234327       4.38513054        7       0.00000000       0.10018980      -0.03769123      -0.02807496
Ni       7.75642331       5.91962549       4.34942942        6       1.00000000      -0.08517309       0.02334515      -0.10997763
Ni      10.33530220       5.83683887       4.43530515        7       1.00000000      -0.00294302      -0.14365707       0.13694751
Pt       3.91554069       8.13396466       4.31160856        6       0.00000000      -0.03769509       0.09612980      -0.02418189
Ni       6.46116176       8.14996488       4.31067580        6       1.00000000      -0.04201915       0.17371371      -0.34455343
Pt       8.95428477       8.07403897       4.31607274        6       0.00000000      -0.04339016       0.01343001      -0.03616555
Pt      11.63211183       8.04624531       4.33490856        6       0.00000000      -0.04329736      -0.12724545      -0.03619963
Pt       0.04550558      -0.04181856       6.51572694        9       0.00000000       0.05936946       0.04874684       0.24307358
Pt       2.58628103      -0.03704043       6.52900966        9       0.00000000      -0.00905216       0.14300780       0.12834354
Pt       5.17981960      -0.06697894       6.57910311       10       0.00000000      -0.04234498       0.10882866       0.38454768
Pt       7.75944139      -0.06668934       6.58824877       10       0.00000000      -0.04060662       0.07866219       0.33683012
Ni       1.31237028       2.27202665       6.45901416        9       1.00000000       0.03548252       0.11592736      -0.35239052
Pt       3.84936647       2.31375698       6.43789419        8       0.00000000      -0.12515556       0.03783916       0.38718916
Ni       6.46792585       2.22179944       6.44304979        8       1.00000000       0.02164450       0.00936593       0.06083751
Pt       9.10289356       2.25345367       6.40004731        8       0.00000000      -0.01183860       0.03003363       0.53224689
Ni       2.56230565       4.46782120       6.46721605        9       1.00000000      -0.04260655      -0.00984474      -0.39931791
Ni       5.16018274       4.44827864       6.42626502        8       1.00000000      -0.03416181      -0.04133821       0.22634553
Pt       7.77145894       4.49638688       6.43824292        8       0.00000000       0.09966407      -0.04310358       0.59370937
Ni      10.39613978       4.45035214       6.49996625        9       1.00000000       0.04185339      -0.00018637      -0.38310329
Ni       3.86364159       6.58186197       6.50830862        9       1.00000000      -0.11601844      -0.12959481      -0.21862075
Ni       6.46092669       6.62469212       6.43952002        8       1.00000000       0.06628372       0.08351850       0.13303985
Ni       9.07474721       6.59976594       6.51691795        9       1.00000000       0.12787618      -0.01491198      -0.22695017
Ni      11.62813691       6.55029517       6.53531713        9       1.00000000       0.00070629      -0.02327993      -0.31803135
