64
Lattice="10.168318494699875 0.0023620305189348016 0.030549837761604158 5.086204825783904 8.735419409594055 -0.04932882814533869 0.0 0.0 21.47079234875574" Properties=species:S:1:pos:R:3:tags:I:1:initial_magmoms:R:1:forces:R:3 unique_id=7ac2615beebb4802a1060df4a557db32 energy=-368.9084271560814 stress="0.001671912084993966 -7.4219234660732e-05 0.00024765132603733357 -7.4219234660732e-05 0.001231260833926327 -0.00023574049172092026 0.00024765132603733357 -0.00023574049172092026 -0.005184762543862281" pbc="T T T"
Ni       0.03858720      -0.04783619       0.15430669        2       1.00000000       0.07671480      -0.00758702      -0.31063715
Ni       2.49759113       0.00878361       0.14519762        1       1.00000000       0.04547968       0.19050309      -0.52202672
Pt       5.12377962      -0.01676034       0.14259048        1       0.00000000      -0.07786559       0.24016412      -1.08301794
Ni       7.65255368      -0.04839346       0.18024168        2       1.00000000      -0.02919656      -0.06237435      -0.38973032
Ni       1.26829560       2.20082627       0.07276082        1       1.00000000      -0.03908127       0.05432920       0.28952991
Pt       3.78144949       2.26121183       0.13363582        1       0.00000000       0.03019231      -0.05023785      -0.57754981
Ni       6.36688723       2.23590288       0.09053826        1       1.00000000      -0.03188060       0.00439357       0.17561386
Pt       8.90760157       2.23836082       0.09797663        1       0.00000000       0.05476677       0.14747368      -0.70546041
Ni       2.52461758       4.40924909       0.04204956        0       1.00000000       0.05476243       0.00610607       0.35949149
Ni       5.10764667       4.41207739       0.05284261        1       1.00000000      -0.09983252       0.01092094       0.26208471
Ni       7.59740378       4.40083141       0.06641509        1       1.00000000       0.05924396       0.01614232       0.22246946
Ni      10.21021114       4.39799515       0.07011250        1       1.00000000       0.01327960      -0.00898697       0.34114618
Ni       3.82236081       6.52108593       0.03038668        0       1.00000000       0.02195178      -0.02310750       0.24957788
Ni       6.31559558       6.51455019       0.00000000        0       1.00000000      -0.06237624       0.00446525       0.09872593
Ni       8.89885757       6.47574910       0.11247617        1       1.00000000       0.07283687      -0.08085092      -0.66154755
Ni      11.49686123       6.49136304       0.01898051        0       1.00000000       0.05773850       0.05349542       0.18549516
Ni       1.28981894       0.77961196       2.16154722        5       1.00000000       0.03498181       0.14019259       0.15772059
Ni       3.79939652       0.78526159       2.18529846        5       1.00000000      -0.06370537       0.07465790       0.25054784
Ni       6.36332106       0.76865241       2.21090454        5       1.00000000       0.00652990       0.08523337       0.18863704
Pt       8.91539561       0.72786703       2.19817625        5       0.00000000       0.03786436      -0.08128370       0.22659210
Ni       2.51758930       2.93084062       2.19642138        5       1.00000000      -0.01103739       0.01882131       0.09536264
Ni       5.08638229       2.91967211       2.15512183        5       1.00000000      -0.02658516      -0.00357343       0.06173949
Ni       7.60729213       2.93574829       2.16026637        5       1.00000000      -0.05832571       0.00182002       0.09490914
Ni      10.22517419       2.94138993       2.19729914        5       1.00000000       0.09339962       0.01190990       0.11541891
Ni       3.81186084       5.06362585       2.11605297        4       1.00000000      -0.02366279      -0.11198242       0.03902712
Ni       6.31306666       5.04269902       2.07965811        4       1.00000000      -0.06895527      -0.07375642       0.03932273
Ni       8.91853628       5.00013940       2.11422371        4       1.00000000       0.02539611      -0.15468962       0.05603881
Ni      11.49386277       5.01592300       2.15154665        5       1.00000000       0.07845231      -0.09850173       0.13048889
Ni       5.06258391       7.19683489       2.06988091        4       1.00000000      -0.11107459      -0.09482335       0.07126546
Pt       7.54665660       7.25828187       2.04548004        3       0.00000000      -0.00244755      -0.02014105       0.01749978
Pt      10.27320679       7.16742508       2.14657795        4       0.00000000       0.05780623      -0.24077696       0.13436892
Ni      12.75167419       7.19276745       2.09900249        4       1.00000000       0.09742162      -0.10454936       0.08494012
Ni       0.07057704       1.46991221       4.23054646        6       1.00000000       0.09949608      -0.00286393      -0.13742826
Ni       2.50828137       1.49780177       4.20761453        6       1.00000000      -0.04701403       0.05036749      -0.18681757
Ni       5.09726534       1.44119969       4.20124291        6       1.00000000      -0.04182276      -0.00854117      -0.27458568
Ni       7.61338134       1.41837059       4.26382207        7       1.00000000      -0.10207296      -0.10997393      -0.14260314
Ni       1.29141923       3.61572069       4.24633283        6       1.00000000       0.01472857      -0.03427571      -0.10844189
Ni       3.76738756       3.66129656       4.18863478        6       1.00000000      -0.08231662       0.05427868      -0.20682691
Pt       6.31535570       3.55556976       4.25898809        7       0.00000000      -0.04192837      -0.07791371       0.01474360
Ni       8.97270513       3.61657302       4.20053508        6       1.00000000       0.06697792      -0.01156229      -0.24258764
Ni       2.53399145       5.72985950       4.23333080        6       1.00000000      -0.05036348      -0.05311771      -0.16583466
Ni       5.05298925       5.75373552       4.24172282        6       1.00000000      -0.02343762      -0.09890338      -0.15303342
Pt       7.61869599       5.75671303       4.23351709        6       0.00000000      -0.03000715       0.03155528      -0.02881600
Ni      10.25245137       5.72860805       4.26669045        7       1.00000000       0.02532882      -0.02085006      -0.09157276
Pt       3.82629892       7.89023618       4.18734892        6       0.00000000      -0.00728794       0.00096269       0.01074792
Ni       6.34153507       8.00174840       4.19720651        6       1.00000000      -0.03181389       0.04818479      -0.15404864
Pt       8.90433263       8.03742549       4.18103706        6       0.00000000      -0.09730259       0.00498540      -0.18981136
Ni      11.48632215       7.94647726       4.21414417        6       1.00000000       0.02207519      -0.10748017      -0.15827859
Pt       0.02554437      -0.08201451       6.44407096        9       0.00000000      -0.18297986       0.18106052       0.27069950
Pt       2.53043855      -0.02467698       6.44469544        9       0.00000000       0.19446488       0.11641361       0.44947455
Pt       5.13660863      -0.01001597       6.33138448        8       0.00000000      -0.06906218       0.09071543       1.21222318
Pt       7.63789285      -0.08509464       6.47079235       10       0.00000000       0.12583048       0.16253032       0.38376680
Ni       1.28700255       2.21659462       6.34238267        8       1.00000000       0.00651991       0.02149951      -0.17606562
Pt       3.81882030       2.28824599       6.27246770        8       0.00000000      -0.02206563      -0.10326330       0.50837032
Ni       6.37449967       2.20024846       6.39804899        9       1.00000000       0.00448231      -0.00874974       0.05276731
Pt       8.92183702       2.25217193       6.27068394        8       0.00000000       0.00016653      -0.18105164       0.75858887
Ni       2.52962293       4.38537067       6.33653039        8       1.00000000       0.04050020      -0.02438979      -0.35384972
Ni       5.10199744       4.39385115       6.38191473        9       1.00000000      -0.08677541       0.02649890      -0.20313149
Ni       7.57768332       4.32599400       6.40740744        9       1.00000000      -0.01313470      -0.00216011      -0.06093903
Ni      10.27073551       4.32613797       6.36303861        9       1.00000000       0.01667685       0.01533038      -0.24620642
Ni       3.82303050       6.41632835       6.35805573        9       1.00000000      -0.01033315      -0.01458851      -0.21888241
Ni       6.33011161       6.45081559       6.36718240        9       1.00000000      -0.01839405       0.05837014      -0.07311550
Pt       8.94848216       6.38977087       6.44797715        9       0.00000000       0.14379490       0.06033248       0.38704499
Ni      11.49861620       6.43990385       6.34977390        8       1.00000000      -0.01572228       0.09319342      -0.17359461
