64
Lattice="10.460532838373629 0.027789556627830198 0.01729570083741551 5.254332881186425 9.092922955778894 -0.01590935318662699 0.01412188059849893 -0.02315275359508164 8.96078749053902" Properties=species:S:1:pos:R:3:tags:I:1:initial_magmoms:R:1:forces:R:3 unique_id=91897dc5a19947e582f46ffa2baa5522 stress="-0.0007100142878121857 -7.640205095067294e-06 9.026508813222544e-08 -7.640205095067294e-06 -0.0007118008053357272 5.555368283011729e-06 9.026508813222544e-08 5.555368283011729e-06 -0.0005802026046746317" energy=-406.5015897674076 pbc="T T T"
Ni      -0.03850872      -0.00228525       0.16797893        4       1.00000000      -0.27112755      -0.05401205       0.18362483
Ni       2.63040100      -0.01089391       0.16063260        4       1.00000000       0.15917048      -0.09447425       0.23424837
Ni       5.25191839      -0.01971358       0.15425764        4       1.00000000       0.08482734       0.01253974       0.22338135
Ni       7.87045837      -0.01874192       0.12301897        4       1.00000000       0.06266902      -0.13369511       0.21222078
Ni       1.30780508       2.27903681       0.15140945        4       1.00000000       0.00513787       0.04126775       0.17484024
Pt       3.87967630       2.31709378       0.15210376        4       0.00000000      -0.04267291       0.06872489       0.20794438
Pt       6.56330917       2.21445438       0.15156289        4       0.00000000       0.09060832      -0.10827902       0.07215913
Ni       9.17556050       2.25941579       0.15899714        4       1.00000000      -0.09240284      -0.16248986       0.19529189
Ni       2.62135372       4.55344611       0.14341735        4       1.00000000       0.00424762      -0.00247374       0.15342973
Ni       5.24591723       4.55434658       0.14459494        4       1.00000000       0.21681647      -0.05847085       0.18194672
Pt       7.92357633       4.57951712       0.15250645        4       0.00000000       0.10553949      -0.06916508       0.09267519
Ni      10.49709632       4.58111981       0.06290640        4       1.00000000       0.05421270       0.08021869      -0.04746097
Ni       3.91994142       6.84657857       0.16166739        4       1.00000000      -0.05153645       0.16986947       0.20522074
Pt       6.54217136       6.87096573       0.19691923        4       0.00000000      -0.03080846       0.02866460       0.16336436
Ni       9.19910487       6.83769328       0.07611811        4       1.00000000       0.02740307      -0.01655831       0.06841804
Ni      11.79910142       6.84957125       0.06492042        4       1.00000000       0.11256059       0.06318296      -0.02808530
Pt       1.28140754       0.70428675       2.15151314        3       0.00000000      -0.00783605      -0.01803775      -0.02881419
Pt       3.98446576       0.76972842       2.25302254        3       0.00000000       0.09690138       0.11263380      -0.02965753
Ni       6.58008056       0.75039692       2.27285949        3       1.00000000       0.13502822      -0.04438959       0.00239376
Ni       9.11501367       0.74059625       2.21696046        3       1.00000000      -0.18112114      -0.03875990      -0.13553454
Ni       2.61898495       3.04078831       2.23211639        3       1.00000000      -0.06657227       0.01671349       0.01444040
Ni       5.25930413       3.03644665       2.26861233        3       1.00000000       0.10183441      -0.04812051      -0.05120850
Pt       7.81683489       3.02913696       2.37118050        3       0.00000000      -0.09786932       0.01395354      -0.12414834
Pt      10.43953634       3.06460881       2.17912882        3       0.00000000      -0.10112296       0.08790106      -0.07993437
Pt       3.98766629       5.31739070       2.14811315        3       0.00000000       0.04603655       0.03214828      -0.03108516
Ni       6.58507505       5.31423721       2.26474672        3       1.00000000       0.19816266      -0.02114370      -0.00262411
Ni       9.14836013       5.33970083       2.29058110        3       1.00000000      -0.06312917       0.04300763       0.13846317
Pt      11.77462775       5.33673812       2.17014327        3       0.00000000      -0.01519594       0.01303504      -0.04485989
Ni       5.22248105       7.58392114       2.21070715        3       1.00000000      -0.13065856       0.03727568      -0.06487757
Ni       7.87864640       7.53424150       2.24123745        3       1.00000000       0.08002193      -0.17309060       0.02476392
Pt      10.48486143       7.56426019       2.15988536        3       0.00000000       0.02158372      -0.07380193      -0.03943574
Ni      13.11728681       7.63948764       2.19630348        3       1.00000000      -0.02698645       0.09007633      -0.14146302
Pt      -0.07634975       1.53969741       4.38979325        2       0.00000000      -0.16244546       0.05993934      -0.04699398
Pt       2.63553707       1.51170719       4.39909558        2       0.00000000      -0.06972328       0.02943223       0.03322293
Ni       5.28991973       1.52170600       4.41660842        2       1.00000000       0.05854620       0.03771503      -0.19293155
Ni       7.82639803       1.54658616       4.43028316        2       1.00000000      -0.05755188       0.00365718      -0.08662612
Pt       1.23950632       3.82685546       4.43742573        2       0.00000000      -0.03849427       0.03386218      -0.00280854
Pt       4.00736649       3.75012539       4.35129980        2       0.00000000      -0.02133035      -0.06572615      -0.03484609
Ni       6.59484088       3.77122480       4.43062601        2       1.00000000       0.03153855       0.02051620       0.00731629
Ni       9.13928880       3.83901269       4.43490800        2       1.00000000      -0.05514161       0.12687712      -0.14785779
Pt       2.58667673       6.07271814       4.42358302        2       0.00000000      -0.00234074       0.04010072      -0.06059007
Pt       5.33169037       6.00942873       4.35582731        2       0.00000000       0.12814587      -0.02207550       0.01922834
Ni       7.92234443       6.01487351       4.39826261        2       1.00000000       0.07684867      -0.13611955      -0.27145286
Ni      10.42980799       6.04695590       4.49440973        2       1.00000000      -0.07854238      -0.06346437      -0.04941820
Pt       3.92145238       8.35383973       4.34581717        2       0.00000000       0.03588821      -0.04076308      -0.12223653
Pt       6.58313840       8.29156163       4.35086322        2       0.00000000      -0.00988307      -0.07303180       0.00910441
Pt       9.19969552       8.23976256       4.42949202        2       0.00000000      -0.04043736      -0.06403317       0.03619917
Pt      11.79616380       8.40526741       4.41480511        2       0.00000000      -0.02552110       0.06527075      -0.10035777
Pt      -0.03664427      -0.01177158       6.73277868        1       0.00000000      -0.00947535       0.01867304       0.09032018
Pt       2.65410891      -0.04724228       6.73472501        1       0.00000000       0.04894958      -0.02672512       0.10167885
Pt       5.29415497      -0.09645053       6.72630869        1       0.00000000       0.06339288      -0.12888372       0.11784310
Ni       7.83820196      -0.00101886       6.67238628        1       1.00000000       0.00638422       0.03429583      -0.14875713
Pt       1.28889937       2.29616779       6.72650512        1       0.00000000      -0.01427213       0.02667090       0.10611543
Pt       3.95447749       2.25390418       6.61279438        1       0.00000000      -0.01235572       0.00024528      -0.28944810
Pt       6.57507321       2.22947499       6.54168291        1       0.00000000      -0.01744886      -0.01618691      -0.18341837
Pt       9.14883105       2.29808689       6.69013276        1       0.00000000       0.04580415       0.01515090       0.08339343
Pt       2.54982226       4.58714934       6.72419858        1       0.00000000      -0.08629367       0.07008198       0.10838046
Pt       5.26168645       4.54496222       6.68030417        1       0.00000000      -0.06654072       0.06320416       0.00516356
Pt       7.95615176       4.58965519       6.53759479        1       0.00000000       0.03200313       0.07048878      -0.14608151
Ni      10.46375960       4.61296669       6.65166583        1       1.00000000      -0.02097392       0.17029294      -0.19185937
Pt       3.86114904       6.85299136       6.71866094        1       0.00000000      -0.13977672       0.07585799       0.14454080
Pt       6.61171072       6.80305966       6.61653597        1       0.00000000      -0.01378629       0.05073692      -0.12635752
Ni       9.23432807       6.78528143       6.64060315        1       1.00000000       0.13996858      -0.07557573      -0.16064365
Ni      11.74633062       6.81701585       6.66843430        1       1.00000000      -0.14885697      -0.09473510      -0.19945960
