64
Lattice="10.318071257830493 0.00813270808458872 -0.03643711661939576 5.166078760718062 8.860788107070434 -0.06686545491678957 -0.029750781138601568 -0.04586473396607383 8.783000824202006" Properties=species:S:1:pos:R:3:tags:I:1:initial_magmoms:R:1:forces:R:3 unique_id=0aa303a15b474f0ab8b8730f52b5eb5c stress="0.00022432312723418002 -1.8957085943113532e-06 1.2554338654085366e-05 -1.8957085943113532e-06 0.00023480300834289453 1.08865048646483e-05 1.2554338654085366e-05 1.08865048646483e-05 0.00021723469612992818" energy=-397.8358084118124 pbc="T T T"
Ni       0.00789593      -0.00453233       0.18166277        4       1.00000000       0.05423272       0.04553465       0.29148693
Ni       2.57063264       0.00042377       0.19016790        4       1.00000000      -0.03247572       0.01719944       0.35313174
Ni       5.15414133      -0.02560007       0.14626648        4       1.00000000      -0.06105831      -0.01013940       0.21412919
Ni       7.72670405      -0.05136023       0.14518135        4       1.00000000      -0.03011460      -0.11238064       0.28962402
Ni       1.28524203       2.21909533       0.16691345        4       1.00000000      -0.00887634       0.00658501       0.33825193
Pt       3.78556201       2.17872930       0.16574251        4       0.00000000      -0.11971543      -0.00603819       0.21187535
Pt       6.46411971       2.16648408       0.07120875        4       0.00000000       0.03865157      -0.11733912      -0.05834346
Pt       9.09470380       2.26596553       0.08138790        4       0.00000000       0.08262675       0.06038392       0.10854077
Ni       2.53519296       4.45193401       0.02603535        4       1.00000000      -0.10504854       0.01513595       0.01235224
Pt       5.14817976       4.45801972      -0.00548603        4       0.00000000      -0.07111472       0.03163085      -0.15742604
Ni       7.75823330       4.45312580       0.02173834        4       1.00000000      -0.02899917       0.03648034       0.10351677
Ni      10.33955390       4.46197783       0.00163058        4       1.00000000       0.05600080       0.12421270       0.01743870
Ni       3.82652598       6.67847783       0.03378392        4       1.00000000      -0.07963932       0.07175092       0.15899693
Pt       6.47989126       6.70695133       0.04685392        4       0.00000000      -0.01756567       0.00762333      -0.09200327
Ni       9.04497449       6.64909395       0.07723567        4       1.00000000      -0.00724917       0.00905429       0.17671897
Ni      11.62684435       6.64979607      -0.01097893        4       1.00000000       0.04731854      -0.03815179       0.00574226
Ni       1.31051862       0.73524028       2.21388195        3       1.00000000       0.01492911       0.01468135       0.16331107
Ni       3.81386131       0.73338602       2.20146402        3       1.00000000      -0.16828905      -0.00075940       0.04817467
Ni       6.45442293       0.73907268       2.18948528        3       1.00000000       0.11654835      -0.01005411       0.03304960
Pt       9.03478251       0.73762121       2.19474842        3       0.00000000       0.06043999       0.20498195      -0.09520652
Ni       2.54278110       2.89555297       2.24197982        3       1.00000000      -0.03337115      -0.09588729       0.23134427
Ni       5.16258295       2.93480652       2.19771922        3       1.00000000      -0.03787210       0.06200560      -0.06558311
Ni       7.71668401       2.94378445       2.19868601        3       1.00000000       0.03596705      -0.07840776      -0.03092180
Ni      10.35528253       2.92347339       2.20824993        3       1.00000000       0.05987387      -0.09841823       0.19297971
Pt       3.87173397       5.16003719       2.18767030        3       0.00000000      -0.02768716      -0.05134464      -0.12506625
Ni       6.45625513       5.16518867       2.16689888        3       1.00000000      -0.03763434       0.04151325      -0.05462887
Pt       8.96452867       5.12497048       2.16584844        3       0.00000000      -0.04478099      -0.01433956       0.01588705
Pt      11.60392860       5.11495551       2.15325365        3       0.00000000       0.01451225      -0.08792643       0.02666853
Ni       5.18883525       7.38563138       2.14787679        3       1.00000000       0.06705062       0.01112791       0.04934452
Ni       7.69545812       7.40834010       2.14876294        3       1.00000000      -0.11061921       0.01260035       0.07895362
Pt      10.34762429       7.42479904       2.09598064        3       0.00000000       0.04977312      -0.02869626       0.05171809
Ni      12.89264151       7.38771711       2.09659772        3       1.00000000      -0.00623961      -0.05878884      -0.01228127
Ni       0.02359596       1.48537030       4.31869279        2       1.00000000       0.11879551       0.05915283      -0.05944701
Ni       2.51776937       1.48425258       4.28716622        2       1.00000000      -0.06619778       0.05826897      -0.09080339
Pt       5.16346780       1.45520524       4.23328095        2       0.00000000      -0.09574859      -0.01956409       0.04799904
Ni       7.72759327       1.46312816       4.29625611        2       1.00000000       0.01723866      -0.06044910      -0.11919759
Ni       1.27728199       3.68116703       4.33099137        2       1.00000000       0.01602681      -0.00897285      -0.07419781
Ni       3.79727195       3.69438070       4.30924275        2       1.00000000      -0.11869665      -0.01596148      -0.13566050
Pt       6.51626827       3.67987042       4.30662087        2       0.00000000       0.07752389      -0.05525573      -0.13555029
Ni       9.06290079       3.69985867       4.28680806        2       1.00000000       0.21124121       0.00869108      -0.13175728
Ni       2.52908286       5.85632496       4.37365702        2       1.00000000      -0.06786332      -0.04884171      -0.02299791
Pt       5.16840905       5.89671817       4.34967862        2       0.00000000       0.08730355       0.02734749      -0.10825592
Ni       7.73587892       5.87451657       4.30179119        2       1.00000000       0.02731035       0.01053662      -0.09872081
Ni      10.34474291       5.84522257       4.32664010        2       1.00000000       0.07994684      -0.05100744      -0.02586643
Pt       3.82519785       8.08824006       4.25422066        2       0.00000000      -0.07460202      -0.01642016       0.10592129
Ni       6.43885676       8.11953162       4.24716890        2       1.00000000      -0.07195499       0.13657856      -0.15744488
Pt       8.96907971       8.06313944       4.21635886        2       0.00000000      -0.07702610      -0.05460786       0.13276809
Ni      11.60519298       8.06094687       4.25906804        2       1.00000000      -0.03339683      -0.13479276      -0.05217198
Pt      -0.02102776      -0.09962564       6.54206146        1       0.00000000       0.03746017      -0.06381194       0.10568343
Pt       2.55009058      -0.05762911       6.52583298        1       0.00000000      -0.03636844       0.04189816       0.16837436
Pt       5.16554647      -0.05744366       6.53718490        1       0.00000000       0.05360274      -0.03345966       0.03308293
Pt       7.70542715      -0.08116803       6.51620247        1       0.00000000      -0.06424077      -0.08786278       0.15974046
Pt       1.26612328       2.28679938       6.46927259        1       0.00000000       0.04283481       0.07492953       0.09950349
Pt       3.88484669       2.29538294       6.41885050        1       0.00000000       0.07719704       0.19644777      -0.20128261
Ni       6.43718383       2.22317675       6.41250079        1       1.00000000      -0.01572556       0.02458906      -0.23773762
Pt       8.96262354       2.27708450       6.34672798        1       0.00000000      -0.03837854       0.08681674      -0.34997609
Ni       2.55725503       4.47240154       6.44645417        1       1.00000000       0.02698286       0.15124464      -0.24696049
Ni       5.15532592       4.43441944       6.38692684        1       1.00000000       0.05344734       0.10441025      -0.32971246
Ni       7.68965749       4.41061599       6.45358932        1       1.00000000      -0.15169716       0.01440982      -0.12787398
Ni      10.33579022       4.43291746       6.42141751        1       1.00000000       0.17725678       0.02934144      -0.26653245
Ni       3.83303111       6.54633993       6.46576287        1       1.00000000      -0.03168491      -0.12892253      -0.07743345
Ni       6.43477981       6.56001204       6.38757342        1       1.00000000       0.10958144      -0.04454590      -0.16219364
Pt       9.02617272       6.48406397       6.45690704        1       0.00000000       0.02277685      -0.06896389       0.08632445
Ni      11.62416121       6.54811859       6.41194096        1       1.00000000       0.03748069      -0.09505325      -0.20939929
