64
Lattice="10.242537258848055 -0.011926516657408306 0.02117082822325836 5.1109399630200505 8.80689779351164 -0.01458161456923456 0.017285908859698666 -0.023727702190073505 8.75349812148803" Properties=species:S:1:pos:R:3:tags:I:1:initial_magmoms:R:1:forces:R:3 unique_id=deb548a34ca04229bf169e2ddb35bdb6 stress="-7.408954842220983e-05 1.1958253244042418e-06 -1.2771024207294823e-05 1.1958253244042418e-06 -6.821255550117783e-05 1.66140174411446e-05 -1.2771024207294823e-05 1.66140174411446e-05 -2.5986548799275533e-05" energy=-394.0216037005713 pbc="T T T"
Ni       0.01306335      -0.00856345       0.18054592        4       1.00000000       0.02277575       0.02897051       0.39108586
Ni       2.52939833       0.00775911       0.20841554        4       1.00000000      -0.05757167       0.07110157       0.45601462
Pt       5.11210527      -0.04954418       0.15474168        4       0.00000000      -0.02630150      -0.05859645       0.37500633
Ni       7.70750216      -0.06951460       0.20419395        4       1.00000000       0.03287320      -0.07809964       0.39622740
Ni       1.28468324       2.20914235       0.10694785        4       1.00000000       0.03233429       0.04695146       0.27364631
Pt       3.75432813       2.25498683       0.18275637        4       0.00000000      -0.05779497       0.11777673       0.18040093
Pt       6.39891341       2.20872746       0.11747814        4       0.00000000       0.05258910       0.09202287       0.01736795
Pt       9.05303539       2.19272932       0.13445035        4       0.00000000       0.12049672      -0.03932241       0.14478895
Ni       2.54888246       4.44109337       0.06055712        4       1.00000000       0.05389972       0.09581653       0.02818809
Ni       5.07201265       4.43742990       0.10604469        4       1.00000000      -0.07632278       0.10294861       0.24085848
Pt       7.71937787       4.45481090       0.10101976        4       0.00000000       0.05685974       0.07784797      -0.05007121
Ni      10.29284181       4.42277668       0.08092721        4       1.00000000       0.16658241       0.07168741       0.08490757
Ni       3.79605024       6.59260605       0.09658218        4       1.00000000      -0.07291406      -0.04646650       0.19996044
Pt       6.34828243       6.65176208       0.17188349        4       0.00000000      -0.07398605       0.01929120       0.05535679
Ni       8.97437722       6.58666759       0.07616215        4       1.00000000       0.01659275       0.00287143       0.04529106
Ni      11.55059656       6.55794545       0.07556140        4       1.00000000       0.10058687      -0.04988651       0.05337899
Ni       1.31580297       0.73740983       2.22155891        3       1.00000000       0.03048854       0.04268400       0.17596013
Ni       3.80377579       0.76031296       2.25117043        3       1.00000000      -0.01620629       0.09070547       0.08913384
Ni       6.40367752       0.76155319       2.25524993        3       1.00000000      -0.07868151       0.09255581       0.09919877
Pt       8.98610594       0.71278024       2.26539185        3       0.00000000       0.03651842       0.17685674       0.00314536
Ni       2.55009870       2.90704629       2.27306813        3       1.00000000       0.02573009      -0.10777946       0.22541170
Ni       5.10287133       2.94971819       2.25141978        3       1.00000000      -0.13516302       0.03741813       0.02816535
Ni       7.68523743       2.94861294       2.26276669        3       1.00000000       0.10405543       0.02830987       0.00496497
Ni      10.27099757       2.92013748       2.27006115        3       1.00000000       0.04780757      -0.06714925       0.15580842
Ni       3.87389213       5.12315037       2.20050106        3       1.00000000       0.08154564      -0.05496490       0.05361848
Ni       6.37950585       5.12920854       2.23972296        3       1.00000000      -0.03344134       0.06461316      -0.02785437
Ni       8.93533177       5.09352268       2.25149738        3       1.00000000      -0.06119627      -0.18558861       0.14936868
Pt      11.56907817       5.05224097       2.22576008        3       0.00000000       0.13668810      -0.14909286       0.11956061
Ni       5.12268448       7.30104220       2.22174903        3       1.00000000       0.04753549      -0.13693488       0.06134073
Ni       7.63619965       7.32978126       2.21680891        3       1.00000000      -0.18620367      -0.09221127       0.00570524
Pt      10.20274615       7.25525660       2.20226504        3       0.00000000      -0.07131498      -0.11431497      -0.22948464
Ni      12.83272465       7.28448417       2.16418029        3       1.00000000       0.08585178      -0.20347713      -0.01000801
Ni       0.06497211       1.50469029       4.31432288        2       1.00000000       0.14389597       0.07412078      -0.05945099
Ni       2.52745769       1.50110018       4.29532438        2       1.00000000      -0.04560796       0.09240712      -0.09082404
Ni       5.11456328       1.48335534       4.30339894        2       1.00000000      -0.12477969       0.01940115      -0.18649003
Ni       7.68417283       1.47906192       4.33571221        2       1.00000000       0.00431868       0.01638040      -0.05632972
Ni       1.28604251       3.65048370       4.36866402        2       1.00000000       0.00945643      -0.02128573       0.01752823
Ni       3.81198136       3.69409768       4.29664720        2       1.00000000      -0.09874625       0.03828169      -0.23070371
Pt       6.39761657       3.66970844       4.32459552        2       0.00000000      -0.02596603      -0.01581584      -0.01559796
Ni       9.00088657       3.69071335       4.30723916        2       1.00000000       0.08667623       0.01997553      -0.25536339
Ni       2.57201334       5.78824043       4.37054659        2       1.00000000      -0.00607928      -0.16056114      -0.04859592
Ni       5.10286863       5.81740910       4.30074166        2       1.00000000      -0.00580824      -0.16275748      -0.20442272
Ni       7.70370140       5.82337196       4.30735135        2       1.00000000       0.01494687      -0.05659149      -0.23605835
Ni      10.23698346       5.78061398       4.39857300        2       1.00000000       0.02985446      -0.09336363      -0.02172251
Pt       3.90493224       7.98829111       4.30277841        2       0.00000000       0.02397703      -0.14559661       0.26708577
Ni       6.39733635       8.06027472       4.27348054        2       1.00000000      -0.04668373      -0.00867956      -0.14470497
Pt       8.87079169       8.04220947       4.28723671        2       0.00000000      -0.04818522       0.07433488       0.14439552
Pt      11.55149512       8.01664934       4.28182539        2       0.00000000       0.01434928      -0.05910383       0.06278316
Pt       0.02119177      -0.00182877       6.52020824        1       0.00000000      -0.00255616       0.06445441       0.14117249
Pt       2.55864622      -0.00166593       6.52959349        1       0.00000000      -0.03585634       0.06015811       0.20255379
Pt       5.13210435      -0.04573619       6.44786123        1       0.00000000       0.04084491      -0.00389468      -0.39351706
Pt       7.68985167      -0.06410325       6.56559881        1       0.00000000      -0.07881368      -0.05887982       0.17813558
Ni       1.28807314       2.26227782       6.45032899        1       1.00000000      -0.00932720       0.24074918      -0.21375591
Pt       3.83333935       2.29768023       6.38427438        1       0.00000000      -0.06421541       0.16019406      -0.25522576
Ni       6.41159798       2.22288287       6.40953480        1       1.00000000      -0.01015396       0.06090924      -0.24560372
Pt       8.98516570       2.28624078       6.37636925        1       0.00000000       0.02018020       0.14189644      -0.39603531
Ni       2.53461978       4.43161531       6.45096288        1       1.00000000      -0.12371934       0.07627043      -0.22908226
Ni       5.10582197       4.39321614       6.47234395        1       1.00000000      -0.10018117       0.05594869      -0.15563107
Ni       7.70934038       4.39258686       6.40227177        1       1.00000000       0.10368865       0.07045896      -0.30878029
Ni      10.28315024       4.42275359       6.46195107        1       1.00000000       0.08850638       0.08559627      -0.22225762
Ni       3.81119148       6.50536360       6.47333410        1       1.00000000      -0.06784785      -0.21234226      -0.10770056
Pt       6.40098199       6.48686682       6.38123186        1       0.00000000      -0.00304778      -0.00356745      -0.30701222
Ni       8.99605129       6.50329386       6.46937827        1       1.00000000       0.03353254      -0.15473729      -0.24082651
Ni      11.52695195       6.49864945       6.48864915        1       1.00000000      -0.02136586      -0.07090515      -0.18440577
