64
Lattice="10.708913255320217 -0.005794460377927487 0.031101594641260038 5.349438477771596 9.263502036737396 0.03751412722074326 0.02539434568598898 0.020707226013076487 9.297922930313954" Properties=species:S:1:pos:R:3:tags:I:1:initial_magmoms:R:1:forces:R:3 unique_id=64bb9d8309fb41808a4520c3d565b446 stress="0.00039258225797563634 4.035775179991196e-06 -3.123819869816412e-06 4.035775179991196e-06 0.00039142292173204724 4.783786938432644e-07 -3.123819869816412e-06 4.783786938432644e-07 0.0003123188806480534" energy=-425.4668467630534 pbc="T T T"
Pt       0.00579689       0.00590210       0.11333367        4       0.00000000      -0.00182579       0.01552833       0.12012090
Pt       2.68337544       0.00986500       0.14225838        4       0.00000000       0.01108646      -0.02055686       0.11943497
Pt       5.35396852       0.00556755       0.07443307        4       0.00000000      -0.01624444       0.01161874      -0.04039511
Pt       8.02251413      -0.00708904       0.16466378        4       0.00000000       0.00638276       0.00363423       0.11047325
Pt       1.33973464       2.30502313       0.12274089        4       0.00000000       0.00232410       0.00344213       0.09508135
Pt       4.01621963       2.29654733       0.13388997        4       0.00000000       0.01062684      -0.00009083       0.06594474
Pt       6.69812607       2.29574289       0.13598103        4       0.00000000       0.03868848      -0.00340729       0.04231767
Pt       9.36821337       2.30769071       0.05952637        4       0.00000000       0.00704282      -0.01117396      -0.07013831
Pt       2.67938419       4.63029660       0.12358091        4       0.00000000       0.01573815      -0.02574201       0.17627442
Pt       5.34926122       4.62919679       0.12886842        4       0.00000000       0.01990562      -0.00092372       0.12742597
Pt       8.03331521       4.62788329       0.12235566        4       0.00000000       0.01658619       0.00515912       0.10527148
Pt      10.70801114       4.62685051       0.13772349        4       0.00000000       0.00362992       0.02078786       0.13943577
Pt       4.00584161       6.95825866       0.07300286        4       0.00000000       0.03367655       0.02295201      -0.00350308
Pt       6.69321297       6.95504624       0.13076595        4       0.00000000       0.03065774       0.02307326       0.08567768
Pt       9.37206723       6.95471939       0.06955496        4       0.00000000       0.00785356       0.03376987      -0.00948338
Pt      12.04995668       6.95971027       0.16592454        4       0.00000000      -0.00611346       0.00345212       0.11949168
Ni       1.36490210       0.76961851       2.37126144        3       1.00000000       0.05113646      -0.06296860       0.21898189
Ni       4.01656567       0.77325143       2.37242685        3       1.00000000      -0.02833721      -0.03950213       0.16492543
Ni       6.69481107       0.75829789       2.37127816        3       1.00000000      -0.00391889      -0.04644811       0.09515346
Pt       9.33503451       0.74629936       2.41984429        3       0.00000000      -0.16323191      -0.05029310       0.13519981
Pt       2.68615483       2.99322845       2.40989020        3       0.00000000      -0.00930846      -0.26330730       0.15234453
Pt       5.35473482       3.01487308       2.38799376        3       0.00000000       0.00863086      -0.09863900      -0.00210223
Pt       8.02437649       3.03012770       2.42002010        3       0.00000000      -0.02410748      -0.10138236       0.10823310
Pt      10.72192872       3.04330659       2.40953469        3       0.00000000      -0.03294795      -0.05727939       0.01942855
Pt       4.00855389       5.44103235       2.39657191        3       0.00000000       0.02262148       0.02445436       0.09751099
Pt       6.70604799       5.41636766       2.41718401        3       0.00000000       0.06028504       0.01998215       0.09907784
Pt       9.36577227       5.43698359       2.42995041        3       0.00000000      -0.03389435       0.14081784       0.15098489
Pt      12.06174895       5.43277151       2.41310206        3       0.00000000      -0.03646123       0.03546536       0.13227530
Pt       5.35537479       7.77109496       2.42572867        3       0.00000000       0.06139272       0.12797499       0.09369118
Pt       8.02587600       7.79619636       2.46455047        3       0.00000000      -0.05808613       0.09893826       0.19545906
Pt      10.73810299       7.81163771       2.42410865        3       0.00000000      -0.03065968       0.18776106       0.05899186
Ni      13.38448129       7.73688711       2.39507629        3       1.00000000       0.00198821       0.04439178       0.06406723
Pt       0.03800860       1.51065900       4.61021132        2       0.00000000       0.16925879      -0.16942889      -0.10876306
Ni       2.68182934       1.52273256       4.62402728        2       1.00000000      -0.04180463      -0.17942814      -0.14168795
Pt       5.35964561       1.51144957       4.60972540        2       0.00000000      -0.06854335      -0.07304847      -0.13170229
Ni       8.04707971       1.54719501       4.66230150        2       1.00000000       0.01724126      -0.03526754      -0.04143068
Pt       1.35603953       3.84244235       4.62448042        2       0.00000000       0.00169813       0.03716727      -0.01328940
Pt       4.02351059       3.83264309       4.62879427        2       0.00000000       0.01282615      -0.02476494      -0.01738219
Pt       6.72399303       3.86349361       4.65117209        2       0.00000000      -0.03821240      -0.02081453       0.00394730
Pt       9.35933480       3.82786302       4.67829856        2       0.00000000       0.02335097      -0.16922859      -0.00672751
Pt       2.69609733       6.22040007       4.64799749        2       0.00000000      -0.06323332       0.08332089      -0.02519596
Pt       5.41258009       6.23200922       4.67116029        2       0.00000000       0.09562035       0.06210567       0.00086011
Ni       8.03958367       6.20238116       4.68978738        2       1.00000000      -0.01259091       0.06269489      -0.02800719
Pt      10.65671977       6.20400565       4.69523840        2       0.00000000      -0.12251879       0.04377001       0.01350803
Pt       4.02900452       8.51552855       4.65513644        2       0.00000000      -0.04477672      -0.01234392       0.03691701
Ni       6.72101445       8.51551128       4.66825889        2       1.00000000       0.05914136       0.11756794      -0.07271149
Pt       9.31760150       8.51188535       4.68153891        2       0.00000000      -0.05412986       0.07436203       0.01318817
Pt      12.06250098       8.54913746       4.64639834        2       0.00000000       0.08954510       0.07249259      -0.12964033
Pt       0.00368425       0.00089485       6.84893668        1       0.00000000       0.00517205      -0.08081721      -0.05956115
Pt       2.72961961      -0.01362221       6.83928336        1       0.00000000       0.02711469       0.00758939       0.00034178
Ni       5.36709485       0.00130031       6.88133774        1       1.00000000      -0.02429253      -0.03923928      -0.32264627
Pt       8.04958890       0.01706705       6.87583764        1       0.00000000       0.01602294      -0.01120086      -0.02191765
Pt       1.33411007       2.31509647       6.86129347        1       0.00000000      -0.01756969      -0.03970128      -0.10467190
Pt       4.04315534       2.28969476       6.87147824        1       0.00000000       0.04618020      -0.07191668      -0.11943769
Pt       6.74002596       2.29348124       6.86851703        1       0.00000000       0.04625636      -0.02436889      -0.13742202
Ni       9.38169018       2.32493068       6.89112776        1       1.00000000      -0.01442822      -0.03949612      -0.37464162
Pt       2.69890387       4.67603266       6.89074779        1       0.00000000      -0.02129629       0.06681076      -0.08478211
Pt       5.36369298       4.66796784       6.88720836        1       0.00000000      -0.01036574       0.00293400      -0.08539715
Pt       8.06967051       4.66387649       6.87675661        1       0.00000000      -0.00394053       0.06510319      -0.12514575
Pt      10.69807595       4.64516225       6.90590312        1       0.00000000       0.00630936      -0.01326453      -0.07976760
Ni       4.02976698       6.96846411       6.89702214        1       1.00000000      -0.01734269       0.04038068      -0.30547445
Pt       6.73247083       6.97272764       6.86111348        1       0.00000000       0.10975942       0.03617722      -0.09157258
Ni       9.38468702       6.97131988       6.90138556        1       1.00000000      -0.00384883       0.05637794      -0.32485988
Pt      12.03341369       6.99904674       6.91738230        1       0.00000000      -0.13171963       0.13398656      -0.08257946
