64
Lattice="10.464945416118661 0.0016295681939141376 0.0477747193874795 5.233883955512458 9.08847711026101 -0.004708499722806821 0.039007895034658444 -0.026960434809729768 9.050764263253289" Properties=species:S:1:pos:R:3:tags:I:1:initial_magmoms:R:1:forces:R:3 unique_id=8546b68cbe0549c1bbe78398d859420b stress="-0.0046153237111361475 -4.046666821935722e-05 -1.715736119250204e-06 -4.046666821935722e-05 -0.0046800078254861585 1.5073218328947016e-05 -1.715736119250204e-06 1.5073218328947016e-05 -0.0038211610725764553" energy=-409.47131277280937 pbc="T T T"
Pt      -0.10929818      -0.01940742       0.05893465        4       0.00000000      -0.16248221      -0.03249158      -0.16399386
Ni       2.64951027      -0.03332208       0.08375149        4       1.00000000       0.11291881      -0.07463305       0.10561872
Ni       5.25411220      -0.05223510       0.16982634        4       1.00000000       0.10335825      -0.09216187       0.17263591
Ni       7.84102789      -0.04396773       0.14349265        4       1.00000000      -0.12266266      -0.20615566       0.19329351
Pt       1.26179987       2.26325785       0.10972063        4       0.00000000       0.00415967      -0.02883999      -0.08344246
Pt       3.95033444       2.19816987       0.12952981        4       0.00000000       0.07306772      -0.04778349      -0.06506943
Pt       6.61287767       2.15997730       0.16879627        4       0.00000000       0.10472426      -0.14435763      -0.03969517
Ni       9.15234946       2.25978219       0.10670582        4       1.00000000      -0.01584167      -0.04902253       0.10914746
Pt       2.57775491       4.63007191       0.10456432        4       0.00000000       0.04601048       0.07210444      -0.11309537
Pt       5.27725689       4.54749785       0.16758692        4       0.00000000       0.18136042      -0.09225015       0.02751448
Pt       7.96343562       4.55342732       0.17618120        4       0.00000000       0.13909645      -0.03717806       0.02934972
Ni      10.46101882       4.58097029       0.09963980        4       1.00000000       0.07013702       0.13559219       0.08220263
Ni       3.89973979       6.85462697       0.16803579        4       1.00000000      -0.04671517       0.05381402       0.19893445
Pt       6.59588329       6.86620015       0.21836355        4       0.00000000       0.07669105       0.01482048       0.11168914
Ni       9.19699432       6.83172762       0.10268606        4       1.00000000       0.09935352       0.01409748       0.07798369
Ni      11.76926686       6.85809168       0.17931402        4       1.00000000       0.06438838       0.11745477       0.13417580
Pt       1.28584974       0.65008381       2.25661391        3       0.00000000      -0.02811693      -0.06321033      -0.07795246
Pt       4.00344188       0.72457181       2.30738893        3       0.00000000       0.01379988       0.03923772       0.11098964
Ni       6.58958080       0.73222288       2.31683699        3       1.00000000       0.07181562      -0.06193188       0.03708080
Ni       9.10924631       0.72511331       2.30107465        3       1.00000000      -0.14703286       0.00653047      -0.03010788
Pt       2.64333532       3.03588344       2.29408976        3       0.00000000      -0.05803936       0.05072748       0.00926418
Ni       5.28298039       3.01098555       2.32084023        3       1.00000000       0.02904402      -0.03110558       0.01735775
Pt       7.79433174       3.01044470       2.41899428        3       0.00000000      -0.09920017      -0.00566935       0.00810425
Pt      10.37218986       3.03952744       2.29337103        3       0.00000000      -0.13819471       0.00818552      -0.05816162
Pt       3.98608284       5.39307849       2.26988127        3       0.00000000      -0.00505869       0.07143972       0.04280774
Ni       6.60758314       5.30826339       2.31961120        3       1.00000000       0.15924619       0.01108416       0.07449319
Ni       9.12752856       5.33047068       2.34551696        3       1.00000000      -0.10411933       0.06898494       0.17444347
Pt      11.71170718       5.34859168       2.30438898        3       0.00000000      -0.07439099      -0.02087900       0.05750169
Ni       5.22533642       7.57442888       2.26201786        3       1.00000000      -0.04595060       0.05849106       0.02066899
Ni       7.87472953       7.51396352       2.30068604        3       1.00000000       0.07879938      -0.09984372       0.15277106
Pt      10.46049253       7.55970403       2.22111838        3       0.00000000      -0.04211098      -0.00753154       0.09049036
Ni      13.10593398       7.63449322       2.25944070        3       1.00000000      -0.03942994       0.13173133      -0.05166180
Pt      -0.11387648       1.54186814       4.50602218        2       0.00000000      -0.14807233       0.05542328      -0.15200857
Pt       2.64999278       1.46996350       4.50054756        2       0.00000000      -0.07233816       0.00830760      -0.07592088
Ni       5.30862603       1.51453476       4.47990936        2       1.00000000       0.09458911       0.04101082      -0.16230261
Ni       7.84210403       1.53434076       4.50563129        2       1.00000000      -0.08698071       0.01294270      -0.12992511
Pt       1.21136466       3.82543922       4.50763651        2       0.00000000      -0.09403437       0.02806323      -0.05714072
Pt       4.04136822       3.73107862       4.44650554        2       0.00000000       0.06858058       0.02691977      -0.10323090
Ni       6.61458098       3.75237201       4.50076544        2       1.00000000       0.08013289       0.01335112       0.01807276
Ni       9.13003060       3.80934647       4.51361181        2       1.00000000      -0.10855836       0.09040995      -0.16186215
Pt       2.60197027       6.08453084       4.46296722        2       0.00000000      -0.02013839       0.05065032       0.00742433
Pt       5.36099581       6.02070305       4.43237691        2       0.00000000       0.08673072      -0.03739698      -0.00874713
Ni       7.91899546       5.99527471       4.47304249        2       1.00000000       0.07929146      -0.13808515      -0.18689456
Ni      10.41647315       6.02769035       4.55524101        2       1.00000000      -0.11387483      -0.04706429       0.00547499
Pt       3.92061071       8.35635132       4.43042622        2       0.00000000      -0.01395068      -0.04581332      -0.14171206
Pt       6.57219926       8.29725328       4.48469177        2       0.00000000      -0.02181347       0.02942893      -0.04747602
Pt       9.18233388       8.22031387       4.53769953        2       0.00000000      -0.04006661      -0.05262236       0.02639068
Pt      11.78499710       8.40274540       4.47863805        2       0.00000000      -0.04121982       0.03797383       0.00666213
Ni       0.00167271       0.00523886       6.66068557        1       1.00000000      -0.08745298       0.03136208      -0.22339849
Ni       2.63790882      -0.03037885       6.74463757        1       1.00000000      -0.02782178       0.05512463      -0.07827689
Pt       5.22804066      -0.05178679       6.80404210        1       0.00000000      -0.04274324      -0.00190900       0.14849300
Ni       7.89926870       0.00458786       6.76059665        1       1.00000000       0.02000858       0.02817215      -0.10316196
Pt       1.23896109       2.20632606       6.67947109        1       0.00000000      -0.08231819      -0.02422878       0.00554074
Pt       3.94767562       2.20685886       6.67163636        1       0.00000000       0.03232308       0.01620250      -0.01130491
Pt       6.65320400       2.20432989       6.62706629        1       0.00000000       0.01636926      -0.02478018      -0.03944372
Ni       9.18149549       2.23631187       6.75541201        1       1.00000000      -0.04861607      -0.03963591      -0.06511032
Pt       2.60182917       4.52402949       6.66603166        1       0.00000000       0.05941432      -0.01319291      -0.03794127
Pt       5.30876664       4.53307995       6.67404057        1       0.00000000       0.09921332       0.05185642       0.04574359
Pt       7.99444049       4.53340933       6.62637670        1       0.00000000       0.06477270       0.02202250       0.00485054
Ni      10.46448910       4.53337747       6.74942112        1       1.00000000       0.00339936      -0.01069935      -0.07717614
Pt       3.94699979       6.89292011       6.77657995        1       0.00000000       0.00045575       0.08377859       0.14106983
Pt       6.65272854       6.86474740       6.70542579        1       0.00000000       0.07888183       0.06205815       0.09354730
Ni       9.18787407       6.78939721       6.73400343        1       1.00000000       0.00799266      -0.02849352      -0.09058135
Pt      11.72109453       6.78646775       6.80295735        1       0.00000000      -0.04078049      -0.04038719       0.09500733
