64
Lattice="10.23351598256132 0.004720358359970853 -0.09404879162448976 5.120845941535362 8.887257171952486 -0.04650211852288647 -0.07679051680177973 0.0004924077506200872 8.803637535545116" Properties=species:S:1:pos:R:3:tags:I:1:initial_magmoms:R:1:forces:R:3 unique_id=0f51162e96304443b47b68475d0d506a stress="-5.9303258028754746e-05 -8.372739005379034e-07 1.8768336751555596e-05 -8.372739005379034e-07 -6.133023447873337e-05 -9.110950085103797e-06 1.8768336751555596e-05 -9.110950085103797e-06 -2.5678523043859425e-05" energy=-395.74879100353985 pbc="T T T"
Pt       0.05924456      -0.00627607       0.09056570        4       0.00000000       0.10174980      -0.02922634      -0.12342657
Ni       2.57148713      -0.02393806       0.11645930        4       1.00000000       0.03911756      -0.05051180       0.19431377
Ni       5.07426967      -0.01305218       0.02598038        4       1.00000000      -0.11175866      -0.07278298       0.14764255
Pt       7.67548213       0.05690426       0.06286750        4       0.00000000      -0.06787541       0.15210144       0.24360543
Ni       1.23010119       2.21176093       0.14468469        4       1.00000000      -0.12311755      -0.01612442       0.29638011
Pt       3.86471159       2.14272333      -0.03145938        4       0.00000000       0.02623141      -0.04801246      -0.23933973
Ni       6.41150410       2.26235596      -0.01624894        4       1.00000000       0.04056051       0.15478196       0.03715526
Ni       8.96755945       2.26736364      -0.00571871        4       1.00000000       0.05248550       0.06483622       0.04394210
Pt       2.54930375       4.42744006       0.07645818        4       0.00000000      -0.13112746      -0.02042855       0.27306368
Ni       5.16198809       4.46421545      -0.00874424        4       1.00000000       0.05993835       0.00708906       0.02511589
Ni       7.68259600       4.45448440      -0.01707844        4       1.00000000      -0.01197628       0.03670301       0.00597667
Ni      10.15364092       4.41698582       0.07077857        4       1.00000000      -0.26492134      -0.07230327       0.30198371
Ni       3.87966792       6.66394058       0.02881859        4       1.00000000       0.03814807       0.01203964       0.10620577
Ni       6.40245062       6.64436096      -0.00976687        4       1.00000000       0.01444425      -0.06038618       0.00561860
Ni       8.91025549       6.66042543      -0.00363666        4       1.00000000      -0.23751876      -0.05327573       0.13805349
Pt      11.42873405       6.70556762      -0.06966742        4       0.00000000      -0.18006364      -0.02261532      -0.16332888
Ni       1.22725707       0.72404944       2.24631728        3       1.00000000      -0.08868643      -0.07160768       0.27575434
Ni       3.81415818       0.70390647       2.21534352        3       1.00000000       0.07160016       0.02179768       0.17960589
Pt       6.34996632       0.67173683       2.24821898        3       0.00000000       0.12369091      -0.04161339       0.02412937
Ni       8.99444209       0.74933181       2.15960640        3       1.00000000       0.10014378       0.04432918      -0.03597652
Pt       2.50059405       2.84276434       2.23651652        3       0.00000000       0.09748366      -0.05252321       0.06628539
Pt       5.11307200       2.94284652       2.23620370        3       0.00000000       0.01590181      -0.00524701       0.03198855
Pt       7.75676526       2.94795834       2.14917006        3       0.00000000       0.02557822      -0.06547256       0.01771412
Ni      10.19781718       2.91714131       2.09707831        3       1.00000000       0.04491683      -0.14724037       0.04252259
Pt       3.85068871       5.26676125       2.20291296        3       0.00000000       0.01879741      -0.00858157       0.01927348
Pt       6.43406947       5.22812226       2.16082544        3       0.00000000       0.02308918       0.01432298       0.08537128
Ni       8.92643529       5.19505952       2.10413238        3       1.00000000      -0.07912391       0.03361204       0.00497785
Pt      11.39239173       5.21355039       2.11381357        3       0.00000000      -0.00045440       0.02810867      -0.11188378
Ni       5.10678728       7.45713439       2.17977399        3       1.00000000       0.11790315       0.05289015       0.02280058
Pt       7.68823491       7.46758025       2.16153881        3       0.00000000      -0.04002946       0.00365262       0.14332500
Ni      10.18745968       7.43276793       2.12844377        3       1.00000000      -0.06358637       0.03461923       0.02866450
Ni      12.79179697       7.42879833       2.10282687        3       1.00000000      -0.02346032       0.05022674      -0.09856901
Ni      -0.05378365       1.46786986       4.35358135        2       1.00000000       0.00683613       0.07210257      -0.10715047
Ni       2.54994743       1.42610622       4.35546385        2       1.00000000       0.00210501      -0.13070637      -0.00537962
Ni       5.07821406       1.47353552       4.38904535        2       1.00000000       0.06154904      -0.03668906       0.06169004
Ni       7.62898289       1.53670656       4.32704658        2       1.00000000      -0.01064333       0.12980918       0.02421588
Pt       1.18709419       3.62674038       4.34116857        2       0.00000000      -0.11280768      -0.00902188       0.18745116
Ni       3.87747324       3.66874366       4.37872806        2       1.00000000       0.12080115      -0.00166130      -0.00565278
Ni       6.36635234       3.70521870       4.39044552        2       1.00000000       0.05487483       0.01592020       0.05373449
Ni       8.85431881       3.68305387       4.32303448        2       1.00000000      -0.16488034       0.04890532       0.07447293
Pt       2.55639996       5.98941156       4.37050843        2       0.00000000      -0.03841015       0.05828412       0.11684737
Ni       5.14375956       5.91427838       4.38857436        2       1.00000000       0.10672910      -0.02041910       0.04903006
Ni       7.59396230       5.92448388       4.36975349        2       1.00000000      -0.14588612       0.00256524       0.14080555
Pt      10.08083760       6.00596056       4.28933161        2       0.00000000      -0.24903523      -0.00812407      -0.00299749
Pt       3.88231890       8.20151176       4.28167810        2       0.00000000      -0.02272313       0.04640981      -0.03074354
Ni       6.38696907       8.14129426       4.31743347        2       1.00000000       0.13446138      -0.03046172      -0.05274104
Ni       8.91681658       8.19789793       4.29802766        2       1.00000000       0.01227589       0.20560542      -0.06694789
Ni      11.42805297       8.18981217       4.28391657        2       1.00000000      -0.10426799       0.04954428       0.05784378
Ni      -0.04978914      -0.03696638       6.45744391        1       1.00000000       0.08018359      -0.14979082      -0.24202395
Pt       2.54880014      -0.07325290       6.47601073        1       0.00000000       0.04417422      -0.08861247       0.13244557
Ni       5.06792286       0.01051813       6.44862671        1       1.00000000       0.05355628       0.03632779      -0.20619694
Pt       7.59861355       0.03435261       6.37464923        1       0.00000000       0.08601014       0.02477015      -0.27606519
Pt       1.19250476       2.15192864       6.54244153        1       0.00000000      -0.02624120      -0.11907338       0.13670470
Ni       3.85802464       2.20900853       6.36783317        1       1.00000000       0.18042175      -0.10309737      -0.38476593
Ni       6.33254997       2.26346926       6.43397999        1       1.00000000       0.00375122       0.12090514      -0.22492291
Ni       8.85067518       2.23300025       6.42284415        1       1.00000000      -0.15096337       0.04852852      -0.23670520
Pt       2.61680922       4.44820804       6.44712119        1       0.00000000       0.22903721      -0.02797281      -0.29994270
Ni       5.13049682       4.44649583       6.44851356        1       1.00000000       0.21805880       0.00203121      -0.20322464
Ni       7.56514728       4.44475827       6.43550493        1       1.00000000      -0.13441638      -0.00057787      -0.19085213
Pt      10.08249018       4.47160813       6.48581218        1       0.00000000      -0.04832399       0.01575995       0.21128376
Ni       3.85308912       6.67866632       6.49761781        1       1.00000000       0.25551992       0.06071674      -0.13740914
Ni       6.33936471       6.62477534       6.44347456        1       1.00000000       0.04354513      -0.11204650      -0.18899751
Ni       8.88072716       6.67348337       6.44804861        1       1.00000000      -0.05442737      -0.06036014      -0.06340898
Ni      11.44502202       6.71085699       6.34339601        1       1.00000000      -0.01894509       0.08727148      -0.30934276
