64
Lattice="10.179090346399088 0.014925446571390987 -0.0034937872558317338 5.102470989093251 8.768358956399982 -0.0594109561874595 0.0 0.0 21.48763885547875" Properties=species:S:1:pos:R:3:tags:I:1:initial_magmoms:R:1:forces:R:3 unique_id=70ca8730ba91467fbc3dc14de0aae231 energy=-369.09401081145256 stress="0.004407106130123463 7.765436482228836e-05 3.838790682992897e-05 7.765436482228836e-05 0.003738569323700293 -0.00031909757469521943 3.838790682992897e-05 -0.00031909757469521943 -0.0021611589799504158" pbc="T T T"
Ni       0.03656093      -0.04105945       0.18377762        2       1.00000000       0.12423829       0.01039707      -0.32065568
Ni       2.52504626      -0.02958759       0.18999522        2       1.00000000       0.01895523      -0.01463917      -0.05174739
Ni       5.10020721      -0.00493610       0.17108107        2       1.00000000      -0.05176369       0.06165879      -0.32729831
Ni       7.60972827      -0.00071124       0.15484064        2       1.00000000      -0.03023859       0.12530648      -0.52076427
Ni       1.27956555       2.19393945       0.09745837        1       1.00000000      -0.00029595      -0.01834949       0.32666300
Pt       3.81517929       2.19714732       0.16612819        2       0.00000000      -0.03531944      -0.03628981      -0.60270649
Ni       6.35979908       2.20735092       0.09435014        1       1.00000000       0.00321951       0.01206402       0.18711480
Pt       8.91046868       2.25440685       0.09146283        1       0.00000000       0.01314212       0.05968441      -0.73328108
Ni       2.54873996       4.40152158       0.03398706        0       1.00000000       0.09370092      -0.01260816       0.19480059
Ni       5.09904931       4.40403096       0.04150497        0       1.00000000      -0.11846122      -0.03522560       0.14623319
Ni       7.62916651       4.41804026       0.04588838        0       1.00000000       0.11089373       0.04300225       0.07337197
Ni      10.19403110       4.41888492       0.03663052        0       1.00000000      -0.08252306       0.05081582       0.12526434
Ni       3.85251306       6.54868423       0.01983154        0       1.00000000       0.13204843      -0.06075701       0.12718272
Ni       6.36713210       6.58888064       0.03668869        0       1.00000000       0.02169583       0.11143885       0.19923236
Ni       8.88816641       6.56106773       0.10667538        1       1.00000000      -0.15191726      -0.05536188      -0.17277907
Ni      11.45593722       6.56868480       0.00000000        0       1.00000000      -0.07605608      -0.02043881       0.05285878
Ni       1.31656422       0.72438610       2.19437161        4       1.00000000       0.03934771       0.10176983       0.15251601
Ni       3.76079420       0.72418760       2.19388450        4       1.00000000      -0.18987540      -0.06714158       0.15363105
Ni       6.35455857       0.77470871       2.14571800        3       1.00000000       0.01428681       0.10340459       0.01361333
Pt       8.95362407       0.77375417       2.22157217        4       0.00000000       0.03606668       0.05231016       0.03167092
Ni       2.54059065       2.87651109       2.22509176        4       1.00000000       0.00305922      -0.12427373       0.22445900
Ni       5.09652056       2.92383312       2.17522146        4       1.00000000      -0.00030820       0.06595037       0.04991590
Ni       7.62519538       2.93667224       2.18533109        4       1.00000000       0.02521669       0.01516439       0.11144282
Ni      10.20512286       2.91852880       2.20951873        4       1.00000000       0.05657963      -0.09538183       0.19520211
Ni       3.84106758       5.05651112       2.14896517        3       1.00000000      -0.01879288      -0.16667570       0.04957528
Pt       6.37139375       5.13813956       2.11335098        3       0.00000000       0.00639680       0.04267771      -0.00756382
Ni       8.89754040       5.07720674       2.15208346        4       1.00000000      -0.00564419      -0.13677310       0.09127878
Pt      11.45085003       5.02199548       2.16581317        4       0.00000000      -0.01130199      -0.15221585       0.09251156
Ni       5.14995834       7.29573864       2.11413172        3       1.00000000       0.02029542       0.05333281       0.06709179
Ni       7.60872014       7.33060921       2.14363878        3       1.00000000      -0.06001648       0.07002936       0.18136761
Pt      10.11115657       7.32234292       2.15612926        4       0.00000000      -0.06563058      -0.02328781       0.16730692
Pt      12.75047918       7.26390653       2.08737410        3       0.00000000       0.08965300      -0.04697147       0.02670389
Ni       0.06609478       1.47312119       4.28602904        6       1.00000000       0.18363918       0.02429309      -0.10071000
Ni       2.49104956       1.45061762       4.25335168        6       1.00000000      -0.03061380      -0.03368865      -0.16259405
Pt       5.07398547       1.41003518       4.20247090        5       0.00000000      -0.08026642      -0.12841590       0.03891042
Ni       7.63456175       1.45199820       4.28197381        6       1.00000000      -0.01732411      -0.06581960      -0.18046980
Ni       1.27879502       3.61474042       4.32332772        6       1.00000000       0.03937897      -0.06515358      -0.03417379
Ni       3.77264499       3.69139462       4.25250925        6       1.00000000      -0.04900696       0.05105534      -0.19659979
Pt       6.39330152       3.67266991       4.32617012        6       0.00000000       0.03030296      -0.00814520       0.09254175
Ni       8.95764372       3.68723029       4.23826599        5       1.00000000       0.09785100       0.10915613      -0.24216636
Ni       2.54096765       5.76774156       4.32560239        6       1.00000000      -0.05622010      -0.05985606      -0.07266980
Ni       5.09292156       5.81180149       4.30707199        6       1.00000000       0.06849993      -0.06259095      -0.09298154
Ni       7.65119389       5.85286570       4.26126958        6       1.00000000       0.06376489       0.11224411      -0.18490871
Ni      10.19706665       5.79603777       4.28587875        6       1.00000000       0.00226379      -0.05139665      -0.04378717
Pt       3.86342127       7.94833517       4.25327342        6       0.00000000       0.06692121      -0.01183467       0.15590290
Ni       6.40981342       7.99359117       4.20230155        5       1.00000000       0.07877110      -0.00971286      -0.19918513
Ni       8.87628208       7.98646207       4.23605760        5       1.00000000      -0.14136376       0.01963029      -0.13402807
Ni      11.45144884       7.96370448       4.25053380        6       1.00000000      -0.01859556      -0.12976733      -0.04716681
Pt       0.01691675      -0.07306615       6.48763886        9       0.00000000      -0.01765537       0.11631372       0.35873545
Pt       2.53116229      -0.03354064       6.42231538        8       0.00000000       0.04711331       0.05062265       0.10693168
Pt       5.09703828      -0.05184021       6.46592869        9       0.00000000      -0.05693099      -0.03386107       0.32400462
Pt       7.62127755      -0.06502080       6.47453978        9       0.00000000      -0.02285708       0.09999651       0.44947216
Ni       1.26877213       2.21929132       6.39138341        8       1.00000000       0.02721322       0.08280572      -0.17606930
Pt       3.79171176       2.29308859       6.36008306        8       0.00000000      -0.09962437       0.14042189       0.54478263
Ni       6.36324302       2.21051111       6.43108429        8       1.00000000      -0.01812210       0.02792721       0.01088396
Pt       8.91707348       2.26983983       6.29892039        7       0.00000000       0.01311575      -0.05710876       0.67038014
Ni       2.51880202       4.40442557       6.37758654        8       1.00000000       0.04560480      -0.03738778      -0.27015090
Ni       5.09859367       4.41342955       6.40979807        8       1.00000000      -0.10710229       0.02349231      -0.12659446
Ni       7.59808436       4.36755498       6.41694188        8       1.00000000      -0.04155265      -0.02155484       0.01031535
Ni      10.24974571       4.36242053       6.37612785        8       1.00000000       0.09146580      -0.03108188      -0.24945743
Ni       3.82338541       6.45249249       6.38673787        8       1.00000000      -0.00207166      -0.07218529      -0.17188337
Ni       6.34200992       6.47741894       6.37507943        8       1.00000000      -0.01832641       0.03224683      -0.24520438
Pt       8.91448407       6.42509915       6.38473898        8       0.00000000       0.03274441       0.00154213       0.01240923
Ni      11.48997201       6.47764432       6.36596964        8       1.00000000      -0.02166768       0.07519724      -0.14868199
