64
Lattice="10.129226583958546 0.011880317194811972 -0.004179522340762079 5.074901948474992 8.722227507569514 -0.05359258372980311 0.0 0.0 21.36284992464196" Properties=species:S:1:pos:R:3:tags:I:1:initial_magmoms:R:1:forces:R:3 unique_id=e34d6a3d96cc4de485094697ea0b8b0c stress="0.002304640041578985 -6.976580066391189e-05 6.854259961453916e-07 -6.976580066391189e-05 0.0016194374724525194 -0.0003099934839997455 6.854259961453916e-07 -0.0003099934839997455 -0.00498492780926389" energy=-367.1833466475671 pbc="T T T"
Ni       0.04110340      -0.05317934       0.12144193        1       1.00000000       0.08167645      -0.01697846      -0.44553886
Ni       2.48590852      -0.03417274       0.12331295        1       1.00000000       0.04600359      -0.01424574      -0.20881686
Pt       5.08363655      -0.06847206       0.13272908        1       0.00000000      -0.09953562       0.00009373      -0.85492483
Ni       7.61418110      -0.04467438       0.11599819        1       1.00000000      -0.04612825      -0.07517931      -0.51176572
Ni       1.26382602       2.19431012       0.04048587        0       1.00000000      -0.03649152       0.00529576       0.24910646
Pt       3.76470520       2.23690551       0.11155196        1       0.00000000       0.00916079      -0.06933027      -0.79034800
Ni       6.33657849       2.22682147       0.03665720        0       1.00000000      -0.05243593      -0.03851160       0.08476272
Pt       8.87161643       2.24707323       0.03173358        0       0.00000000       0.05500736       0.15184197      -0.89752873
Ni       2.51211331       4.40398971       0.00884495        0       1.00000000       0.05386188      -0.02547491       0.36077757
Ni       5.09125766       4.41234306       0.00819435        0       1.00000000      -0.10156921       0.00975854       0.22404672
Ni       7.57162101       4.41067594       0.01692205        0       1.00000000       0.08524810       0.00615336       0.15863571
Ni      10.16694711       4.41237132       0.01252411        0       1.00000000      -0.03951579      -0.01833921       0.28874283
Ni       3.81169366       6.51610775       0.00000000        0       1.00000000       0.02231409       0.00559322       0.27632912
Ni       6.33272891       6.52968384       0.00205809        0       1.00000000       0.01039186       0.04885832       0.19994635
Ni       8.84757025       6.49371460       0.11262009        1       1.00000000       0.00919461       0.02616633      -0.31527980
Ni      11.43007418       6.49219032       0.00025980        0       1.00000000      -0.01709681       0.06094008       0.29223188
Ni       1.30007592       0.72789726       2.10610699        3       1.00000000       0.00299592       0.11056007       0.10335179
Ni       3.72745642       0.68591645       2.11242249        3       1.00000000      -0.16418448      -0.07991490       0.17005128
Ni       6.35417886       0.72176707       2.09777727        3       1.00000000       0.08377344       0.05014349       0.11325129
Pt       8.88735972       0.73047891       2.11238727        3       0.00000000       0.07095975      -0.10077024       0.19607263
Ni       2.49246528       2.93324224       2.14366718        3       1.00000000      -0.02706603       0.04366429       0.09976536
Ni       5.07527923       2.95797123       2.06426369        3       1.00000000       0.02397368       0.07171320       0.05382937
Ni       7.58072573       2.95306941       2.08459321        3       1.00000000      -0.01957519       0.04405487       0.07861278
Ni      10.18413964       2.95700885       2.11397608        3       1.00000000       0.09521303       0.03142450       0.09734747
Ni       3.79095647       5.07530109       2.05726771        3       1.00000000      -0.04903967      -0.01626162       0.03723256
Ni       6.32060504       5.09722322       2.00450941        2       1.00000000       0.01118460       0.01709792       0.03362523
Ni       8.89742377       5.06531499       2.03540206        2       1.00000000       0.06871935      -0.09961496       0.04715068
Ni      11.40310176       5.08225735       2.06891342        3       1.00000000       0.00835669      -0.02680662       0.12654734
Ni       5.10909880       7.19653993       2.01865792        2       1.00000000      -0.03302725      -0.03595444       0.09299104
Ni       7.59386738       7.27009194       2.02208045        2       1.00000000      -0.04498959       0.00466820       0.06398760
Ni      10.13972979       7.20070400       2.10949865        3       1.00000000       0.01065964      -0.09792081       0.15243803
Ni      12.63499033       7.19358048       2.01714002        2       1.00000000      -0.00528133      -0.07570591       0.08381720
Ni       0.06308475       1.46865539       4.16429405        5       1.00000000       0.10776950      -0.00656714      -0.12395586
Ni       2.47462291       1.45724441       4.13347860        4       1.00000000      -0.03855723      -0.01139386      -0.15367674
Pt       5.03579683       1.40498166       4.07213935        4       0.00000000       0.02888647      -0.01699904      -0.16419026
Ni       7.59716015       1.43397541       4.16846424        5       1.00000000      -0.07574011      -0.11396280      -0.19890906
Ni       1.27321717       3.62251739       4.17606139        5       1.00000000       0.02538906      -0.02189902      -0.09797882
Ni       3.73733980       3.68487823       4.12106866        4       1.00000000      -0.04190621       0.05152420      -0.16577705
Pt       6.32639864       3.62725482       4.17587229        5       0.00000000       0.01911624      -0.02082921       0.00026118
Ni       8.93625569       3.65087621       4.10301998        4       1.00000000       0.07503367       0.07150337      -0.21362865
Ni       2.50574621       5.73305244       4.15669311        5       1.00000000      -0.06071747      -0.03990296      -0.17263702
Ni       5.03868763       5.76732242       4.15980113        5       1.00000000       0.03742646      -0.03215231      -0.16361671
Pt       7.61821164       5.84103869       4.08951978        4       0.00000000       0.00435615       0.03690161       0.04533703
Ni      10.19410237       5.77125659       4.13258826        4       1.00000000      -0.00394679       0.00444903      -0.10607990
Pt       3.80270456       7.87633939       4.11469581        4       0.00000000      -0.01504318       0.01010236      -0.00671262
Ni       6.34750928       8.00030601       4.07661756        4       1.00000000       0.00347008       0.06678607      -0.20763797
Ni       8.86590413       7.96496930       4.07436592        4       1.00000000      -0.03709199       0.03836311      -0.23673169
Ni      11.39240429       7.89496327       4.07850286        4       1.00000000      -0.02211521      -0.10802343      -0.17911081
Pt       0.01268475      -0.07568727       6.36284992        8       0.00000000      -0.19290285       0.19283138       0.29900860
Pt       2.51358070      -0.03157336       6.29986020        7       0.00000000       0.28578491       0.03606796       0.16499457
Pt       5.07876637      -0.04713069       6.23812542        6       0.00000000      -0.21008393      -0.16737505       0.97754311
Pt       7.58316876      -0.07043427       6.35829092        8       0.00000000       0.11577463       0.16113430       0.43035766
Ni       1.26233357       2.21735226       6.26060632        7       1.00000000       0.02356547       0.00793705      -0.12021020
Pt       3.77207417       2.30000789       6.22145130        6       0.00000000      -0.12283216      -0.04572600       0.73647220
Ni       6.32772925       2.20529176       6.30410767        7       1.00000000       0.01716234      -0.01258263       0.09256642
Pt       8.87348751       2.26611976       6.15727220        6       0.00000000      -0.01149655      -0.20457566       0.92095733
Ni       2.50245080       4.39172762       6.25127664        7       1.00000000       0.06328519      -0.04497004      -0.27369795
Ni       5.06823454       4.39966805       6.28941736        7       1.00000000      -0.09059479       0.01791261      -0.12365528
Ni       7.54084185       4.33935505       6.30509719        7       1.00000000      -0.02249913      -0.01439826      -0.02214900
Ni      10.21768648       4.33451452       6.25075785        7       1.00000000       0.03564091       0.00716669      -0.22329537
Ni       3.79831594       6.41330713       6.27227341        7       1.00000000      -0.01215705      -0.01259597      -0.17625376
Ni       6.29855334       6.44856775       6.27263596        7       1.00000000       0.00046208       0.02976687      -0.17729715
Pt       8.89628984       6.38584778       6.34358250        7       0.00000000       0.13267119       0.15503714       0.18801761
Ni      11.44443114       6.44150360       6.23999143        6       1.00000000      -0.03086787       0.08945082      -0.20876200
