64
Lattice="10.463748868692994 0.015457383890688337 0.020783211063556205 5.245260921471884 9.069203334472535 -0.03982546892461638 0.016969420774093136 -0.04734511183928884 8.980087630210082" Properties=species:S:1:pos:R:3:tags:I:1:initial_magmoms:R:1:forces:R:3 unique_id=3bb040cc60804548b52221cfbe1d20db stress="0.000848205771597485 9.36117308456439e-06 -3.5809519223042906e-06 9.36117308456439e-06 0.0008467521013397691 4.6081492786730145e-06 -3.5809519223042906e-06 4.6081492786730145e-06 0.0007143232299607824" energy=-406.63913109654453 pbc="T T T"
Ni      -0.05489023      -0.02355959       0.17835067        4       1.00000000      -0.20626557      -0.06794479       0.11976951
Ni       2.64554732      -0.02964200       0.08189333        4       1.00000000       0.12579012      -0.05605854       0.04361307
Ni       5.25648001      -0.03465370       0.16798813        4       1.00000000       0.10435120      -0.00920038       0.14697689
Ni       7.87342630      -0.04012714       0.13652720        4       1.00000000       0.02692994      -0.13207505       0.11818025
Pt       1.28658509       2.27494877       0.12039881        4       0.00000000       0.00232969       0.00372066      -0.15244918
Pt       3.93349948       2.30187143       0.15765353        4       0.00000000       0.04022611       0.07770075      -0.06915600
Pt       6.57722008       2.19108851       0.14944957        4       0.00000000       0.06340522      -0.13642824      -0.07588804
Ni       9.15265564       2.23898804       0.17223930        4       1.00000000      -0.06658746      -0.13129443       0.15697272
Ni       2.63076300       4.55925194       0.13555390        4       1.00000000       0.06862742      -0.00662117       0.08009584
Ni       5.25323945       4.54077650       0.14343062        4       1.00000000       0.20956773      -0.04483360       0.11108079
Pt       7.92209367       4.56067956       0.14767154        4       0.00000000       0.08183706      -0.02486878      -0.01478292
Ni      10.48340931       4.58495887       0.05726679        4       1.00000000       0.02367936       0.10257986      -0.02794600
Ni       3.90808690       6.83211884       0.15590281        4       1.00000000      -0.02845832       0.08539891       0.14337672
Pt       6.53720411       6.85226360       0.18700513        4       0.00000000       0.00174722       0.00158619       0.03459223
Ni       9.19364367       6.81886889       0.05940955        4       1.00000000       0.01357518      -0.00722733       0.02655996
Ni      11.79953080       6.82651043       0.05041992        4       1.00000000       0.09904908       0.04168821      -0.04198434
Pt       1.28673917       0.65773152       2.19077908        3       0.00000000       0.01041040      -0.05792603      -0.00830409
Pt       3.98679608       0.75631232       2.25821352        3       0.00000000       0.03210561      -0.01274335       0.03017734
Ni       6.58668169       0.73089689       2.27955552        3       1.00000000       0.06685146      -0.06080292       0.02021711
Ni       9.10509069       0.71685913       2.21851994        3       1.00000000      -0.11816502      -0.01551478      -0.04020228
Ni       2.62573705       3.02618250       2.24024974        3       1.00000000      -0.06980613       0.00201325       0.03041292
Ni       5.26449412       3.02005800       2.27032373        3       1.00000000       0.04991408      -0.00931286       0.00630938
Pt       7.79638675       3.00958817       2.36769228        3       0.00000000      -0.04372328       0.00734393      -0.00086002
Pt      10.40106690       3.05809447       2.23589204        3       0.00000000      -0.09204708       0.05300361      -0.01068659
Pt       3.98759880       5.29960680       2.14459089        3       0.00000000       0.04391567      -0.00293563       0.07098611
Ni       6.58825019       5.29276864       2.25668182        3       1.00000000       0.10737948       0.00636035       0.03205265
Ni       9.13847969       5.32148953       2.29271480        3       1.00000000      -0.03383882       0.03902838       0.09615564
Pt      11.77435042       5.31234646       2.16467984        3       0.00000000       0.00676544      -0.01079373       0.00333966
Ni       5.20826703       7.55090765       2.19492121        3       1.00000000      -0.10098436       0.01743036       0.02816049
Ni       7.87893769       7.49615736       2.23554368        3       1.00000000       0.06795914      -0.09228032       0.05705639
Pt      10.47729428       7.53150646       2.14835757        3       0.00000000       0.00762147      -0.03679106       0.02870370
Ni      13.11088144       7.60979612       2.17963355        3       1.00000000      -0.05431468       0.03794580      -0.05634313
Pt      -0.09607387       1.52150817       4.39493977        2       0.00000000      -0.12737566       0.03040150      -0.07309327
Pt       2.64524390       1.47893470       4.41316478        2       0.00000000      -0.06961691      -0.03968654      -0.12183516
Ni       5.29476395       1.50192377       4.41425587        2       1.00000000       0.04009205       0.02541233      -0.16776963
Ni       7.82119724       1.52474228       4.43282107        2       1.00000000      -0.04189339       0.00132061      -0.08469984
Pt       1.24057894       3.81409591       4.43552136        2       0.00000000      -0.02725024       0.03883137      -0.05765574
Pt       4.00395782       3.71950282       4.35706544        2       0.00000000      -0.00579031       0.02460486      -0.02584222
Ni       6.59472116       3.74543467       4.43761851        2       1.00000000       0.00148382       0.01636330       0.03121721
Ni       9.13192455       3.81749363       4.43618420        2       1.00000000      -0.03421582       0.06249568      -0.10218312
Pt       2.58506909       6.04979517       4.41797571        2       0.00000000       0.02018842       0.02134485      -0.01317054
Pt       5.33824278       5.98127291       4.36257948        2       0.00000000       0.03722339      -0.04966436       0.03802695
Ni       7.92077682       5.97430168       4.38409511        2       1.00000000       0.03403664      -0.08670116      -0.18251019
Ni      10.42345922       6.01279342       4.48781344        2       1.00000000      -0.03006930      -0.02385538      -0.05967142
Pt       3.91472874       8.31539935       4.33211902        2       0.00000000       0.00405518      -0.02884274      -0.05526759
Pt       6.58222359       8.25657379       4.37064321        2       0.00000000      -0.02904637       0.03652961      -0.04639369
Pt       9.18384394       8.20124032       4.44882854        2       0.00000000      -0.02304511      -0.00813037      -0.01926873
Pt      11.78191745       8.36599783       4.41091473        2       0.00000000      -0.02424601       0.02144464      -0.02016540
Pt       0.00315593      -0.02968771       6.74893342        1       0.00000000      -0.01126959       0.03442301       0.11027193
Ni       2.64845017      -0.04968715       6.68511044        1       1.00000000       0.03514913       0.02281183      -0.09002514
Pt       5.24043809      -0.13178438       6.75562419        1       0.00000000      -0.01491650      -0.04738240       0.14736983
Ni       7.83729505      -0.02767056       6.68601066        1       1.00000000      -0.03098604       0.03388886      -0.08737254
Pt       1.30848755       2.24145761       6.61175508        1       0.00000000      -0.01550824       0.03001887      -0.02527597
Pt       3.94215484       2.19169821       6.61356956        1       0.00000000       0.02522018      -0.00641167      -0.00449897
Pt       6.56806200       2.19233420       6.54691255        1       0.00000000      -0.03266814      -0.00704518      -0.05475890
Pt       9.15688331       2.26143700       6.70815765        1       0.00000000      -0.01162142       0.05084828       0.14010260
Pt       2.55088317       4.55407673       6.72580804        1       0.00000000      -0.04070293       0.04983151       0.08998027
Pt       5.26351014       4.52250436       6.68536871        1       0.00000000      -0.01930118       0.07021904       0.06990035
Pt       7.95381553       4.56273776       6.53901980        1       0.00000000      -0.00965012       0.03082131      -0.01978586
Ni      10.46527394       4.58455164       6.64716182        1       1.00000000      -0.01811968       0.12544616      -0.12597764
Pt       3.86317176       6.82651597       6.72487647        1       0.00000000      -0.08123141       0.07944266       0.13802062
Pt       6.65733588       6.81548124       6.61672883        1       0.00000000       0.07154570       0.05424716       0.04196388
Ni       9.22479623       6.75962662       6.63444233        1       1.00000000       0.08112948      -0.07406946      -0.10318752
Ni      11.73870927       6.77314097       6.66025723        1       1.00000000      -0.09144700      -0.04910544      -0.15263130
