64
Lattice="10.285567802174613 0.004598456296300637 -0.0012345254250584292 5.146766281058095 8.848613282304957 -0.0391496195003648 -0.001007985788628563 -0.03632865437303737 8.776676029000203" Properties=species:S:1:pos:R:3:tags:I:1:initial_magmoms:R:1:forces:R:3 unique_id=635697c9f8d6458bb54b010e00244c84 stress="0.0001860943547612598 -1.4974350651112085e-06 2.6074931207615542e-06 -1.4974350651112085e-06 0.00020383002042469872 1.1550151852181069e-05 2.6074931207615542e-06 1.1550151852181069e-05 0.00018879065056694871" energy=-396.48673317623627 pbc="T T T"
Ni       0.01295517      -0.00460530       0.17932221        4       1.00000000       0.06472122       0.04072241       0.31332632
Ni       2.56413446       0.00145443       0.19868541        4       1.00000000      -0.02359677       0.01274900       0.35728997
Ni       5.14064494      -0.01971008       0.16821814        4       1.00000000      -0.04146695       0.04237825       0.22717009
Ni       7.70564512      -0.05371381       0.18828932        4       1.00000000      -0.02112785      -0.08361902       0.34995773
Ni       1.28447539       2.21915425       0.09994182        4       1.00000000       0.00590552       0.02425598       0.24817272
Pt       3.77209406       2.17826116       0.17819863        4       0.00000000      -0.09738550      -0.01302406       0.20648642
Pt       6.44274954       2.17272374       0.09362644        4       0.00000000       0.03478449      -0.04277488      -0.07090686
Pt       9.07223293       2.26223213       0.11116278        4       0.00000000       0.07974458       0.06537218       0.13629167
Ni       2.53655514       4.44896771       0.04620609        4       1.00000000      -0.06536539       0.03162326       0.01059133
Pt       5.09905788       4.46785348       0.07768914        4       0.00000000      -0.09264143       0.06223774      -0.09368528
Ni       7.73184968       4.44615127       0.05515395        4       1.00000000      -0.04528963       0.04033625       0.10205687
Ni      10.31776496       4.45363116       0.04152684        4       1.00000000       0.12192341       0.13560180       0.03357098
Ni       3.81135812       6.66176186       0.07441948        4       1.00000000      -0.06672192       0.06209892       0.17616124
Pt       6.45640359       6.69464374       0.07352554        4       0.00000000      -0.01608955      -0.00856075      -0.17159036
Ni       9.01321700       6.63550388       0.10941547        4       1.00000000      -0.04255337      -0.02879338       0.11343188
Ni      11.59825864       6.63495988       0.03628110        4       1.00000000       0.10119015      -0.04809971      -0.00508760
Ni       1.31655696       0.74143002       2.21651676        3       1.00000000       0.02493976       0.05100397       0.13474275
Ni       3.80673794       0.73776668       2.21101855        3       1.00000000      -0.17090937       0.01206756       0.04065301
Ni       6.43539376       0.74806133       2.20075025        3       1.00000000       0.05408778       0.01294690       0.06611967
Pt       9.01940591       0.73618213       2.22175003        3       0.00000000       0.07124523       0.22063854      -0.05768354
Ni       2.55869563       2.91306378       2.25575829        3       1.00000000       0.00570503      -0.10220624       0.20725185
Ni       5.12876990       2.96682819       2.21714352        3       1.00000000      -0.10337846       0.14817390      -0.04275414
Ni       7.69506819       2.93955641       2.22436509        3       1.00000000       0.01792287      -0.08911237      -0.04495956
Ni      10.33732462       2.92351373       2.24343598        3       1.00000000       0.14034828      -0.07398106       0.15625267
Ni       3.86582815       5.15235271       2.19849280        3       1.00000000      -0.01782973      -0.03343993       0.04241586
Ni       6.41690740       5.15891501       2.19268754        3       1.00000000      -0.00484608       0.02948215      -0.07434911
Pt       8.94940292       5.10971224       2.19867302        3       0.00000000      -0.01978467      -0.07599346      -0.00721876
Pt      11.63954755       5.10611126       2.19552973        3       0.00000000       0.05939736      -0.08560974       0.07921063
Ni       5.16040395       7.34917269       2.16596051        3       1.00000000       0.03653492      -0.03985574      -0.01323892
Ni       7.66636398       7.39619215       2.17727821        3       1.00000000      -0.15487721      -0.01696722       0.06327996
Pt      10.29439538       7.39320744       2.09657897        3       0.00000000       0.03185157      -0.08012651      -0.00086115
Ni      12.89494344       7.34202616       2.12747102        3       1.00000000       0.11038952      -0.13714254       0.01979910
Ni       0.05933213       1.50350410       4.32755595        2       1.00000000       0.13210065       0.08055328      -0.08311885
Ni       2.49919140       1.50294933       4.30854587        2       1.00000000      -0.08171877       0.07274254      -0.08425647
Pt       5.12032724       1.49421629       4.25404704        2       0.00000000      -0.14579207       0.05158164       0.04216393
Ni       7.73502673       1.48209374       4.33318021        2       1.00000000       0.04289527      -0.05042771      -0.07016638
Ni       1.28940712       3.65569225       4.37026997        2       1.00000000       0.01875676      -0.04056862      -0.03298915
Ni       3.79127868       3.70549916       4.30333828        2       1.00000000      -0.13134015      -0.00979059      -0.21234689
Pt       6.50918126       3.68418974       4.32984917        2       0.00000000       0.07365601      -0.09574422      -0.10787801
Ni       9.05060724       3.69568877       4.31854282        2       1.00000000       0.19845220      -0.02450037      -0.13962135
Ni       2.56319139       5.81376693       4.37096390        2       1.00000000      -0.00183722      -0.11315057      -0.01804973
Pt       5.14200565       5.86442457       4.31949824        2       0.00000000       0.01562150      -0.04598409      -0.14065748
Ni       7.71825409       5.86684828       4.33388701        2       1.00000000       0.00560135       0.02069779      -0.10179667
Ni      10.30627627       5.80561611       4.36350061        2       1.00000000       0.06841495      -0.15001064      -0.02928202
Pt       3.89915564       8.09257297       4.28350692        2       0.00000000      -0.03876258       0.01910747       0.15703780
Ni       6.42859719       8.10990882       4.27578319        2       1.00000000      -0.05658605       0.09086197      -0.15629047
Pt       8.91233858       8.06537803       4.25195548        2       0.00000000      -0.07752859      -0.04476990       0.11286004
Pt      11.58968148       8.02391687       4.28214628        2       0.00000000       0.02796567      -0.07243253       0.10464482
Pt       0.01470966      -0.05344192       6.54330261        1       0.00000000       0.08359928      -0.03635659       0.15344328
Pt       2.54498383      -0.01540732       6.53692664        1       0.00000000      -0.07731804       0.04081584       0.16300973
Pt       5.14963737      -0.03012817       6.58075223        1       0.00000000       0.04952537       0.03608046       0.05148084
Pt       7.71946317      -0.05896967       6.57812142        1       0.00000000      -0.10157584      -0.05714702       0.20085051
Ni       1.27933036       2.24923565       6.46494023        1       1.00000000      -0.00918466       0.13606137      -0.20317070
Pt       3.81843754       2.31449855       6.43317693        1       0.00000000      -0.02521144       0.24072414      -0.23584966
Ni       6.43471679       2.22902575       6.42911947        1       1.00000000      -0.03185598       0.03609143      -0.24781283
Pt       9.01901898       2.29003511       6.37719915        1       0.00000000      -0.00276572       0.10622281      -0.34391306
Ni       2.53734492       4.44215392       6.45661197        1       1.00000000      -0.08689224       0.12864081      -0.23460190
Ni       5.15046901       4.43234996       6.42024574        1       1.00000000       0.00584033       0.10199632      -0.22240395
Ni       7.68482886       4.40214518       6.47926418        1       1.00000000      -0.14452319      -0.00561319      -0.11893033
Ni      10.34820171       4.39941335       6.45693587        1       1.00000000       0.25633961      -0.02896441      -0.23280541
Ni       3.84381284       6.54169041       6.48420974        1       1.00000000      -0.03885616      -0.15806124      -0.08500813
Ni       6.42185428       6.56250174       6.40246152        1       1.00000000       0.02084920      -0.03512941      -0.25582935
Pt       9.01007443       6.47971434       6.49255343        1       0.00000000       0.04327050      -0.11912762       0.03113607
Ni      11.60301335       6.53520286       6.47694204        1       1.00000000       0.03203226      -0.10678135      -0.16174573
