64
Lattice="10.338097627709722 -0.037076242294335586 0.03744274269524336 5.136939846151101 8.935055128872278 -0.003995401386523429 0.0 0.0 21.622936468650153" Properties=species:S:1:pos:R:3:tags:I:1:initial_magmoms:R:1:forces:R:3 unique_id=2bc84f1f728d455988f9b674e10a1245 energy=-378.21644958864863 stress="0.006014878933998248 -0.00016515822337127882 7.450380486852663e-05 -0.00016515822337127882 0.005528787617883286 -0.0001196246090904197 7.450380486852663e-05 -0.0001196246090904197 -0.0008796372754381783" pbc="T T T"
Ni       0.04756431      -0.00077228       0.10189537        1       1.00000000       0.14903099      -0.00156586      -0.02735552
Ni       2.54343541       0.00166113       0.14230650        1       1.00000000      -0.10855328       0.04209115       0.06470662
Pt       5.09243379      -0.06279539       0.07714693        1       0.00000000      -0.15423257       0.15152395      -0.92213827
Pt       7.80331004      -0.14819350       0.12457616        1       0.00000000      -0.02065886      -0.08677961      -0.79520942
Ni       1.29443501       2.23962350       0.03953714        0       1.00000000      -0.02182860       0.03319535       0.48888203
Pt       3.77454911       2.28420661       0.06250469        1       0.00000000       0.04404027      -0.03808654       0.17001776
Pt       6.43018584       2.27602700       0.11594853        1       0.00000000       0.05073736       0.04914271      -0.71153920
Pt       9.14416316       2.23574698       0.11979039        1       0.00000000      -0.08333117       0.08277093      -0.46771187
Ni       2.56785847       4.48871828       0.00000000        0       1.00000000       0.06575722       0.02968222       0.35006316
Ni       5.10858802       4.48983539       0.04706527        0       1.00000000      -0.08760744       0.13991083       0.43726477
Pt       7.78148568       4.51590063       0.07087730        1       0.00000000       0.03961895       0.08560127       0.05043405
Ni      10.37139238       4.45767052       0.04138565        0       1.00000000       0.06129079      -0.00797074       0.30449395
Ni       3.84235445       6.64418699       0.03592892        0       1.00000000      -0.02220136      -0.15474353       0.50073243
Pt       6.39553738       6.73477494       0.13643548        1       0.00000000      -0.00421598       0.04338032      -0.16380851
Ni       9.02704479       6.65810709       0.11612126        1       1.00000000      -0.13681158      -0.00916777      -0.21993875
Ni      11.61965963       6.61247331       0.03519384        0       1.00000000       0.05741306       0.00566275       0.21553992
Ni       1.33549497       0.72984830       2.16869434        3       1.00000000       0.17729409      -0.01233368       0.05703120
Ni       3.82347580       0.75713756       2.19435480        3       1.00000000      -0.10485917       0.05207323       0.17241877
Pt       6.41787890       0.77671731       2.26320702        4       0.00000000      -0.10570712       0.18249170       0.10518379
Pt       9.17449010       0.69518852       2.24571093        3       0.00000000       0.16141991       0.02470063       0.04473870
Ni       2.58615666       2.95862341       2.18631323        3       1.00000000       0.01381491      -0.01856663       0.12861359
Ni       5.11340980       3.02203729       2.22630624        3       1.00000000      -0.20886589       0.20267523       0.16285291
Ni       7.77135559       3.02103542       2.22702350        3       1.00000000       0.07973589       0.15314952       0.22107075
Ni      10.36571270       2.95075740       2.23942551        3       1.00000000       0.13424656      -0.02191715       0.23842369
Ni       3.90206058       5.19976279       2.18001669        3       1.00000000       0.16542715      -0.03116493       0.06588852
Ni       6.43166017       5.20806158       2.21857924        3       1.00000000      -0.10198561       0.05841216       0.15482807
Ni       8.99814043       5.15020161       2.22050576        3       1.00000000      -0.13733236      -0.19649408       0.26124118
Pt      11.67951351       5.11724554       2.13753199        2       0.00000000       0.17392441      -0.16286189       0.01616452
Ni       5.16896213       7.40012775       2.20068341        3       1.00000000       0.04995868      -0.19010602       0.20087980
Ni       7.68234545       7.42878983       2.20106565        3       1.00000000      -0.17442486      -0.00917749       0.26079928
Pt      10.26558873       7.34260544       2.16764654        3       0.00000000       0.02406197      -0.13721893      -0.13597521
Ni      12.95000881       7.34485154       2.20768607        3       1.00000000       0.20241504      -0.22098033       0.12736741
Ni       0.04393195       1.48308423       4.34854051        5       1.00000000       0.09937942      -0.09501252      -0.21301362
Pt       2.59225832       1.50307213       4.30954436        5       0.00000000       0.00359531      -0.06352519      -0.11068650
Ni       5.14135720       1.51236278       4.36937344        6       1.00000000      -0.11353592       0.13102246      -0.27363752
Pt       7.80410017       1.52210500       4.35454712        6       0.00000000       0.06159786       0.02133585      -0.10411652
Pt       1.31084341       3.70360057       4.40581539        6       0.00000000       0.02008358       0.01135000      -0.03836329
Ni       3.88766822       3.74345848       4.38119100        6       1.00000000       0.00598433       0.12234918      -0.16253598
Pt       6.41499513       3.79968183       4.30046226        5       0.00000000      -0.05610707       0.06603610      -0.14569288
Ni       9.03632529       3.71331656       4.35657732        6       1.00000000      -0.10815753       0.06123117      -0.35505909
Ni       2.63209525       5.90506767       4.39262264        6       1.00000000       0.14155353      -0.20161483      -0.08780516
Ni       5.13976950       5.91275487       4.33642238        5       1.00000000      -0.07835303      -0.11370776      -0.34693270
Ni       7.71655621       5.91794999       4.33762101        5       1.00000000      -0.08662309       0.04472479      -0.45913041
Pt      10.30134997       5.84495189       4.39420654        6       0.00000000      -0.07839436      -0.04477949      -0.07078449
Pt       3.95503053       8.07500248       4.30671091        5       0.00000000       0.11661834      -0.14311496       0.04087640
Ni       6.44216974       8.14737234       4.31996641        5       1.00000000      -0.00939718      -0.06089750      -0.38342322
Pt       8.94028213       8.14898019       4.29989501        5       0.00000000      -0.11805320      -0.07915229      -0.12870807
Pt      11.64104176       8.09188707       4.34655149        5       0.00000000       0.04884389      -0.17548814      -0.09949118
Pt       0.03286576      -0.00269846       6.56830206        8       0.00000000       0.09782148       0.08626397       0.13803516
Pt       2.59217078       0.04249718       6.61396283        8       0.00000000      -0.02435017      -0.12132934       0.16543843
Pt       5.17680735      -0.01834960       6.50306696        7       0.00000000      -0.01849409       0.15323383       0.85756224
Pt       7.78913456      -0.11916360       6.55263868        8       0.00000000       0.00983852       0.17817915       0.92033017
Ni       1.33571365       2.27733163       6.55556361        8       1.00000000       0.08815858       0.10251834      -0.20268920
Ni       3.85854819       2.28178529       6.48481957        7       1.00000000      -0.04938923       0.19242583      -0.13860986
Pt       6.41008717       2.30271202       6.51512327        7       0.00000000      -0.02903794      -0.03960806       0.63945700
Pt       9.13507705       2.30361655       6.50878923        7       0.00000000       0.02032579       0.03505125       0.60929659
Ni       2.60466947       4.46920951       6.54686460        7       1.00000000       0.11174107       0.00736930      -0.48574731
Ni       5.10666874       4.45241512       6.54323899        7       1.00000000      -0.27964603       0.01632440      -0.41480070
Ni       7.75863965       4.43829866       6.49059171        7       1.00000000       0.04363704       0.04558335      -0.10986397
Ni      10.39757130       4.43325398       6.59197406        8       1.00000000       0.15837586       0.04213002      -0.13875134
Ni       3.84380255       6.61159564       6.53811422        7       1.00000000      -0.07063655      -0.16968134      -0.38790104
Pt       6.40026938       6.58829905       6.45668849        7       0.00000000       0.00430232       0.05946635       0.15529814
Pt       9.06653208       6.57537535       6.62293647        8       0.00000000      -0.16059828       0.02201645       0.23015912
Ni      11.66379940       6.58670300       6.58813246        8       1.00000000       0.07134536      -0.12802913      -0.25466931
