64
Lattice="10.111265071664565 0.018757420966290274 0.0005835522629432673 5.071876938898627 8.771945114775681 -0.013088320599490139 0.0 0.0 21.413750436570265" Properties=species:S:1:pos:R:3:tags:I:1:initial_magmoms:R:1:forces:R:3 unique_id=0dca1b1674b949eea2679baeaa91b37d stress="0.003985019221091421 1.977237916568275e-05 8.022926990706653e-05 1.977237916568275e-05 0.0037905319734788893 -2.63768523929787e-05 8.022926990706653e-05 -2.63768523929787e-05 -0.0019079274990300493" energy=-368.50139156246604 pbc="T T T"
Ni       0.02579552      -0.04298508       0.01533139        0       1.00000000       0.01632298      -0.02815507       0.19040792
Ni       2.48282696       0.00406856       0.08028703        1       1.00000000       0.03284857       0.13370323      -0.35910905
Pt       5.08182218      -0.05030908       0.12188109        1       0.00000000      -0.06643316      -0.04994141      -0.68583703
Ni       7.59945545      -0.03270460       0.08762380        1       1.00000000      -0.00865236      -0.10096526      -0.25838434
Ni       1.26198658       2.20771351       0.03925582        0       1.00000000      -0.03973053       0.07485028       0.24489142
Pt       3.76479277       2.26022182       0.11303242        1       0.00000000      -0.00877937       0.01206556      -0.61692332
Ni       6.32751668       2.24263189       0.04154077        0       1.00000000      -0.01372082       0.01146196       0.18493039
Pt       8.85577646       2.25711332       0.07466305        1       0.00000000       0.03023488       0.14979625      -0.80873444
Ni       2.51117320       4.42904241       0.02837171        0       1.00000000       0.05164037       0.00769053       0.36469287
Ni       5.08293237       4.43390150       0.02910400        0       1.00000000      -0.09261096       0.05170323       0.29154536
Ni       7.56407557       4.42830967       0.03254431        0       1.00000000       0.05918606       0.05097359       0.25887447
Ni      10.14820828       4.43409464       0.03472989        0       1.00000000      -0.01164511      -0.01946573       0.35806971
Ni       3.80503411       6.56186094       0.02320552        0       1.00000000       0.01196464      -0.00209523       0.35081801
Ni       6.30296464       6.56374562       0.00000000        0       1.00000000      -0.06282240      -0.01606870       0.18884258
Ni       8.86592391       6.52814187       0.09997833        1       1.00000000       0.13373095      -0.09978788      -0.36619592
Ni      11.41245098       6.54263424       0.03612901        0       1.00000000       0.00404616       0.02636211       0.30299090
Ni       1.28641653       0.76495549       2.08683131        2       1.00000000      -0.02231786       0.14725826      -0.01406081
Ni       3.76040391       0.74325700       2.14066903        2       1.00000000      -0.15330138       0.00030969       0.08287682
Ni       6.33241792       0.74120244       2.12454966        2       1.00000000       0.03441770       0.01601589      -0.00760810
Pt       8.83460441       0.67539945       2.13922317        2       0.00000000       0.05546319      -0.10190020      -0.10175152
Ni       2.49764688       2.95632747       2.16524882        3       1.00000000      -0.01489380       0.10049107       0.13776266
Ni       5.07332274       2.97230989       2.10212005        2       1.00000000      -0.02210402       0.11354238      -0.05260308
Ni       7.56592217       2.97067930       2.12475386        2       1.00000000       0.04101300       0.00028538       0.10838819
Ni      10.15854917       2.99378755       2.12551607        2       1.00000000       0.04330976       0.09312629       0.08653161
Ni       3.80339431       5.11024231       2.07555278        2       1.00000000      -0.03288399      -0.05348990      -0.03024094
Ni       6.29962115       5.10601437       2.05658472        2       1.00000000      -0.04116099       0.02109211      -0.00516130
Ni       8.89136368       5.08715338       2.08627894        2       1.00000000       0.05481569      -0.10250797       0.06564684
Ni      11.37861232       5.12172708       2.08441229        2       1.00000000       0.00162598      -0.03112135       0.07249330
Ni       5.04873468       7.25833220       2.09371878        2       1.00000000      -0.08183141      -0.17281337       0.06815238
Pt       7.58236807       7.32586708       2.06971244        2       0.00000000      -0.06433324       0.00495816      -0.10959372
Ni      10.16512615       7.26587289       2.16029703        3       1.00000000       0.05876104      -0.09162848       0.22097996
Ni      12.63393761       7.27552527       2.08141877        2       1.00000000      -0.05678155      -0.17252759      -0.01165425
Pt       0.07022653       1.45474701       4.21192082        5       0.00000000       0.03983812       0.02656813       0.15673674
Ni       2.52621068       1.47394876       4.18517213        5       1.00000000       0.11648760      -0.00465671      -0.27896045
Pt       5.04644319       1.43387794       4.11824129        4       0.00000000       0.01767400      -0.07249601       0.07771235
Ni       7.58263862       1.44468699       4.22027446        5       1.00000000      -0.00875782      -0.05430689      -0.20243982
Ni       1.27555111       3.65730563       4.23907138        5       1.00000000       0.04364651       0.02786931      -0.12501369
Ni       3.76582261       3.68422315       4.18486041        5       1.00000000      -0.02045964      -0.00480454      -0.24528649
Pt       6.31540157       3.66139332       4.23183955        5       0.00000000      -0.03348765      -0.05890029       0.02860547
Ni       8.90173447       3.69667180       4.19287295        5       1.00000000       0.14138779       0.04438796      -0.25485113
Pt       2.54006661       5.83412112       4.21746621        5       0.00000000      -0.00151190       0.03944981      -0.05486410
Ni       5.04633529       5.87384811       4.23911171        5       1.00000000      -0.01302940      -0.00112413      -0.18045759
Pt       7.59726693       5.86502503       4.21147443        5       0.00000000       0.06683513       0.02525957       0.11921160
Ni      10.14484823       5.83760033       4.20584390        5       1.00000000      -0.00242198       0.01070726      -0.18631485
Ni       3.83327863       8.00026982       4.22509980        5       1.00000000       0.04440026      -0.05746770      -0.09337286
Ni       6.29690046       8.02016269       4.21632828        5       1.00000000      -0.02082831      -0.05168878      -0.13957930
Ni       8.86095443       8.03486028       4.18935273        5       1.00000000       0.01166749       0.00371917      -0.21438772
Ni      11.40351463       8.01334343       4.16315939        5       1.00000000      -0.00609750      -0.02647252      -0.22736596
Ni      -0.00459962      -0.05351355       6.35718281        7       1.00000000      -0.07242028      -0.03788850      -0.11828702
Pt       2.43051259      -0.00606671       6.35397639        7       0.00000000       0.21130725      -0.00091571       0.12758156
Pt       5.07688690      -0.01873833       6.30766025        6       0.00000000      -0.09112887      -0.12349374       0.80842688
Pt       7.64884115      -0.05873715       6.35812381        7       0.00000000      -0.02636310       0.03045606       0.16857216
Ni       1.25888555       2.23552264       6.36082995        7       1.00000000       0.02914392       0.13559393      -0.06022172
Pt       3.76913543       2.30735101       6.29931681        6       0.00000000      -0.13663332       0.06499153       0.62825318
Ni       6.32792603       2.23163213       6.37008931        7       1.00000000       0.01590820      -0.03921928       0.02207160
Pt       8.85470559       2.27861809       6.29752609        6       0.00000000      -0.14084093       0.02893600       0.88608512
Ni       2.51120009       4.42465762       6.35910973        7       1.00000000       0.07621590      -0.01847158      -0.18906600
Ni       5.06965967       4.44217178       6.36606852        7       1.00000000      -0.12335676       0.06080719      -0.20082982
Ni       7.54393009       4.39130385       6.38118838        7       1.00000000      -0.07305892       0.00729080      -0.00822520
Ni      10.18218179       4.38833454       6.34293328        6       1.00000000       0.07004855      -0.03088112      -0.22908552
Ni       3.84278904       6.52680956       6.35815980        7       1.00000000       0.02454074      -0.08183474      -0.25450142
Ni       6.26432075       6.54819584       6.35722215        7       1.00000000      -0.01038148       0.01776027      -0.17824268
Pt       8.88211423       6.47810369       6.41375044        7       0.00000000       0.03766205       0.09505144       0.37719896
Ni      11.42349067       6.52401947       6.36115892        7       1.00000000      -0.00136368       0.07255600      -0.11013988
