64
Lattice="10.32536610892628 0.014677796252360003 -0.013389684137253088 5.175394398889259 8.871723267450479 -0.11336307892428368 -0.01093263131776936 -0.10056777815713042 8.80122744982965" Properties=species:S:1:pos:R:3:tags:I:1:initial_magmoms:R:1:forces:R:3 unique_id=23135479848c4d2c85ca60e1ee497c84 stress="0.00018621314106471998 -1.5277727488651703e-06 9.784663230038214e-06 -1.5277727488651703e-06 0.00020189751304851983 3.882436280495111e-05 9.784663230038214e-06 3.882436280495111e-05 0.00019197375512992887" energy=-396.87123999686503 pbc="T T T"
Ni       0.00507656       0.00763548       0.18365535        4       1.00000000       0.04184854       0.03980633       0.30550209
Ni       2.58022527      -0.00804736       0.20645247        4       1.00000000       0.04066054      -0.02558097       0.36456118
Ni       5.16675008      -0.02702012       0.07348927        4       1.00000000       0.00902369      -0.02999248       0.04900104
Ni       7.74861850      -0.01908127       0.04690618        4       1.00000000       0.02990524      -0.06200398       0.01388391
Ni       1.26197170       2.21331714       0.16391294        4       1.00000000      -0.14256892      -0.02095072       0.26940932
Pt       3.82830209       2.20665160       0.16817340        4       0.00000000      -0.04411114      -0.03832462       0.29159437
Pt       6.50941087       2.21008904       0.15231447        4       0.00000000       0.08708040      -0.05036608       0.31075796
Ni       9.07044765       2.24581419       0.11297567        4       1.00000000       0.12263511       0.06995416       0.13284965
Ni       2.55850686       4.43849254      -0.00768907        4       1.00000000      -0.19330421      -0.09028860      -0.05455721
Ni       5.16632172       4.43736890      -0.01311881        4       1.00000000       0.07614411      -0.10653376      -0.00863934
Ni       7.80347612       4.42896530       0.01157309        4       1.00000000       0.21360232      -0.07762205       0.06772805
Ni      10.31512914       4.42411758       0.00593057        4       1.00000000      -0.08461848      -0.13232595       0.01925745
Ni       3.86870953       6.64818146      -0.03559575        4       1.00000000      -0.00563805      -0.03173989      -0.02159586
Pt       6.46328977       6.67447399      -0.03293467        4       0.00000000      -0.02396498      -0.05525370      -0.16685031
Ni       9.04619775       6.63309180       0.05401017        4       1.00000000      -0.11723304      -0.19771734       0.14056450
Ni      11.62415830       6.64767940      -0.05983118        4       1.00000000      -0.05906507      -0.16624041      -0.14048652
Ni       1.29549129       0.73017415       2.14946020        3       1.00000000      -0.05118471       0.02878182      -0.04433848
Ni       3.86794122       0.72375862       2.19968043        3       1.00000000       0.06626066       0.00671834       0.07703406
Ni       6.42901320       0.75415931       2.23451257        3       1.00000000      -0.01640435       0.07322445       0.16347814
Pt       9.06055727       0.80835888       2.17451101        3       0.00000000      -0.07757610      -0.02109380       0.07827435
Ni       2.53038009       2.89753073       2.17208590        3       1.00000000      -0.16245990      -0.00854348      -0.02118078
Ni       5.17386105       2.88988722       2.21048352        3       1.00000000       0.02985936      -0.13618420       0.09653540
Ni       7.80174936       2.95346275       2.18133149        3       1.00000000       0.21975079       0.07318622       0.04219237
Ni      10.31700359       2.94389072       2.16741008        3       1.00000000      -0.01692639       0.02261032       0.13006592
Pt       3.88721228       5.11330775       2.06248471        3       0.00000000       0.02114526      -0.05577902      -0.15770545
Pt       6.54380018       5.13940282       2.12261233        3       0.00000000       0.04071925       0.08142089      -0.11887255
Ni       9.04012788       5.12021559       2.13992335        3       1.00000000       0.06717758      -0.07821436       0.07278527
Pt      11.55701982       5.07940022       2.14130898        3       0.00000000       0.03609205       0.00512625      -0.01348409
Ni       5.18750591       7.39710560       2.08384333        3       1.00000000      -0.05030742      -0.01565360      -0.07082765
Ni       7.75125330       7.39919486       2.08853494        3       1.00000000       0.01571886       0.01305391      -0.00091440
Pt      10.28903058       7.40101613       2.04172080        3       0.00000000      -0.03013497      -0.01978454      -0.00491961
Pt      12.89848024       7.41102017       2.04724145        3       0.00000000      -0.01589854      -0.00128303      -0.08692088
Ni      -0.03049393       1.48916489       4.33218246        2       1.00000000      -0.05407949       0.15927135      -0.00446064
Pt       2.53447407       1.46121949       4.23077398        2       0.00000000      -0.05084418       0.07087804       0.11559497
Ni       5.20251142       1.39844588       4.29953253        2       1.00000000       0.04481578      -0.00411974      -0.11427114
Ni       7.73615881       1.43171099       4.31231294        2       1.00000000      -0.03765207       0.05273667      -0.08991692
Ni       1.23060273       3.68919959       4.33184164        2       1.00000000      -0.10241983       0.02619005      -0.02741109
Pt       3.82533570       3.67976826       4.30447978        2       0.00000000      -0.09522944      -0.08328703       0.00844235
Pt       6.54040068       3.61952945       4.28897600        2       0.00000000       0.04034927      -0.11286694       0.10610734
Ni       9.08060074       3.67951410       4.29730136        2       1.00000000       0.14155886       0.07677369      -0.16141993
Ni       2.50823685       5.86939855       4.36079881        2       1.00000000      -0.19180656       0.05828699      -0.06551139
Pt       5.15117123       5.87181498       4.36715266        2       0.00000000      -0.04904806       0.05020052      -0.12661736
Ni       7.80663852       5.83430299       4.29765938        2       1.00000000       0.21268053      -0.04185356      -0.11035201
Ni      10.35502429       5.82386354       4.30977558        2       1.00000000       0.01812381      -0.02420840      -0.07777927
Pt       3.77989342       8.11097937       4.29600935        2       0.00000000       0.02285828       0.02398065       0.06998889
Pt       6.46057240       8.07761872       4.18235439        2       0.00000000      -0.06503661       0.04473107       0.00027975
Pt       9.11748227       8.06153255       4.24985822        2       0.00000000      -0.04085475      -0.05691173       0.07430290
Ni      11.61720799       8.09390805       4.30766919        2       1.00000000      -0.05884416      -0.03249224      -0.05334789
Pt      -0.06428156      -0.13367256       6.60899837        1       0.00000000      -0.07015328      -0.03643698       0.19702601
Pt       2.59717981      -0.10127369       6.61014201        1       0.00000000       0.01807135      -0.01245474       0.23896124
Ni       5.21230926      -0.10121164       6.51745292        1       1.00000000       0.09819282      -0.11553802      -0.12199803
Ni       7.68166665      -0.11017012       6.52423183        1       1.00000000      -0.11446150      -0.10386400      -0.09777707
Pt       1.27604048       2.25441214       6.52497220        1       0.00000000       0.06449893       0.11227691       0.17806071
Pt       3.89623945       2.19606319       6.47345858        1       0.00000000      -0.00309950       0.17964816      -0.23367189
Pt       6.45617186       2.11775923       6.44215012        1       0.00000000       0.00618373       0.00768206      -0.21970924
Pt       9.01022546       2.22813013       6.47153095        1       0.00000000       0.03194700       0.16045371       0.00266397
Ni       2.56259872       4.45647322       6.46338624        1       1.00000000      -0.05174347       0.26672415      -0.18193701
Ni       5.16361887       4.42379435       6.48814901        1       1.00000000       0.02517068       0.11802001      -0.11754925
Ni       7.73122998       4.40385700       6.46064893        1       1.00000000      -0.08800937       0.06154328      -0.14168123
Ni      10.35168530       4.41707150       6.43501446        1       1.00000000       0.19870084       0.09648871      -0.21347508
Ni       3.81805821       6.54704348       6.45666463        1       1.00000000      -0.18812307      -0.01616466      -0.11248250
Ni       6.45577258       6.53805093       6.37689168        1       1.00000000       0.13972998      -0.02109521      -0.30551816
Pt       9.09353133       6.50091326       6.45670433        1       0.00000000       0.11257696       0.03530842       0.11020965
Ni      11.65256387       6.59406488       6.40749645        1       1.00000000       0.05971904       0.06769270      -0.23893260
