64
Lattice="10.793735682364911 0.0005266823577099455 0.004571983587707146 5.3973239614839565 9.347656090159061 -0.0005513250821164154 0.0 0.0 22.06252700429075" Properties=species:S:1:pos:R:3:tags:I:1:initial_magmoms:R:1:forces:R:3 unique_id=7569d34e26ef4f9883d11de78a948cae energy=-406.2057391945971 stress="0.002516130939533843 -2.4227975781542437e-06 -2.4818745955397728e-05 -2.4227975781542437e-06 0.0024747715130909037 1.8861254873653254e-05 -2.4818745955397728e-05 1.8861254873653254e-05 -0.0018936793960297165" pbc="T T T"
Pt       0.00599346       0.00064437       0.07259998        1       0.00000000       0.05375093       0.00272340      -0.27841078
Pt       2.71810726       0.02693622       0.07068499        1       0.00000000      -0.01501504       0.01041864      -0.20909398
Pt       5.38089463       0.02868974       0.00000000        0       0.00000000       0.00074151       0.02374156       0.07509424
Pt       8.08625303       0.00418223       0.06683161        1       0.00000000      -0.05543206       0.03316250      -0.31542148
Pt       1.38204300       2.33648718       0.07216208        1       0.00000000       0.02302363      -0.02176477      -0.28651623
Ni       4.04937280       2.33365176       0.05975312        1       1.00000000      -0.00392740      -0.00204898       0.41500689
Pt       6.71171334       2.33468717       0.07242243        1       0.00000000      -0.02100629      -0.01103008      -0.22763607
Pt       9.44303863       2.33891641       0.07653782        1       0.00000000      -0.03115831      -0.00065423      -0.28194336
Pt       2.71794994       4.64677598       0.07426959        1       0.00000000       0.04800442       0.01293283      -0.22751228
Pt       5.39025078       4.65192559       0.09139563        1       0.00000000       0.11734621       0.05848708      -0.18775027
Pt       8.08228806       4.67707073       0.09321476        1       0.00000000      -0.19816347       0.04035012      -0.23039000
Pt      10.79567922       4.67226466       0.07641634        1       0.00000000       0.04332078      -0.00502148      -0.29240129
Pt       4.04902670       7.00417819       0.07158741        1       0.00000000      -0.02890681      -0.05414374      -0.31423371
Pt       6.74629193       6.99968615       0.09102987        1       0.00000000       0.00627441      -0.14110704      -0.22400834
Pt       9.44576680       7.01813001       0.07016251        1       0.00000000       0.00938399       0.06113418      -0.28712396
Pt      12.14053383       7.01503488       0.06724564        1       0.00000000       0.01336058      -0.00848865      -0.31146873
Pt       1.35361654       0.77285486       2.36524815        3       0.00000000       0.02954357      -0.06000236       0.52105216
Pt       4.05374433       0.79001042       2.34327417        2       0.00000000       0.07012218       0.07236563       0.34616469
Pt       6.74065468       0.78335454       2.37274928        3       0.00000000      -0.04878775       0.01286400       0.50645058
Pt       9.44462422       0.77854321       2.37188296        3       0.00000000      -0.03105859       0.00692189       0.53506916
Pt       2.71802935       3.11056344       2.34025337        2       0.00000000       0.16371180      -0.04542934       0.35952858
Pt       5.40349615       3.13636838       2.34342149        2       0.00000000      -0.05230704      -0.04065347       0.39617674
Pt       8.07317955       3.14572951       2.36895739        3       0.00000000      -0.10077804       0.04449499       0.50787423
Pt      10.79330553       3.11886422       2.36922969        3       0.00000000      -0.01134804       0.02732794       0.51852931
Pt       4.08383349       5.44903298       2.36909552        3       0.00000000       0.07169585      -0.00279297       0.50778124
Ni       6.74757320       5.45080956       2.35337917        3       1.00000000      -0.00358023      -0.01984457       0.52279419
Pt       9.41083097       5.45373606       2.37027747        3       0.00000000      -0.05202143       0.02563459       0.49061599
Pt      12.14609629       5.45026571       2.36895711        3       0.00000000       0.00911126      -0.00532240       0.55000436
Pt       5.41559034       7.75890990       2.37198005        3       0.00000000       0.04036449      -0.05888159       0.49665254
Pt       8.08162681       7.76247946       2.36686003        3       0.00000000       0.02245534      -0.00126801       0.51870696
Pt      10.78743282       7.79444854       2.37292549        3       0.00000000      -0.06018744       0.07102603       0.51154310
Pt      13.49881119       7.78625969       2.37119695        3       0.00000000       0.00554143      -0.01433679       0.54003283
Pt       0.00270045       1.55673367       4.69023586        4       0.00000000       0.02740688      -0.00658906      -0.52058694
Pt       2.70740029       1.55798208       4.69027530        4       0.00000000       0.05623121       0.03115946      -0.50449909
Pt       5.39510539       1.54859320       4.71572568        4       0.00000000      -0.04916199      -0.03903371      -0.34722606
Pt       8.09238965       1.55951057       4.69366333        4       0.00000000      -0.03978383       0.02976987      -0.54156853
Pt       1.35143318       3.89377848       4.69118200        4       0.00000000       0.03965258      -0.01093520      -0.53415845
Pt       4.05406089       3.88680441       4.68738638        4       0.00000000       0.02466353      -0.08791059      -0.48991496
Pt       6.74641892       3.90258703       4.67026864        4       0.00000000      -0.05195577      -0.02006264      -0.58668567
Pt       9.44391133       3.89517990       4.68806346        4       0.00000000      -0.01527221       0.00471365      -0.50890051
Pt       2.70229523       6.23236855       4.68966170        4       0.00000000       0.02086801       0.00604378      -0.54512005
Pt       5.40967140       6.22341573       4.66627051        4       0.00000000       0.01434690      -0.04030491      -0.55861211
Pt       8.08865133       6.22765676       4.66665669        4       0.00000000      -0.01353007       0.01628376      -0.57548537
Pt      10.79260886       6.23349078       4.69048184        4       0.00000000      -0.02351176      -0.00446564      -0.54689294
Pt       4.04813816       8.56438839       4.68903073        4       0.00000000      -0.02080780      -0.02414192      -0.53816460
Pt       6.75335602       8.56497590       4.69151698        4       0.00000000       0.05443754       0.01226244      -0.51461313
Pt       9.45717782       8.57237735       4.71881334        4       0.00000000       0.06661511       0.05941668      -0.39838574
Pt      12.13248183       8.57549370       4.71979283        4       0.00000000      -0.10740310       0.07253083      -0.37067947
Pt       0.00228639      -0.00178623       6.99038771        5       0.00000000       0.01207355      -0.00888674       0.33480496
Pt       2.73569889       0.00264076       6.99462122        5       0.00000000       0.00294123      -0.02315313       0.25250073
Ni       5.39735478       0.00181413       7.00406630        5       1.00000000       0.00671663      -0.00099955      -0.39391153
Pt       8.06540670      -0.00107503       6.99092174        5       0.00000000      -0.01598403       0.01822908       0.27838201
Pt       1.36092205       2.33108011       6.99629936        5       0.00000000       0.03973873      -0.03692664       0.31520437
Pt       4.06673239       2.30633561       7.06252700        6       0.00000000       0.01655799      -0.01633793      -0.08420328
Pt       6.72826264       2.30453953       6.99748721        5       0.00000000       0.01897126      -0.00102721       0.23235295
Pt       9.44204553       2.33191911       6.99406838        5       0.00000000      -0.07257154      -0.01555661       0.32698038
Pt       2.70412388       4.66805749       6.99498426        5       0.00000000      -0.00047894       0.02610185       0.30020132
Pt       5.39918658       4.66521329       6.99724099        5       0.00000000       0.03612620      -0.03577546       0.21538282
Pt       8.09672942       4.67301628       6.99482825        5       0.00000000      -0.03172633       0.01031633       0.23398496
Pt      10.79669303       4.67835177       6.99463920        5       0.00000000      -0.00740486       0.06941005       0.33364127
Pt       4.04600725       7.01154346       6.99165456        5       0.00000000      -0.03149148       0.00819526       0.31977754
Pt       6.75298792       7.00947289       6.99261172        5       0.00000000       0.06275564       0.00253878       0.23756997
Pt       9.46480373       7.03802167       6.99281706        5       0.00000000      -0.01176673      -0.00082175       0.26666620
Pt      12.12962872       7.03683666       6.99061400        5       0.00000000      -0.02132704      -0.00483805       0.26699164
