64
Lattice="10.276879010281293 -0.008743576473927733 -0.004115397877895258 5.130867345794291 8.827303520720514 -0.024726803679580783 0.0 0.0 21.488371838583774" Properties=species:S:1:pos:R:3:tags:I:1:initial_magmoms:R:1:forces:R:3 unique_id=284743ee873d4a0badc6daac385645f2 energy=-373.5461314471632 stress="0.005437300129523759 6.273543181361617e-05 1.6600728643240363e-05 6.273543181361617e-05 0.004893997697464172 9.142238700747817e-05 1.6600728643240363e-05 9.142238700747817e-05 -0.00250402882846721" pbc="T T T"
Ni       0.00207799       0.02409293       0.15702828        2       1.00000000       0.12479138       0.05614024      -0.26109914
Ni       2.56145257       0.00249225       0.18108709        2       1.00000000      -0.03031233       0.05337056      -0.03482815
Ni       5.14073670      -0.02299635       0.13036119        1       1.00000000       0.01191250       0.10643312      -0.32374486
Ni       7.71022806      -0.05012862       0.14791930        1       1.00000000      -0.08973247      -0.09500839      -0.25935763
Ni       1.24177831       2.21246791       0.16111570        2       1.00000000      -0.07597274       0.01332191       0.06409866
Pt       3.77693932       2.16853129       0.15233948        2       0.00000000       0.00669074       0.03200458      -0.44715720
Pt       6.49484575       2.15644992       0.07488442        1       0.00000000       0.01822407      -0.13375142      -0.13379674
Ni       9.03099443       2.22627111       0.12306091        1       1.00000000       0.07637830       0.13751618      -0.14971006
Ni       2.51768799       4.43384800       0.02401310        0       1.00000000      -0.05537857      -0.07232938       0.09403352
Pt       5.13256720       4.43211731       0.00000000        0       0.00000000       0.10449744      -0.12827744      -0.40484915
Ni       7.74494908       4.40613883       0.03853192        0       1.00000000       0.01687668      -0.00428413       0.06810598
Ni      10.27271853       4.39397493       0.02912463        0       1.00000000       0.00449380      -0.07904830       0.22328302
Ni       3.80287053       6.65936646       0.04326795        0       1.00000000       0.00629563       0.08640911       0.17453424
Pt       6.44768957       6.68335044       0.06223078        1       0.00000000       0.01062397       0.06547228      -0.10595853
Ni       9.00378843       6.61945349       0.10508549        1       1.00000000      -0.01683542       0.01888940      -0.31235810
Ni      11.57160843       6.61469726       0.02047497        0       1.00000000       0.03964985       0.02142368       0.18720244
Ni       1.30890170       0.74075685       2.18781344        4       1.00000000       0.06444313       0.03363942       0.27257227
Ni       3.82321156       0.74876776       2.20899385        4       1.00000000      -0.06927240       0.10997464       0.24032448
Ni       6.41952437       0.74750744       2.21504848        4       1.00000000      -0.01513433       0.12155588       0.33069975
Pt       9.00078715       0.76514932       2.14771928        3       0.00000000       0.00358810       0.12801742       0.05960036
Ni       2.53508156       2.88689270       2.22623446        4       1.00000000      -0.03812076      -0.11683059       0.27668675
Ni       5.14375540       2.89528413       2.21642367        4       1.00000000      -0.05285497      -0.08992248       0.17560130
Ni       7.69943515       2.92296293       2.18319573        4       1.00000000      -0.03722412      -0.01493265       0.13320724
Ni      10.29384920       2.90089726       2.17485696        4       1.00000000       0.05760657      -0.04580465       0.25460622
Pt       3.85594775       5.14347565       2.18122735        4       0.00000000       0.01422959      -0.07473401      -0.11984607
Ni       6.42873766       5.13981762       2.17047484        4       1.00000000      -0.07039884      -0.03183983       0.05754735
Pt       8.92550816       5.09473600       2.17531361        4       0.00000000      -0.04729082      -0.03797972       0.08561383
Pt      11.55186687       5.08459178       2.16757618        4       0.00000000      -0.02010391      -0.12132635       0.06969089
Ni       5.15922967       7.37189745       2.15118260        4       1.00000000       0.06845177       0.03299970       0.12325969
Ni       7.66264924       7.38224207       2.16966844        4       1.00000000      -0.12341233       0.06424446       0.22978773
Pt      10.30437189       7.39702996       2.11954331        3       0.00000000       0.02717933       0.00987495       0.04712226
Ni      12.83947344       7.35812536       2.12733884        3       1.00000000       0.03765295      -0.00093155       0.01702754
Ni       0.02446358       1.49820842       4.28190493        6       1.00000000       0.09650258       0.07221456      -0.16403783
Ni       2.53954880       1.49227971       4.24841029        5       1.00000000      -0.09535879       0.05751525      -0.22970613
Ni       5.15278958       1.45720447       4.25350325        6       1.00000000      -0.02620872      -0.07839392      -0.31221143
Ni       7.68820346       1.45549571       4.28896352        6       1.00000000       0.02848185      -0.08865418      -0.17597656
Ni       1.27929547       3.67989109       4.30075100        6       1.00000000      -0.00379371      -0.07871345      -0.09244791
Ni       3.80201382       3.66600079       4.27098966        6       1.00000000      -0.14257117      -0.09919039      -0.22987599
Pt       6.45657807       3.61703997       4.28486293        6       0.00000000       0.05656389      -0.04279726      -0.12138607
Ni       9.02451291       3.67268773       4.29966539        6       1.00000000       0.15367582      -0.05100696      -0.08913272
Ni       2.51965397       5.84705381       4.35325859        7       1.00000000      -0.06408652      -0.06733484      -0.05108133
Pt       5.15488473       5.87709272       4.33245553        6       0.00000000       0.05904565       0.06216207      -0.07369042
Ni       7.70884271       5.85451592       4.29765032        6       1.00000000       0.03834155      -0.02134544      -0.17794152
Ni      10.30472233       5.82873715       4.32966794        6       1.00000000       0.05104348      -0.01913235      -0.05954475
Pt       3.80926033       8.07979812       4.23224964        5       0.00000000      -0.03214685       0.04564944       0.07747776
Ni       6.41924737       8.10085748       4.24342180        5       1.00000000      -0.04569995       0.20100846      -0.27528259
Pt       8.95725736       8.08823621       4.22141286        5       0.00000000      -0.05928385       0.07170311       0.09386717
Ni      11.55145270       8.06192642       4.26845074        6       1.00000000      -0.05653381      -0.02656687      -0.15691031
Pt      -0.00654968      -0.08281847       6.48837184       10       0.00000000       0.05254241       0.05876222       0.22925608
Pt       2.55571472      -0.04652805       6.48023462       10       0.00000000      -0.01046829       0.07247566       0.30501478
Pt       5.16505720      -0.03224822       6.46528023       10       0.00000000       0.04936274       0.04733266       0.29497825
Pt       7.69093059      -0.07606184       6.48664333       10       0.00000000      -0.08703544       0.03939194       0.29130078
Pt       1.27869156       2.29410839       6.43058038        9       0.00000000       0.04629522      -0.03922017       0.01374461
Pt       3.89849289       2.28707462       6.34336772        8       0.00000000      -0.01174719       0.08007692       0.39363051
Ni       6.42174162       2.21822657       6.37269069        9       1.00000000      -0.03170894      -0.06482593       0.24136155
Pt       8.93663269       2.27430119       6.42644198        9       0.00000000       0.01294415      -0.07750418      -0.00640402
Ni       2.56136675       4.46941858       6.40878485        9       1.00000000       0.09994516      -0.02024891      -0.29330244
Ni       5.14419275       4.42578634       6.35814068        9       1.00000000      -0.00250376      -0.02383683       0.34592201
Ni       7.66251038       4.39755757       6.42933437        9       1.00000000      -0.15412487       0.01616082      -0.12639447
Ni      10.30516801       4.41903476       6.41284792        9       1.00000000       0.06938422      -0.01865782      -0.24284234
Ni       3.82206001       6.53480725       6.43937405        9       1.00000000      -0.01592854      -0.05816088      -0.15373474
Ni       6.41335162       6.54439370       6.36666918        9       1.00000000       0.12404678       0.00250902       0.27814723
Pt       8.99840592       6.47015095       6.44536197        9       0.00000000      -0.04943513      -0.01550400       0.10547980
Ni      11.58297902       6.52721897       6.40735306        9       1.00000000      -0.00108172       0.01984565      -0.27017682
