64
Lattice="10.268691160780914 0.012833335703028283 -0.02109160158418684 5.145459575124577 8.907828051665122 0.010024048719276958 -0.017221220579778415 0.019393440103302365 8.79606145449487" Properties=species:S:1:pos:R:3:tags:I:1:initial_magmoms:R:1:forces:R:3 unique_id=c7b02378c38e4471abe556ff2e11143b stress="0.0002507640374977277 2.992009452701257e-06 -1.1732388273235834e-05 2.992009452701257e-06 0.00024818069529862485 -1.0171493510712663e-05 -1.1732388273235834e-05 -1.0171493510712663e-05 0.0002425985387227783" energy=-397.1891650082175 pbc="T T T"
Ni      -0.00153246       0.02518974       0.17489211        4       1.00000000       0.01082180       0.06171315       0.26542544
Ni       2.52815953       0.01785396       0.20151043        4       1.00000000      -0.09106119       0.08290166       0.40521706
Pt       5.13003146      -0.01930172       0.12629046        4       0.00000000      -0.05251664      -0.07625226       0.29444598
Ni       7.73390564      -0.02798426       0.16289090        4       1.00000000       0.02515039      -0.08730000       0.32443139
Ni       1.24329928       2.23561645       0.11096777        4       1.00000000      -0.14839766       0.04279413       0.22169945
Pt       3.77040810       2.29011456       0.19034513        4       0.00000000      -0.08789484       0.12678430       0.12978408
Pt       6.46472742       2.23429258       0.11038465        4       0.00000000       0.09621851       0.08842677      -0.02253285
Ni       9.03522502       2.23680470       0.13409729        4       1.00000000       0.11250345       0.07585327       0.14998102
Ni       2.56112436       4.48816170       0.07681868        4       1.00000000       0.05454816       0.10380415      -0.03164946
Ni       5.10568995       4.48844809       0.18753549        4       1.00000000      -0.01670396       0.08051273       0.34955363
Pt       7.77908962       4.47790655       0.10642520        4       0.00000000       0.08580330       0.03108991      -0.08863876
Ni      10.30868047       4.45055015       0.06993995        4       1.00000000       0.11116859      -0.05624941       0.12647767
Ni       3.81769378       6.67694782       0.12010952        4       1.00000000      -0.09194749      -0.01809935       0.22174281
Pt       6.38055662       6.73016507       0.18890575        4       0.00000000      -0.12078441       0.04339328       0.03077884
Ni       9.00078398       6.67303589       0.16864251        4       1.00000000      -0.06716500       0.00577177       0.32317526
Ni      11.59447992       6.66106015       0.06707680        4       1.00000000       0.07296478      -0.01980447       0.05593596
Ni       1.28651277       0.74885206       2.18712433        3       1.00000000      -0.06473651       0.00312949      -0.02267888
Ni       3.82408992       0.77553575       2.21964897        3       1.00000000       0.05545531       0.02696352      -0.01534110
Ni       6.41898335       0.79716876       2.23680329        3       1.00000000      -0.04505219       0.13017179       0.07193848
Pt       9.00039624       0.79154437       2.17660250        3       0.00000000      -0.01089833       0.07977695       0.14168849
Ni       2.55572796       2.97970323       2.23527223        3       1.00000000       0.01677259       0.04388878      -0.04480390
Ni       5.12434261       3.00004140       2.24434271        3       1.00000000      -0.10798171       0.02396031       0.01723805
Ni       7.71742674       2.99946792       2.24175914        3       1.00000000       0.10386059       0.04708175       0.01823393
Ni      10.27141218       2.97874458       2.19860129        3       1.00000000       0.05103758       0.01865541       0.09423567
Ni       3.89015379       5.19989074       2.22277169        3       1.00000000       0.11588940      -0.00164537       0.07821650
Ni       6.40576768       5.20834200       2.24313205        3       1.00000000      -0.01343872       0.08653550      -0.04284421
Ni       8.95758584       5.17428716       2.23209306        3       1.00000000      -0.06120309      -0.17446363       0.16991436
Pt      11.61581911       5.13826830       2.16048925        3       0.00000000       0.14299451      -0.09181491       0.03870870
Ni       5.13862040       7.40533986       2.24396353        3       1.00000000       0.02267020      -0.10475634      -0.00602397
Ni       7.66080653       7.43265092       2.22850309        3       1.00000000      -0.19426714      -0.07089413       0.02768790
Pt      10.25631217       7.38497828       2.19532501        3       0.00000000       0.01387737      -0.01366835      -0.25432981
Ni      12.88019052       7.41098921       2.15832574        3       1.00000000       0.11411462      -0.15442424      -0.03679684
Ni      -0.01672327       1.53945094       4.35268325        2       1.00000000      -0.09057388       0.09741449      -0.10529024
Pt       2.48924959       1.56793631       4.25557001        2       0.00000000      -0.00641749      -0.06344575       0.06807755
Ni       5.14110400       1.54156868       4.31397043        2       1.00000000      -0.08531634       0.05055180      -0.20932351
Ni       7.70857569       1.53251930       4.33764045        2       1.00000000       0.07245013      -0.02303383      -0.08938232
Ni       1.28266216       3.70646232       4.40390840        2       1.00000000       0.00981309      -0.04947256      -0.04676782
Ni       3.82784495       3.77519866       4.31380159        2       1.00000000      -0.03219358       0.07788166      -0.24123584
Pt       6.43017360       3.72523352       4.29465820        2       0.00000000      -0.06557267       0.00758240       0.00922983
Ni       8.98794369       3.70548135       4.32190319        2       1.00000000       0.01463268      -0.10760110      -0.28991342
Ni       2.60741907       5.89159290       4.40128612        2       1.00000000       0.10153721      -0.11180271      -0.11280703
Ni       5.11945916       5.92506345       4.30650958        2       1.00000000       0.04433090      -0.15291649      -0.24504629
Ni       7.67371634       5.92615061       4.31249780        2       1.00000000      -0.03227163      -0.03937717      -0.24555748
Pt      10.28844896       5.83556573       4.37345311        2       0.00000000      -0.00785171      -0.05009421       0.10631276
Pt       3.92288795       8.11571584       4.32906958        2       0.00000000       0.05592999      -0.08600951       0.16051135
Ni       6.40632181       8.16181848       4.30545031        2       1.00000000      -0.04609905      -0.00724839      -0.23572151
Pt       8.90242769       8.17351758       4.29668280        2       0.00000000      -0.04002146      -0.04634865       0.11565284
Pt      11.60086203       8.19201576       4.28949287        2       0.00000000       0.07447564      -0.00084944       0.04866680
Pt      -0.01180073       0.04835639       6.55529317        1       0.00000000       0.05285857       0.10863318       0.08363822
Pt       2.53648419       0.04592327       6.57321386        1       0.00000000      -0.00939191       0.01093381       0.21504012
Pt       5.14279964       0.03327036       6.44941923        1       0.00000000       0.09295847       0.00167363      -0.42633652
Pt       7.69759056      -0.00651716       6.56683138        1       0.00000000      -0.06007568      -0.04707207       0.12877942
Ni       1.26015449       2.31221685       6.51430994        1       1.00000000      -0.01480476       0.14480284      -0.15344233
Pt       3.80117248       2.31383897       6.44938435        1       0.00000000      -0.14115325       0.09238185      -0.28390430
Ni       6.42666982       2.26860753       6.43066193        1       1.00000000      -0.01076984       0.03108911      -0.26640892
Pt       8.98745652       2.35145779       6.48606461        1       0.00000000      -0.03338146       0.09524757       0.01971130
Ni       2.50826393       4.50517697       6.50401925        1       1.00000000      -0.09406608       0.06093904      -0.26149380
Pt       5.09015757       4.48726411       6.52928765        1       0.00000000      -0.06194282       0.04857285       0.09902346
Ni       7.69894919       4.45551495       6.43312999        1       1.00000000      -0.09133087       0.01440362      -0.30590909
Ni      10.32310279       4.44943188       6.51637691        1       1.00000000       0.22552194      -0.07579920      -0.08097461
Ni       3.79766606       6.65395281       6.52397880        1       1.00000000      -0.07964061      -0.07773093      -0.13927690
Pt       6.39505748       6.66693712       6.41894048        1       0.00000000      -0.02514397       0.04413766      -0.30964779
Pt       9.02916940       6.58676888       6.57462571        1       0.00000000       0.13610811      -0.18598979       0.15756860
Ni      11.59640939       6.64046997       6.52424433        1       1.00000000       0.11560005      -0.09528987      -0.15464342
