64
Lattice="10.713200602795236 0.01901638955507139 -0.029986220710901994 5.373068977840628 9.283108404622567 0.005984146924548399 0.0 0.0 21.945818804854635" Properties=species:S:1:pos:R:3:tags:I:1:initial_magmoms:R:1:forces:R:3 unique_id=63121c28f40749a68607400cd74db4a5 stress="0.0036629522954028885 7.927264463542358e-05 5.3320230005430904e-05 7.927264463542358e-05 0.0038930681386943715 -3.982373030062093e-05 5.3320230005430904e-05 -3.982373030062093e-05 -0.0017619318569338828" energy=-400.5817233544601 pbc="T T T"
Pt       0.00549100      -0.05045503       0.10304332        1       0.00000000      -0.09346588      -0.04267777      -0.23301889
Pt       2.66641241      -0.03336991       0.07703881        1       0.00000000       0.07013628       0.03379837      -0.44314931
Pt       5.38419155      -0.04093765       0.12032908        1       0.00000000       0.07604698      -0.16842032      -0.28041457
Pt       8.01136274      -0.02820211       0.11296418        1       0.00000000      -0.03931529      -0.08697865      -0.13012335
Pt       1.32637836       2.34811373       0.08287067        1       0.00000000       0.03759264      -0.02579779      -0.51496253
Pt       4.01923252       2.33001504       0.07562089        1       0.00000000      -0.11612503      -0.00102929      -0.47799491
Pt       6.70138290       2.31778336       0.08729475        1       0.00000000       0.04429783      -0.18744016      -0.35664317
Pt       9.38933641       2.35669842       0.06989218        1       0.00000000      -0.01105682      -0.08096349      -0.36843445
Pt       2.63500481       4.69434788       0.08915627        1       0.00000000      -0.02006989       0.08712865      -0.20653282
Pt       5.37586433       4.68827685       0.00000000        0       0.00000000      -0.15881534       0.01684705       0.06731187
Pt       8.05270463       4.69359760       0.07525420        1       0.00000000       0.10075947      -0.01171496      -0.26410397
Ni      10.72474248       4.67365965       0.07134389        1       1.00000000      -0.01228366       0.03231831       0.27336139
Pt       4.02923747       6.97388197       0.12479251        1       0.00000000      -0.13385331       0.13624219       0.02354766
Ni       6.70386268       6.96544367       0.03150175        0       1.00000000       0.02001584       0.00876727       0.47384779
Pt       9.42554248       6.95220504       0.09648012        1       0.00000000       0.30881916       0.08870302      -0.21507236
Ni      12.05239372       6.97086698       0.08499107        1       1.00000000      -0.00498118       0.02005663       0.38344500
Pt       1.30991862       0.74304305       2.34005200        2       0.00000000      -0.04624747      -0.00797597       0.37191056
Pt       4.07256960       0.73522206       2.33006121        2       0.00000000       0.08757426      -0.11011010       0.34783649
Ni       6.69675488       0.74573734       2.30787654        2       1.00000000       0.02826929      -0.16164773       0.43797916
Pt       9.32446477       0.68280997       2.34899934        2       0.00000000      -0.08867018      -0.35782586       0.43449978
Pt       2.68258037       3.11539570       2.34127658        2       0.00000000       0.06840633       0.08725869       0.41852173
Pt       5.36903886       3.09754902       2.33824587        2       0.00000000      -0.02410900       0.16301635       0.35282955
Pt       8.02344914       3.07632510       2.32916450        2       0.00000000      -0.01670297      -0.06251646       0.41876777
Pt      10.71247516       3.13391223       2.30241370        2       0.00000000       0.01935707       0.09051966       0.33256368
Pt       4.00082600       5.51067551       2.37351454        3       0.00000000      -0.07446804       0.19262382       0.42170193
Pt       6.66968041       5.47886239       2.31421333        2       0.00000000      -0.14626603       0.14676422       0.22512395
Pt       9.41060694       5.45796272       2.30261029        2       0.00000000       0.01575461       0.01107373       0.35767108
Pt      12.06302518       5.54523045       2.28287804        2       0.00000000       0.00222384       0.31938353       0.14373074
Ni       5.34690114       7.74265149       2.33115170        2       1.00000000      -0.03279945      -0.02068966       0.37884174
Pt       8.02589714       7.73449980       2.31424239        2       0.00000000      -0.11936985      -0.06036165       0.24310887
Ni      10.76121319       7.76372221       2.29929643        2       1.00000000       0.19663732       0.07646439       0.34567204
Ni      13.38442978       7.76709138       2.31852545        2       1.00000000      -0.09510576       0.01679703       0.40442083
Pt      -0.03243209       1.51557650       4.60794160        5       0.00000000      -0.04607818      -0.03446560      -0.40816987
Pt       2.66747362       1.55615979       4.60397257        5       0.00000000       0.01318277      -0.03685917      -0.43963166
Pt       5.37038780       1.54674614       4.57196207        5       0.00000000       0.10385134      -0.14113180      -0.39726689
Pt       8.02880211       1.51772837       4.56016114        5       0.00000000      -0.02420046      -0.10209252      -0.37783281
Pt       1.34908393       3.91481689       4.61078453        5       0.00000000       0.00908071       0.11720968      -0.40415633
Pt       4.01224671       3.93585845       4.63176611        5       0.00000000       0.01886621       0.17062240      -0.31804278
Pt       6.66898895       3.90213654       4.63227651        5       0.00000000      -0.07534700       0.07077946      -0.35545524
Pt       9.37308559       3.89843747       4.59517484        5       0.00000000       0.03350140       0.07661873      -0.38856187
Ni       2.68722805       6.22465410       4.62310696        5       1.00000000       0.02811645       0.08723258      -0.40332296
Pt       5.30492271       6.24698754       4.63165546        5       0.00000000      -0.00192699       0.05610720      -0.20874724
Pt       8.00746111       6.22356001       4.63015082        5       0.00000000      -0.07529840       0.07790650      -0.30645056
Pt      10.76087004       6.23144207       4.56545244        5       0.00000000       0.11813738       0.00593717      -0.36127688
Ni       4.00945141       8.49282042       4.61679155        5       1.00000000      -0.04092126      -0.13483319      -0.45780366
Pt       6.64439177       8.49016433       4.60112412        5       0.00000000      -0.10547172      -0.12450244      -0.34386223
Pt       9.39877036       8.51311696       4.58060513        5       0.00000000       0.11329183      -0.07613174      -0.40784612
Pt      12.13340158       8.48135569       4.48945763        4       0.00000000       0.22797161      -0.15868197      -0.66341187
Pt      -0.00959163      -0.03824919       6.86898571        7       0.00000000      -0.18443140      -0.12929726       0.25438124
Pt       2.63937072      -0.01800203       6.87333585        7       0.00000000       0.05304907       0.01943420       0.34362157
Pt       5.34310709       0.01812628       6.87416389        7       0.00000000       0.00831238       0.00840900       0.20125211
Pt       8.02720083       0.01176264       6.84749273        6       0.00000000       0.12763112      -0.06832860       0.14216411
Pt       1.32854369       2.33650235       6.87669043        7       0.00000000       0.03255668      -0.07268754       0.41856363
Pt       4.02167165       2.37077258       6.86872999        7       0.00000000       0.01375721      -0.04755024       0.37350820
Pt       6.66971877       2.37397110       6.86868678        7       0.00000000       0.04386412      -0.02615026       0.37475766
Pt       9.35531803       2.35311817       6.86202527        7       0.00000000      -0.11872370       0.01513161       0.46617764
Pt       2.70203104       4.67718344       6.87383409        7       0.00000000       0.07785752       0.20510636       0.30661280
Ni       5.35563754       4.67849377       6.86734817        7       1.00000000      -0.01044030       0.04435149      -0.28352275
Pt       7.96079793       4.70642841       6.87870228        7       0.00000000      -0.05982812       0.01943617       0.45385183
Pt      10.70080414       4.67740491       6.94581880        7       0.00000000      -0.12092309       0.03690214       0.10233324
Pt       4.05964209       6.94787743       6.85228697        7       0.00000000      -0.10828046       0.04040305       0.06121661
Ni       6.67705752       6.96893131       6.92264411        7       1.00000000      -0.02208591      -0.02433035      -0.49856108
Pt       9.34123473       6.97750389       6.88398728        7       0.00000000       0.01073750      -0.01197362       0.29590840
Pt      12.06148884       6.98208760       6.91894854        7       0.00000000       0.11800591      -0.00418450      -0.13666951
