64
Lattice="10.20826237854071 0.002870586015642805 -0.015588738636930308 5.10661718968365 8.813949790023653 -0.053713888034834595 -0.012728151798029523 -0.04329333743089004 8.747960335482372" Properties=species:S:1:pos:R:3:tags:I:1:initial_magmoms:R:1:forces:R:3 unique_id=ec159ed771e4415088199a97d422d5cb stress="-0.00595783575319591 -2.2262683415517013e-05 1.6275447326258122e-06 -2.2262683415517013e-05 -0.005983385797626924 1.528760655660841e-05 1.6275447326258122e-06 1.528760655660841e-05 -0.005267319880209682" energy=-393.9355598109508 pbc="T T T"
Ni       0.02032376       0.01671780       0.17704741        4       1.00000000       0.09475434      -0.00378709       0.10384343
Ni       2.55522309      -0.00499695       0.21380054        4       1.00000000       0.03411356      -0.04089363       0.15464378
Ni       5.10797148      -0.03584840       0.08164336        4       1.00000000      -0.00639528      -0.02546851       0.02281442
Ni       7.65856381      -0.03002878       0.04081217        4       1.00000000       0.00324234      -0.03526333      -0.06978647
Ni       1.23095916       2.21101748       0.10283154        4       1.00000000      -0.05533257       0.02691999       0.10162535
Pt       3.76785894       2.20724218       0.18661514        4       0.00000000      -0.02469271      -0.01322500      -0.08189622
Pt       6.43827605       2.20851295       0.21028293        4       0.00000000       0.01234893       0.04702483       0.05946181
Ni       8.98216721       2.24017429       0.04729453        4       1.00000000       0.04596296       0.04286483      -0.01754244
Ni       2.54237503       4.42240349       0.03937145        4       1.00000000      -0.03865743      -0.01892050      -0.02089131
Ni       5.07256650       4.41882328       0.05364043        4       1.00000000      -0.07234974      -0.04079503       0.03163356
Ni       7.72252853       4.40031582       0.05271851        4       1.00000000       0.10519728      -0.02101262       0.05281051
Ni      10.19101068       4.38102089       0.03022932        4       1.00000000      -0.04764979      -0.05017789      -0.00215410
Ni       3.81731017       6.58342789       0.01951483        4       1.00000000      -0.00223426      -0.09713860      -0.03231742
Pt       6.38009375       6.63221343      -0.02545136        4       0.00000000       0.00087380      -0.05061644      -0.29653177
Ni       8.94297728       6.58608213       0.10938732        4       1.00000000      -0.03944815      -0.09462614       0.13125590
Ni      11.47716874       6.60016277      -0.02187203        4       1.00000000      -0.09334223      -0.06351361      -0.13653626
Ni       1.29811596       0.73973813       2.13793937        3       1.00000000       0.00750221       0.05122906       0.03389002
Ni       3.79968662       0.71318666       2.17608686        3       1.00000000       0.00721099      -0.02617651       0.06923139
Ni       6.36635989       0.72128507       2.18127489        3       1.00000000       0.03035475      -0.07703200       0.08626425
Pt       8.98194947       0.78767723       2.11470922        3       0.00000000      -0.03028915       0.00932595       0.03821242
Ni       2.53314803       2.92784404       2.19663780        3       1.00000000      -0.05130164       0.02131131       0.06680538
Ni       5.06863599       2.94489554       2.21898299        3       1.00000000      -0.05494538       0.03881239       0.12977462
Ni       7.71451434       2.97591001       2.19223308        3       1.00000000       0.13343916       0.11201314       0.14260943
Ni      10.20288259       2.93352666       2.14684566        3       1.00000000       0.01373169      -0.00039021       0.06056697
Ni       3.83690970       5.08645798       2.16603424        3       1.00000000      -0.02829991      -0.05299228       0.00274480
Pt       6.38301134       5.14400508       2.15134236        3       0.00000000      -0.00529165       0.03205828      -0.05092183
Ni       8.92174360       5.09749984       2.16088641        3       1.00000000       0.02475724      -0.01121465       0.04944850
Pt      11.46605451       5.07009734       2.10205929        3       0.00000000      -0.01758925       0.01283457      -0.04731447
Ni       5.11532067       7.33016365       2.12572939        3       1.00000000      -0.00946373      -0.03268932      -0.08468188
Ni       7.64971984       7.35382918       2.13832505        3       1.00000000      -0.03591154      -0.02828064      -0.01172846
Pt      10.13684335       7.36044646       2.15942798        3       0.00000000       0.00499390       0.00502490       0.04781310
Pt      12.78350918       7.31230607       2.07929668        3       0.00000000       0.00489811      -0.03733995      -0.06519267
Ni      -0.00320965       1.47398134       4.35143252        2       1.00000000       0.02254989      -0.03551805      -0.01881326
Pt       2.50631062       1.45289563       4.24367288        2       0.00000000      -0.02899433      -0.06292382       0.02907196
Pt       5.09456726       1.38301627       4.25854324        2       0.00000000       0.02240519      -0.04265152       0.02932108
Pt       7.71920553       1.46740047       4.31502695        2       0.00000000       0.02901589       0.01149259       0.02276519
Pt       1.22595968       3.70133427       4.38453662        2       0.00000000      -0.02745524      -0.03806989      -0.01757506
Ni       3.80950839       3.73184749       4.29298524        2       1.00000000      -0.06695844       0.03993878      -0.10268869
Pt       6.37310254       3.73819191       4.33874907        2       0.00000000      -0.01580864       0.06168250       0.01713690
Ni       8.94087094       3.70696320       4.32228857        2       1.00000000       0.00822856       0.08550822      -0.04205825
Ni       2.53478840       5.82901370       4.35476570        2       1.00000000      -0.05903377      -0.01651733      -0.11102590
Ni       5.04679689       5.82184398       4.32867813        2       1.00000000      -0.11787628      -0.04253413      -0.15145613
Ni       7.72064801       5.84343958       4.29429203        2       1.00000000       0.14989884      -0.01166680      -0.11226936
Ni      10.19863389       5.87328483       4.29833550        2       1.00000000       0.00789912       0.01069287      -0.06050485
Pt       3.78751068       7.96413934       4.33533945        2       0.00000000      -0.00786197      -0.00641306      -0.01227157
Pt       6.39641124       7.96895537       4.22267123        2       0.00000000      -0.01469092      -0.02556800      -0.01098671
Ni       8.94735141       8.00420486       4.29313368        2       1.00000000      -0.03721394      -0.04336550       0.05772934
Ni      11.45554767       7.99071492       4.33748358        2       1.00000000      -0.00824814      -0.07545709      -0.03433561
Pt      -0.07815846      -0.00432602       6.56342692        1       0.00000000      -0.06029299       0.02519170       0.12979683
Pt       2.56306114      -0.04180527       6.55287781        1       0.00000000       0.03021487       0.03673009       0.17729225
Ni       5.14251916      -0.07070110       6.46462158        1       1.00000000       0.04076205      -0.02287413      -0.06015866
Ni       7.60141069      -0.08670967       6.48189948        1       1.00000000      -0.08356512      -0.09865717      -0.07495109
Ni       1.22062350       2.22109511       6.48732930        1       1.00000000      -0.01184777       0.03250272       0.03598150
Pt       3.78433079       2.29482434       6.42647853        1       0.00000000      -0.01703342       0.19303566       0.07161941
Pt       6.43046219       2.17915724       6.47924781        1       0.00000000       0.02518712       0.01456733       0.26421293
Ni       8.96762417       2.24225192       6.46108573        1       1.00000000       0.09275678       0.17160491      -0.07884647
Ni       2.52481696       4.46048727       6.45683142        1       1.00000000      -0.03841756       0.16323952      -0.01601961
Ni       5.07840080       4.46587526       6.45024721        1       1.00000000      -0.02599061       0.12121790      -0.00300429
Ni       7.67249989       4.39259496       6.45433536        1       1.00000000       0.06306271       0.03634203       0.00572499
Ni      10.21097542       4.35835203       6.46013496        1       1.00000000       0.05726579       0.02394328       0.01860322
Ni       3.78900362       6.52448270       6.43988057        1       1.00000000      -0.01877143      -0.01013354      -0.05182601
Ni       6.34406688       6.51578631       6.32176614        1       1.00000000       0.03356832      -0.05417518      -0.31912795
Pt       8.98797440       6.50588659       6.43613375        1       0.00000000       0.09021301       0.00704622       0.11602961
Ni      11.51870884       6.57586006       6.39902112        1       1.00000000       0.05684558      -0.02607641      -0.16532008
