64
Lattice="10.187172549813376 -0.0020849144439064426 -0.045961099173019715 5.091780686033549 8.80773045664142 -0.06832666447430426 0.0 0.0 21.50008973534981" Properties=species:S:1:pos:R:3:tags:I:1:initial_magmoms:R:1:forces:R:3 unique_id=67676877bd7b4c53b533744ebc630e81 energy=-369.1966045226899 stress="0.003687231302910406 -0.00019198369937287237 -0.00037686431537672937 -0.00019198369937287237 0.003987781438376088 -0.000496538853670904 -0.00037686431537672937 -0.000496538853670904 -0.0029860346243379" pbc="T T T"
Ni      -0.01485632       0.00277192       0.13337093        1       1.00000000       0.03320392      -0.01313498       0.29496853
Ni       2.51846351       0.05141056       0.09881285        1       1.00000000      -0.02502367       0.01384478       0.19246202
Ni       5.07442765       0.01330931       0.17297223        2       1.00000000      -0.15022852      -0.04299994      -0.39575763
Ni       7.67224887      -0.01439390       0.07964437        1       1.00000000       0.06670316       0.03538968       0.18535393
Ni       1.26485097       2.18941897       0.11698373        1       1.00000000      -0.00949420       0.03710550       0.30207097
Ni       3.80262165       2.20104031       0.11530114        1       1.00000000       0.04067263       0.03723234       0.25422133
Ni       6.36116116       2.23263452       0.15250614        2       1.00000000      -0.03255936       0.11711266      -0.34429262
Ni       8.91514565       2.19122228       0.07905118        1       1.00000000      -0.04512803      -0.06827873       0.31972930
Ni       2.57187944       4.37307047       0.14562995        1       1.00000000       0.13566277      -0.09628221      -0.23599891
Ni       5.08014881       4.39378626       0.19119805        2       1.00000000      -0.04712658      -0.03860717      -0.35539875
Ni       7.62103168       4.35927676       0.08420373        1       1.00000000      -0.03474032       0.00423279       0.20723224
Ni      10.17166149       4.33828105       0.03627411        0       1.00000000      -0.03027696      -0.10109609       0.15090571
Ni       3.81401614       6.61149389       0.08997385        1       1.00000000      -0.02417610      -0.07279254       0.25220190
Ni       6.30068062       6.58694865       0.15183087        2       1.00000000      -0.06772348      -0.07449477      -0.41077894
Pt       8.92572259       6.57167178       0.00000000        0       0.00000000       0.06171776      -0.03651709      -0.34260855
Ni      11.49845013       6.62268758       0.13140398        1       1.00000000       0.02924507       0.09894502      -0.50942922
Ni       1.23579385       0.76040099       2.14959862        3       1.00000000      -0.07495777       0.11006350      -0.07900948
Ni       3.80077072       0.76635144       2.16023901        4       1.00000000       0.02079183       0.08772220       0.02116639
Pt       6.37653634       0.76755510       2.13517730        3       0.00000000       0.07214073       0.06228754       0.05170086
Ni       8.93120898       0.73681956       2.10822447        3       1.00000000       0.05081763       0.04969358      -0.05613866
Ni       2.55768379       2.89701823       2.15389310        4       1.00000000       0.01362575      -0.07581900      -0.01873188
Ni       5.03771926       2.94278303       2.13460304        3       1.00000000      -0.15524739      -0.02870934       0.04966534
Ni       7.67581690       2.94300640       2.11514305        3       1.00000000       0.13819936       0.00285565      -0.03538034
Ni      10.16371468       2.90123680       2.11045456        3       1.00000000       0.01715135      -0.02127644      -0.05225060
Ni       3.82372113       5.11595278       2.12188422        3       1.00000000      -0.02140695       0.00519188       0.02477665
Ni       6.34802638       5.09217418       2.09242068        3       1.00000000       0.07491705      -0.05060080      -0.02311848
Ni       8.88721533       5.06481924       2.11697188        3       1.00000000      -0.01489745      -0.02432285       0.01631557
Pt      11.48103784       5.08113423       2.09291581        3       0.00000000      -0.00605946      -0.09724856      -0.08432831
Ni       5.04556419       7.34504719       2.09484028        3       1.00000000      -0.07099171       0.04960204      -0.02281109
Pt       7.59656539       7.39386300       2.13748662        3       0.00000000      -0.03598521       0.11185741      -0.02219381
Ni      10.17644726       7.33681610       2.10837469        3       1.00000000      -0.06282309      -0.02161803       0.08921782
Ni      12.76782431       7.32213541       2.07298279        3       1.00000000       0.03792474       0.00346199       0.08021706
Pt      -0.02752550       1.51417677       4.32571881        6       0.00000000       0.00108895       0.04163296      -0.09394409
Pt       2.56937351       1.45609882       4.30569992        6       0.00000000       0.08476318       0.03160596      -0.01808135
Ni       5.05066272       1.46079032       4.29048863        6       1.00000000      -0.03010595       0.00882929      -0.13566053
Ni       7.64885105       1.45835103       4.29632075        6       1.00000000       0.03153361       0.01502538      -0.10982493
Ni       1.26532082       3.63883915       4.29988086        6       1.00000000       0.11771592       0.00882905      -0.17551559
Ni       3.77527249       3.63023408       4.25559922        6       1.00000000       0.01461805       0.00792917      -0.23859254
Pt       6.36087172       3.56801060       4.19459521        5       0.00000000      -0.04941343      -0.16390946      -0.06352310
Ni       8.89999639       3.62313961       4.28426766        6       1.00000000      -0.03844801      -0.00766400      -0.15208623
Ni       2.53008940       5.81257627       4.28718752        6       1.00000000       0.01111991      -0.02631189      -0.13389239
Pt       5.02025594       5.82820900       4.19728079        5       0.00000000      -0.10487585      -0.03116818      -0.06349824
Pt       7.62505979       5.84394203       4.26637355        6       0.00000000      -0.02427801      -0.00655382      -0.04519901
Pt      10.18669152       5.78027349       4.25648697        6       0.00000000       0.00618948      -0.04192273       0.03306872
Pt       3.80712919       8.07563754       4.27332714        6       0.00000000      -0.00163912      -0.05325503      -0.01768105
Ni       6.35890593       8.08780276       4.27358665        6       1.00000000      -0.01927137      -0.00764369      -0.09620905
Ni       8.87431768       8.07217373       4.25525381        6       1.00000000       0.00363311       0.00667633      -0.09970197
Pt      11.41344204       8.08819058       4.20951168        5       0.00000000      -0.00558976       0.06043462       0.03925477
Ni      -0.02879993       0.01950187       6.49456713        9       1.00000000       0.04504441       0.08493624      -0.12211676
Ni       2.48353234       0.01791307       6.45555436        9       1.00000000      -0.13280764       0.03276946      -0.01688309
Pt       4.96924833      -0.01253449       6.49322291        9       0.00000000      -0.00914243      -0.04569223       0.36844546
Ni       7.68445619      -0.01960211       6.45765860        9       1.00000000       0.01243135       0.04812515       0.04288767
Ni       1.22340190       2.14351908       6.47727079        9       1.00000000      -0.06658070      -0.03686476      -0.12304162
Ni       3.76863984       2.15756836       6.45040418        9       1.00000000       0.11244394       0.07463015      -0.02022314
Pt       6.43875620       2.14183578       6.47924032        9       0.00000000       0.04712858      -0.04775012       0.27059772
Ni       8.93294773       2.18350900       6.42843772        8       1.00000000       0.03469147       0.02370097      -0.12697464
Pt       2.47015662       4.29505379       6.43972756        8       0.00000000      -0.04471867       0.05888189       0.18589566
Pt       5.07123451       4.36936673       6.50008974        9       0.00000000       0.04656113       0.00519885       0.23966637
Ni       7.68198311       4.37065808       6.42593839        8       1.00000000      -0.04203625       0.01623482      -0.09457552
Ni      10.11423246       4.31564523       6.39995318        8       1.00000000       0.05702331      -0.05482396      -0.09526356
Ni       3.79697842       6.61731677       6.43939559        8       1.00000000       0.05616099      -0.07096357      -0.01243038
Pt       6.35632134       6.67140025       6.48646074        9       0.00000000      -0.01685159       0.08615328       0.32164509
Ni       8.89234050       6.55574384       6.31753003        7       1.00000000       0.04907926       0.06002759       0.59031950
Pt      11.46390576       6.58326428       6.46879570        9       0.00000000      -0.02939536      -0.03989773       0.45915945
