64
Lattice="10.24376664623898 -0.019244935398231477 0.01365615114354962 5.105216720170433 8.82820744800985 0.024288872320162868 0.01115020071734054 0.01646219704760704 8.744096032852484" Properties=species:S:1:pos:R:3:tags:I:1:initial_magmoms:R:1:forces:R:3 unique_id=438fd683ef2042cea1d3be774f3e7deb stress="-0.0010317664466107448 5.817795706540617e-06 -1.1610731429521973e-05 5.817795706540617e-06 -0.0010374142117501386 -5.32724063036528e-06 -1.1610731429521973e-05 -5.32724063036528e-06 -0.0009058784617663462" energy=-393.0448329074802 pbc="T T T"
Ni       0.03419365       0.02306275       0.14296230        4       1.00000000       0.19969975       0.14424108       0.19507074
Ni       2.54703040      -0.02996624       0.20605223        4       1.00000000      -0.01397075      -0.08100168       0.30630141
Ni       5.11031800      -0.04513772       0.06992429        4       1.00000000      -0.09408346      -0.06593677       0.03951289
Ni       7.69330428      -0.03969341       0.05379869        4       1.00000000       0.05941907      -0.04077979       0.03499016
Ni       1.23941672       2.22510736       0.11381799        4       1.00000000      -0.09054072       0.12018244       0.15179414
Pt       3.77866423       2.21809738       0.20970153        4       0.00000000      -0.07219060       0.00262344       0.37071376
Pt       6.46026669       2.25597446       0.03618973        4       0.00000000       0.08900776       0.17757036      -0.05310519
Ni       9.00667811       2.23773949       0.08076872        4       1.00000000       0.18413116       0.22051100       0.07384029
Ni       2.52430311       4.44515284       0.10924679        4       1.00000000      -0.12036412       0.08598252       0.15787196
Ni       5.10066055       4.45495020       0.08531164        4       1.00000000      -0.08796385       0.10525097       0.07894595
Ni       7.72594235       4.43367935       0.09034413        4       1.00000000       0.28338943       0.11651712       0.04931106
Ni      10.24323712       4.39516601       0.12032943        4       1.00000000       0.04524708       0.05285170       0.14161384
Ni       3.83048866       6.59363155       0.05925593        4       1.00000000       0.01346030      -0.11099781      -0.05333377
Ni       6.41484564       6.61492166       0.06833809        4       1.00000000       0.13736817       0.00773938      -0.10150714
Ni       8.92976946       6.59306564       0.16939858        4       1.00000000      -0.11193859      -0.07252672       0.16750922
Ni      11.50609819       6.58071164       0.07400154        4       1.00000000      -0.12029428      -0.11978193      -0.08565734
Ni       1.32421157       0.77959824       2.15145002        3       1.00000000       0.01782178       0.12951405      -0.04457345
Ni       3.79407839       0.70750527       2.19987108        3       1.00000000      -0.03337623      -0.10228097       0.03665256
Pt       6.36760520       0.74260050       2.17233589        3       0.00000000       0.00075169       0.07147143      -0.18877484
Pt       9.02762497       0.81543386       2.15453076        3       0.00000000       0.08410399       0.05957755       0.03751807
Ni       2.52455917       2.98731406       2.20661933        3       1.00000000      -0.07474321       0.15460782      -0.02045114
Ni       5.08003470       2.97668501       2.23341835        3       1.00000000      -0.08850268      -0.01709379       0.08791567
Ni       7.72214840       2.97326422       2.19348492        3       1.00000000       0.11515043      -0.00097523       0.00555143
Ni      10.27640688       2.97746569       2.17309514        3       1.00000000       0.08754552       0.10184314      -0.00738846
Ni       3.81313512       5.08568767       2.20571204        3       1.00000000      -0.02112615      -0.12959845       0.01038810
Pt       6.43788558       5.11435221       2.16165416        3       0.00000000       0.05504985      -0.00281017      -0.05425911
Ni       8.97372324       5.10674657       2.18772193        3       1.00000000       0.09294018      -0.12500380      -0.05181838
Ni      11.50522086       5.08207451       2.18480825        3       1.00000000      -0.07114017      -0.05040389      -0.11641488
Pt       5.15131517       7.33580440       2.13924667        3       0.00000000      -0.02417190      -0.09274982      -0.07314989
Ni       7.68568792       7.36304187       2.19697705        3       1.00000000      -0.03783938      -0.08232601       0.04373331
Pt      10.15258336       7.28457718       2.23115293        3       0.00000000      -0.01735970      -0.10559722       0.00979368
Pt      12.77226083       7.24316111       2.18311822        3       0.00000000      -0.02941402      -0.17096766      -0.09200269
Ni       0.01379854       1.49535431       4.36292613        2       1.00000000       0.03410642       0.00956070      -0.02009936
Pt       2.52886921       1.49212054       4.26082472        2       0.00000000       0.00398203      -0.00668496       0.10532875
Pt       5.10283298       1.41457138       4.35531830        2       0.00000000      -0.12540094      -0.00922245       0.07206191
Pt       7.71724216       1.45516642       4.43578627        2       0.00000000       0.03855780      -0.03647213      -0.03909873
Pt       1.31328820       3.76849100       4.35618388        2       0.00000000      -0.02375139       0.04109736      -0.00692365
Ni       3.83360853       3.76102449       4.33420687        2       1.00000000      -0.03304190       0.09081170      -0.11069879
Pt       6.34941140       3.75051656       4.41500130        2       0.00000000      -0.04896558      -0.00284487      -0.02017382
Pt       8.98422389       3.74209054       4.37336929        2       0.00000000       0.04214583       0.09816257      -0.02507401
Ni       2.55253481       5.87655261       4.40434016        2       1.00000000      -0.01443333      -0.01251528      -0.03989630
Ni       5.07617405       5.86209736       4.40903140        2       1.00000000      -0.11525109      -0.04933151      -0.07405213
Ni       7.70196264       5.89983915       4.36974289        2       1.00000000       0.12028172       0.01282734      -0.12982084
Ni      10.26429828       5.91929147       4.38034319        2       1.00000000       0.09103547       0.03497722      -0.03782153
Pt       3.78399982       8.01068402       4.41610273        2       0.00000000       0.00318751      -0.01421547       0.01573089
Pt       6.42751650       8.01695498       4.34510268        2       0.00000000       0.00175814      -0.02230918       0.11632966
Ni       8.98004783       8.04404371       4.36973749        2       1.00000000      -0.03594320      -0.12124332       0.02988873
Ni      11.48335409       8.02186909       4.43344475        2       1.00000000      -0.04435193      -0.12368498      -0.01864225
Pt      -0.05803753       0.03254650       6.55770362        1       0.00000000      -0.15691645      -0.02759769       0.05431671
Pt       2.59282279      -0.00643194       6.55859019        1       0.00000000       0.06153937       0.00158439       0.19891222
Ni       5.18595115      -0.02533511       6.49075807        1       1.00000000       0.07594149      -0.10449269      -0.10406795
Ni       7.63424503      -0.03407678       6.51931276        1       1.00000000      -0.18067753      -0.15846048      -0.06472852
Ni       1.24638266       2.26222262       6.50677358        1       1.00000000      -0.06433514       0.06840010      -0.07105312
Pt       3.85690894       2.31890676       6.48107034        1       0.00000000      -0.03145485       0.19938449      -0.25105276
Ni       6.43060680       2.21075657       6.43913598        1       1.00000000      -0.01269387      -0.02132537      -0.24683853
Ni       8.96419503       2.23749771       6.52823263        1       1.00000000      -0.00632498       0.13878026      -0.04132788
Ni       2.55227837       4.48357927       6.50155799        1       1.00000000      -0.02982719       0.19468204      -0.01966950
Ni       5.11690325       4.48489702       6.50960970        1       1.00000000      -0.06161888       0.21483954      -0.03348943
Ni       7.66348773       4.40409378       6.53099890        1       1.00000000      -0.07724954      -0.06068665       0.00229661
Ni      10.27114155       4.39435197       6.53609232        1       1.00000000       0.14631110      -0.06611752       0.05375699
Ni       3.81245161       6.57414225       6.51076986        1       1.00000000      -0.05999297      -0.13003047      -0.08959946
Ni       6.36860326       6.56150896       6.50739304        1       1.00000000      -0.03907144      -0.11430882      -0.18829862
Pt       9.00535400       6.54667428       6.50886526        1       0.00000000       0.07039368      -0.14005411       0.11803672
Ni      11.55391639       6.61524599       6.49317622        1       1.00000000       0.11599530      -0.06316201      -0.19082394
