64
Lattice="10.337922079666686 -0.033853125745135305 0.028178919815456192 5.139643372940546 8.912394798652695 0.013386966233929319 0.0 0.0 21.520206306375364" Properties=species:S:1:pos:R:3:tags:I:1:initial_magmoms:R:1:forces:R:3 unique_id=3151c5b36858426cac47bb463ef4afd8 energy=-375.4590527557863 stress="0.006117561954709914 4.77510151606775e-05 0.00023757676497900265 4.77510151606775e-05 0.006375822790219874 4.31837060418741e-05 0.00023757676497900265 4.31837060418741e-05 -0.0016104004158375516" pbc="T T T"
Ni      -0.01443090       0.03305252       0.12206815        1       1.00000000      -0.04153726       0.03412345       0.04450187
Ni       2.57938606      -0.00193038       0.13441087        1       1.00000000      -0.03813259       0.05107534      -0.08804771
Ni       5.16858961      -0.02272280       0.09469929        1       1.00000000      -0.00165201       0.23594178      -0.36136117
Ni       7.77907730      -0.05459987       0.14818519        1       1.00000000       0.04931873      -0.01453243       0.00937497
Ni       1.24931991       2.23131325       0.03439671        0       1.00000000      -0.05366806      -0.00310483       0.46766269
Pt       3.80844126       2.23185545       0.12301984        1       0.00000000       0.00638922       0.02836182      -0.54052792
Pt       6.48486462       2.16171142       0.13607816        1       0.00000000       0.03741192      -0.05228541      -0.42238157
Ni       9.08312526       2.18164230       0.12395618        1       1.00000000       0.04011796      -0.03011781       0.18894860
Ni       2.56796400       4.47196210       0.00000000        0       1.00000000       0.11767707      -0.01777870       0.22030939
Ni       5.12677329       4.46401764       0.11770449        1       1.00000000      -0.04499340       0.03458901       0.09136421
Pt       7.81507688       4.44902983       0.04925823        0       0.00000000       0.01575783      -0.04989521       0.06161801
Ni      10.35229901       4.42039833       0.01888949        0       1.00000000       0.02990011      -0.09805550       0.27360354
Ni       3.82478675       6.68793659       0.12027928        1       1.00000000      -0.03220998      -0.02616414       0.10070956
Pt       6.41211061       6.72117581       0.12810942        1       0.00000000      -0.11275624       0.04854481      -0.52537529
Ni       9.04710155       6.67993514       0.01746823        0       1.00000000      -0.10703371      -0.02222491       0.12583552
Ni      11.62969391       6.65944206       0.01364554        0       1.00000000       0.18240252       0.04581031       0.15795385
Ni       1.26811472       0.76043169       2.07316896        3       1.00000000      -0.13600922       0.12348664      -0.04225065
Ni       3.87743794       0.73979590       2.12681673        3       1.00000000       0.09890205      -0.00222420       0.11404690
Ni       6.49314545       0.73810134       2.17111920        4       1.00000000       0.10225552       0.15628206       0.25213399
Ni       9.05377863       0.73888564       2.12000062        3       1.00000000       0.01695554       0.12969868       0.12505562
Ni       2.57055221       2.97451688       2.13211630        3       1.00000000      -0.05171609       0.09422721       0.04571015
Ni       5.14652819       2.97687412       2.17269289        4       1.00000000      -0.13670263       0.03163032       0.17370381
Ni       7.79686370       2.93433751       2.17531575        4       1.00000000       0.22194414      -0.08452285       0.15432012
Ni      10.31165756       2.90262249       2.13148394        3       1.00000000       0.00810319      -0.07095993       0.05384705
Ni       3.89908293       5.19592004       2.13777903        3       1.00000000       0.11551857      -0.04866529       0.13807746
Ni       6.43316259       5.19102080       2.15934892        4       1.00000000      -0.05964390       0.06912749       0.10996216
Ni       9.01276173       5.15559965       2.16900249        4       1.00000000      -0.04829457      -0.14665192       0.17385406
Pt      11.66367698       5.13726137       2.08353935        3       0.00000000       0.05081965      -0.05870325      -0.02023929
Ni       5.11244871       7.41974616       2.11710722        3       1.00000000      -0.15236396      -0.06862798       0.00790305
Ni       7.73199332       7.41101348       2.12884374        3       1.00000000       0.07424494      -0.08755210       0.00410305
Pt      10.30461962       7.41755158       2.04712444        2       0.00000000       0.04612978      -0.11473612      -0.11991819
Ni      12.94092639       7.40201651       2.10609479        3       1.00000000       0.03888660      -0.04753439       0.01316912
Ni      -0.02512458       1.51690729       4.22651331        5       1.00000000      -0.11241347      -0.02674194      -0.34876700
Pt       2.58556419       1.51241102       4.15961537        5       0.00000000      -0.06226499      -0.03381769      -0.09241486
Ni       5.18771826       1.49891465       4.23554827        5       1.00000000       0.02129689       0.08484997      -0.38201072
Ni       7.79241593       1.49385013       4.23151307        5       1.00000000       0.11923037       0.04251004      -0.37927261
Pt       1.28133450       3.70491650       4.31307676        6       0.00000000      -0.04929773      -0.08679796      -0.02985151
Ni       3.88647753       3.75513877       4.23092398        5       1.00000000       0.04074702       0.08462414      -0.33307347
Pt       6.48068080       3.72499751       4.16846091        5       0.00000000      -0.02884171      -0.02827849      -0.00231335
Ni       9.02607579       3.67123343       4.26260040        6       1.00000000      -0.04630302      -0.14766516      -0.36900997
Ni       2.60147454       5.90932572       4.26917890        6       1.00000000       0.07974734      -0.03904177      -0.22647477
Ni       5.13549416       5.90198554       4.22536686        5       1.00000000      -0.10775680      -0.02988356      -0.40414369
Ni       7.74884782       5.88267768       4.25426521        6       1.00000000      -0.05862137      -0.03849319      -0.37166477
Pt      10.28889392       5.86615455       4.35781621        7       0.00000000       0.01476351       0.01063412      -0.10468326
Pt       3.86355442       8.17507483       4.16336530        5       0.00000000       0.00427214       0.06801535      -0.06234432
Pt       6.41967413       8.12522434       4.15235466        5       0.00000000      -0.10416417      -0.05738207      -0.18773214
Pt       9.00898790       8.14160746       4.24814495        5       0.00000000      -0.08222674       0.00763488      -0.01912442
Pt      11.64136444       8.16910752       4.23825154        5       0.00000000       0.05754582       0.02561236       0.01005185
Pt       0.03218682       0.04252533       6.47858052        9       0.00000000      -0.01831491       0.03064810       0.11638739
Pt       2.59705087      -0.00875680       6.52020631        9       0.00000000       0.02287079      -0.02400196       0.39450859
Pt       5.17770778      -0.10308628       6.50274872        9       0.00000000      -0.03906334       0.17450639       0.46738195
Pt       7.76797042      -0.04216438       6.51780451        9       0.00000000       0.04618715       0.20905590       0.27281130
Ni       1.29486787       2.28209252       6.44624598        8       1.00000000      -0.00870450       0.01211077      -0.08847446
Pt       3.82051026       2.27199600       6.38026257        8       0.00000000       0.16846177      -0.08555902       0.53081836
Pt       6.49646491       2.22996832       6.37475515        8       0.00000000      -0.03926738      -0.11106500       0.53908061
Pt       9.12121776       2.31529777       6.43947400        8       0.00000000      -0.03851116      -0.00404373      -0.04085377
Ni       2.51685673       4.46013019       6.43347529        8       1.00000000      -0.06835135       0.03148201      -0.13985209
Pt       5.15143567       4.45233789       6.44456003        8       0.00000000      -0.04103084       0.05447417       0.12951960
Ni       7.81173005       4.46510301       6.36212576        8       1.00000000       0.13127509       0.07503099      -0.05053392
Ni      10.35751286       4.46205037       6.47829009        9       1.00000000      -0.01113728       0.03420239      -0.11059985
Pt       3.78904515       6.62452108       6.45747743        9       0.00000000       0.11781960      -0.05050144      -0.01915460
Pt       6.52323238       6.61826999       6.38014374        8       0.00000000      -0.08461889      -0.06270570       0.42724598
Ni       9.06469606       6.59662515       6.46633847        9       1.00000000      -0.07705002      -0.10276740      -0.02490729
Ni      11.59548701       6.59233212       6.47335311        9       1.00000000       0.01770043      -0.05520743      -0.08821578
