64
Lattice="10.21428786646658 -0.0111134613294863 0.08621472735441166 5.097519393397977 8.824855023313862 0.013921347095401927 0.0 0.0 21.56717441957478" Properties=species:S:1:pos:R:3:tags:I:1:initial_magmoms:R:1:forces:R:3 unique_id=bd6fd07f9be44e8991339b80038c7109 energy=-372.2787018959603 stress="0.005091698196971478 6.18798829423245e-05 0.0004337666362147201 6.18798829423245e-05 0.005174303201172691 -0.00012793965353390962 0.0004337666362147201 -0.00012793965353390962 -0.0016049852225122861" pbc="T T T"
Pt       0.04810729       0.09660317       0.02005621        0       0.00000000      -0.01725257       0.02955575      -0.15560676
Ni       2.54194490      -0.01289975       0.07307888        1       1.00000000      -0.10821035       0.00859533       0.22604046
Ni       5.11484889      -0.01813539       0.08820132        1       1.00000000      -0.00583228       0.01975567       0.18592412
Ni       7.68006720       0.00151239       0.11252389        1       1.00000000       0.15562691      -0.02094675       0.12419567
Ni       1.24360347       2.21065075       0.07530355        1       1.00000000      -0.01721536       0.07909791       0.27867646
Pt       3.77691941       2.11344495       0.03980987        0       0.00000000       0.04572128       0.15496648      -0.06895310
Pt       6.42922946       2.09025055       0.05717416        1       0.00000000      -0.13091837       0.12914892      -0.13878817
Ni       8.98973786       2.19757169       0.12297087        1       1.00000000       0.08447966       0.04810608       0.15587995
Pt       2.47367683       4.36412953       0.07516930        1       0.00000000       0.09424723       0.13080908      -0.05878595
Pt       5.13317108       4.40439340       0.19826772        2       0.00000000       0.01170353      -0.17435998      -0.64702241
Pt       7.73858178       4.39883525       0.08452102        1       0.00000000      -0.00241203       0.05251393      -0.32784929
Ni      10.21137162       4.35368902       0.24619800        2       1.00000000      -0.01106321      -0.00901482      -0.13430365
Pt       3.84629813       6.65716447       0.00000000        0       0.00000000       0.03225453      -0.12256647      -0.47091184
Ni       6.41128743       6.64018201       0.15536463        2       1.00000000       0.01221252       0.01297811      -0.34508308
Pt       8.89718345       6.68632603       0.12486765        1       0.00000000      -0.04397590      -0.10590452      -0.06298410
Pt      11.44737660       6.65193405       0.08860437        1       0.00000000      -0.03712823      -0.14514363      -0.17944650
Ni       1.30136018       0.78563423       2.21890498        3       1.00000000       0.06375439       0.20288139       0.26287353
Pt       3.83815607       0.69978301       2.29360725        4       0.00000000      -0.02478709       0.04043153      -0.04823414
Ni       6.38348583       0.71084682       2.26973480        4       1.00000000      -0.09350416      -0.02039594       0.23153453
Ni       8.97274883       0.75246468       2.25633461        4       1.00000000       0.07853876       0.01468635       0.15551259
Ni       2.53738577       2.93692923       2.25147043        4       1.00000000      -0.00815392      -0.02084493       0.29446145
Ni       5.10026907       2.93096271       2.28065471        4       1.00000000      -0.07146122      -0.01155734       0.32339555
Pt       7.67654441       2.88914562       2.27756369        4       0.00000000      -0.01077573      -0.07853276      -0.06478175
Ni      10.27962741       2.90983389       2.24122257        3       1.00000000       0.08948295      -0.07103067       0.09997000
Ni       3.80172416       5.09100662       2.25065823        4       1.00000000      -0.18205855      -0.13956183       0.22521560
Ni       6.44504885       5.13564761       2.24552368        3       1.00000000       0.21437014      -0.02739011       0.16320434
Ni       8.97204593       5.15833260       2.25486087        4       1.00000000       0.01982456       0.00286378       0.21530685
Ni      11.48087546       5.08533546       2.28611388        4       1.00000000       0.03435188      -0.11466307       0.18693632
Pt       5.19994975       7.37882558       2.21985368        3       0.00000000       0.03626012       0.05077129      -0.00426111
Ni       7.68963243       7.32958046       2.26660480        4       1.00000000       0.10006410      -0.05083458       0.32112797
Ni      10.19212231       7.34214698       2.27157067        4       1.00000000      -0.04106534       0.04181610       0.18285707
Pt      12.72038909       7.35374691       2.33151709        4       0.00000000      -0.02117467      -0.07421991      -0.03450683
Ni       0.08856362       1.46614085       4.32196709        5       1.00000000       0.17749455       0.09871076      -0.13375670
Ni       2.57134568       1.46275999       4.36582026        6       1.00000000      -0.10827741       0.04761591      -0.05086230
Ni       5.14007727       1.45015207       4.38104907        6       1.00000000      -0.06022096       0.04072297      -0.07516290
Ni       7.64846411       1.44003702       4.40498854        6       1.00000000      -0.09044370       0.04602122      -0.11176979
Ni       1.35862392       3.62809799       4.29436080        5       1.00000000       0.02734569      -0.05565812      -0.22006121
Ni       3.81667869       3.60325185       4.30178738        5       1.00000000      -0.07171503      -0.14761080      -0.25210760
Ni       6.39591731       3.60406478       4.34822600        5       1.00000000      -0.09894386      -0.08375072      -0.15288241
Pt       8.97458066       3.60783115       4.38544704        6       0.00000000       0.09182830      -0.03593504      -0.05728298
Ni       2.57365296       5.82833382       4.33874795        5       1.00000000      -0.02445697      -0.17735711      -0.14637281
Pt       5.13856546       5.81596196       4.28344281        5       0.00000000      -0.00999042      -0.12105863      -0.09647248
Ni       7.69901643       5.88920290       4.33485703        5       1.00000000      -0.00667329       0.02028666      -0.22345364
Pt      10.26369905       5.92421761       4.34057806        5       0.00000000       0.01227159       0.00859507      -0.09329329
Pt       3.82539782       8.15876216       4.39232211        6       0.00000000       0.01256685       0.09498926       0.01903644
Ni       6.46825556       8.13201817       4.34720673        5       1.00000000       0.13669367       0.12447916      -0.15521158
Ni       8.94730931       8.10664740       4.40176440        6       1.00000000      -0.03587000       0.08844350       0.07287457
Ni      11.47850642       8.12858555       4.42927355        6       1.00000000      -0.14685402       0.20383390      -0.03153703
Ni       0.04982005       0.03683809       6.36217355        8       1.00000000       0.14849663       0.14486402       0.26812155
Ni       2.62279189       0.02521264       6.42938350        8       1.00000000      -0.00383580       0.04580562      -0.35783424
Ni       5.15006324      -0.00947474       6.44660668        8       1.00000000      -0.02624816       0.04558901      -0.37782658
Ni       7.67209898      -0.00220104       6.51117351        9       1.00000000      -0.13311027       0.08425216      -0.17092758
Ni       1.34131109       2.15352575       6.41424270        8       1.00000000       0.02391088       0.00206318      -0.41522355
Ni       3.84659134       2.14072040       6.34272294        7       1.00000000      -0.01908156      -0.06441908      -0.01420838
Ni       6.43691542       2.13459029       6.37089350        8       1.00000000      -0.08691666      -0.10926823       0.08130645
Ni       8.96588934       2.13460301       6.50459722        9       1.00000000       0.00555566      -0.12932355      -0.27260580
Ni       2.58917987       4.38315707       6.33971166        7       1.00000000      -0.01393015      -0.04886966      -0.06295695
Pt       5.11570338       4.30613100       6.41832254        8       0.00000000      -0.03952509      -0.16143643       0.65806459
Ni       7.69081845       4.36977261       6.40772437        8       1.00000000      -0.10724012       0.02181236       0.21269541
Pt      10.28563146       4.36714728       6.56717442       10       0.00000000       0.15532148      -0.00788352       0.27998884
Ni       3.82160476       6.61072383       6.36153499        8       1.00000000      -0.07048500      -0.11421022       0.46858423
Pt       6.46664711       6.66627349       6.47197924        9       0.00000000       0.02670547       0.07263152       0.24177247
Ni       8.99316072       6.64308916       6.41793815        8       1.00000000       0.01436269       0.14067039       0.10760149
Ni      11.55125614       6.63676476       6.41869465        8       1.00000000       0.07536142       0.09338405       0.17016996
