64
Lattice="10.38914537622574 -0.01913839743600445 0.0686921202435661 5.177998349745566 8.907475836487942 0.021933644832500807 0.056086881315547885 -0.01170253736260686 8.869031739306342" Properties=species:S:1:pos:R:3:tags:I:1:initial_magmoms:R:1:forces:R:3 unique_id=bda87091f1f148e6b51d200bad5f6906 stress="0.00048032391383648343 3.201842293142784e-06 -2.8061104297400517e-05 3.201842293142784e-06 0.0004837066004610216 1.1451751548391699e-05 -2.8061104297400517e-05 1.1451751548391699e-05 0.0004272031057174844" energy=-401.89890744937077 pbc="T T T"
Ni      -0.00642075      -0.01790311       0.16853581        4       1.00000000      -0.01831529       0.03177167       0.32852948
Ni       2.59680451      -0.01024484       0.20518147        4       1.00000000       0.07138589       0.07994162       0.44978839
Pt       5.20066612      -0.06409411       0.16437712        4       0.00000000       0.07497397      -0.13965585       0.27222007
Ni       7.81648617      -0.07045698       0.23036622        4       1.00000000       0.03499953      -0.11051918       0.38926929
Pt       1.29745800       2.23123842       0.12089941        4       0.00000000       0.05083081       0.01596668       0.01536950
Pt       3.86247056       2.21968388       0.21056111        4       0.00000000       0.04101784       0.07465102       0.15595573
Pt       6.51243450       2.18989142       0.14930112        4       0.00000000       0.05797461       0.02657712       0.01580357
Pt       9.11967744       2.20555985       0.18319360        4       0.00000000       0.04896357       0.00531332       0.08306039
Ni       2.57556601       4.49490532       0.13345854        4       1.00000000       0.06191538       0.03633219       0.10108676
Pt       5.15147461       4.50281842       0.07171623        4       0.00000000      -0.01002454       0.14049968      -0.16986876
Pt       7.83375161       4.49843466       0.07664173        4       0.00000000       0.11023776       0.12784939      -0.20220666
Ni      10.41731908       4.48259982       0.12695235        4       1.00000000       0.09562366       0.08959546       0.12592587
Ni       3.84340727       6.72097251       0.10676663        4       1.00000000      -0.06195753       0.13031563       0.20900525
Pt       6.48735793       6.77768390       0.23070183        4       0.00000000       0.03298202       0.12997838       0.23718539
Ni       9.10733270       6.67244802       0.12570890        4       1.00000000       0.08741544      -0.01038104       0.19509815
Ni      11.70714754       6.64438968       0.13935707        4       1.00000000       0.14518312      -0.06932619       0.14473160
Ni       1.34032249       0.73037333       2.27640020        3       1.00000000       0.05170282       0.01984239       0.20119399
Ni       3.87065880       0.76341862       2.29768890        3       1.00000000      -0.05196769       0.11493953       0.11041691
Ni       6.51047408       0.76629614       2.30527868        3       1.00000000      -0.04357887       0.09732998       0.09402710
Pt       9.11579940       0.72060270       2.32180588        3       0.00000000       0.04172561       0.21163374      -0.02475500
Ni       2.59605519       2.92040689       2.32098294        3       1.00000000      -0.02579835      -0.14894467       0.25322189
Ni       5.20661298       2.93023451       2.32082473        3       1.00000000      -0.07109745      -0.07015764       0.09661428
Ni       7.77897467       2.93592706       2.32579105        3       1.00000000       0.01351488      -0.09882317      -0.00263408
Ni      10.41848781       2.92750085       2.35944863        3       1.00000000       0.05007746      -0.12502546       0.21669753
Pt       3.90997423       5.19337229       2.27834056        3       0.00000000      -0.00689922      -0.08724483      -0.13596302
Ni       6.50038353       5.18451153       2.28964299        3       1.00000000       0.00583671      -0.02313082      -0.05002137
Pt       9.03975715       5.14194248       2.33252871        3       0.00000000      -0.17821321      -0.17439132      -0.03410411
Pt      11.70648024       5.11760421       2.28093407        3       0.00000000      -0.01293902      -0.18659328       0.11092948
Ni       5.21658191       7.44251403       2.26819909        3       1.00000000       0.07278577       0.04967686       0.12649285
Ni       7.75578618       7.45335388       2.29615539        3       1.00000000      -0.11096500       0.04937086       0.12766861
Pt      10.38463294       7.40627242       2.29031383        3       0.00000000      -0.02986465      -0.00354840      -0.24123851
Ni      13.00374137       7.40488442       2.27065822        3       1.00000000       0.03660002      -0.07691331      -0.02358027
Ni       0.07820849       1.52526197       4.37772942        2       1.00000000       0.15996615       0.06221933      -0.13568104
Ni       2.58426772       1.51507689       4.37365797        2       1.00000000      -0.07567567       0.07323222      -0.14707217
Ni       5.21240787       1.49973907       4.38751086        2       1.00000000      -0.10241008      -0.02087263      -0.22429314
Ni       7.82013756       1.49274314       4.43729903        2       1.00000000       0.06412016      -0.04018925      -0.09122123
Ni       1.32714323       3.65058057       4.41035862        2       1.00000000       0.01411857      -0.12643296      -0.13596556
Ni       3.88490274       3.68064811       4.38888623        2       1.00000000      -0.11486142      -0.11334593      -0.20642551
Pt       6.54399523       3.64668120       4.42439195        2       0.00000000      -0.00052865      -0.05257667      -0.14892205
Ni       9.11956287       3.66923075       4.43664453        2       1.00000000       0.04674832      -0.18402031      -0.24094162
Ni       2.61287637       5.90815504       4.43196107        2       1.00000000      -0.02364876      -0.02895387      -0.07760129
Pt       5.21714688       5.90237442       4.41099015        2       0.00000000       0.16292810       0.01084276       0.10313029
Ni       7.80812786       5.90507060       4.44626891        2       1.00000000      -0.06740817      -0.01657966      -0.08246203
Pt      10.40391550       5.83435099       4.56928972        2       0.00000000       0.03612300      -0.01842767       0.08978454
Pt       3.95306887       8.16848724       4.38849592        2       0.00000000       0.03524634      -0.00827196       0.17353019
Ni       6.50816805       8.19012385       4.38407936        2       1.00000000      -0.06448092       0.09601710      -0.13095935
Pt       9.00646441       8.18310744       4.38970811        2       0.00000000      -0.11646634       0.09172795       0.12316997
Pt      11.73272228       8.17153017       4.40190491        2       0.00000000       0.06466787       0.06637433       0.03795748
Pt       0.04401828       0.00057951       6.59521929        1       0.00000000      -0.02028637       0.02735578       0.13064619
Pt       2.61877364      -0.00294314       6.61866085        1       0.00000000      -0.03887360       0.07360703       0.15707748
Pt       5.23046061      -0.05121845       6.55467966        1       0.00000000      -0.04599772      -0.02408328      -0.37038863
Pt       7.81918311      -0.05526602       6.68828532        1       0.00000000      -0.09081824      -0.01655109       0.18909841
Ni       1.31970447       2.25162905       6.48514195        1       1.00000000      -0.02825534       0.10465947      -0.28952703
Pt       3.94937460       2.27011826       6.48608660        1       0.00000000      -0.02426534       0.08191736      -0.16533194
Ni       6.53411623       2.23738556       6.53902397        1       1.00000000       0.00752317       0.00599724      -0.22646065
Pt       9.12925792       2.29400627       6.51059003        1       0.00000000      -0.01520947       0.03961143      -0.26103878
Pt       2.57531448       4.49728327       6.55683382        1       0.00000000      -0.11628631       0.03188941      -0.02015803
Ni       5.22924636       4.42711495       6.52302711        1       1.00000000      -0.03999808      -0.04103896      -0.36936666
Ni       7.83544296       4.43738952       6.52176223        1       1.00000000       0.05612288      -0.00660823      -0.46274688
Ni      10.41006989       4.44422177       6.64288461        1       1.00000000      -0.06357072      -0.01767590      -0.03689340
Ni       3.90380382       6.64451026       6.60025988        1       1.00000000      -0.00931375      -0.03891727      -0.12812549
Pt       6.54658614       6.58314562       6.56372901        1       0.00000000      -0.02164703      -0.06681531      -0.07175164
Ni       9.12909021       6.60223678       6.63726289        1       1.00000000      -0.06043374      -0.11464111      -0.06825991
Ni      11.70431309       6.62864406       6.65817769        1       1.00000000      -0.07125491       0.06362031      -0.08872084
