64
Lattice="10.33113300604117 0.0035588541718663096 0.04236897521561854 5.168648561141784 8.930450435816912 0.027718158050300392 0.034594123400964086 0.0061600035678980175 8.821992574705263" Properties=species:S:1:pos:R:3:tags:I:1:initial_magmoms:R:1:forces:R:3 unique_id=9d034920617d47058ae29c0c0980d839 stress="0.0002586542581289736 4.47794376580446e-06 -2.3551022848959573e-05 4.47794376580446e-06 0.000259551397379168 2.052279562150761e-06 -2.3551022848959573e-05 2.052279562150761e-06 0.00025159612123754754" energy=-399.1451477274692 pbc="T T T"
Ni      -0.01319425       0.02828247       0.20058756        4       1.00000000      -0.05689888       0.11751839       0.30443527
Ni       2.58582249       0.00660617       0.21781610        4       1.00000000       0.04455110       0.01013139       0.39118699
Ni       5.17211254      -0.00910971       0.18459823        4       1.00000000       0.01421574       0.16190361       0.26164314
Ni       7.77443480      -0.03036773       0.14515822        4       1.00000000       0.09212988      -0.10077753       0.21266822
Ni       1.27651636       2.22768203       0.09630404        4       1.00000000      -0.05538791      -0.04590708       0.13646504
Pt       3.82072008       2.23532807       0.20917232        4       0.00000000      -0.03119294       0.04704768       0.18769394
Pt       6.49483976       2.17441885       0.22415516        4       0.00000000       0.08380352      -0.08591651       0.19285786
Ni       9.06791690       2.19971100       0.18639742        4       1.00000000       0.00880788      -0.18367286       0.11488117
Ni       2.57001809       4.47790937       0.07709579        4       1.00000000      -0.01741846       0.02314314       0.01287958
Ni       5.16629073       4.46801304       0.18604427        4       1.00000000       0.19328988      -0.09191836       0.22751530
Pt       7.82827448       4.47763822       0.14166487        4       0.00000000       0.18512103      -0.01748389      -0.10157385
Ni      10.36668138       4.47603614       0.10029783        4       1.00000000       0.13026092       0.00774561       0.02084090
Ni       3.84969023       6.72691022       0.19479701        4       1.00000000      -0.02332938       0.16194198       0.21526333
Pt       6.44672139       6.75277567       0.23340523        4       0.00000000      -0.02800060       0.05260963       0.13214308
Ni       9.07147068       6.71482101       0.11998274        4       1.00000000       0.02753928       0.04358689       0.01554995
Ni      11.64319852       6.71207105       0.11111374        4       1.00000000       0.12979384       0.08093851      -0.04631534
Ni       1.29698592       0.73572644       2.17041544        3       1.00000000      -0.04998928       0.03496394      -0.12970483
Ni       3.87942526       0.75175291       2.23303091        3       1.00000000       0.07413401       0.01591639       0.03688279
Ni       6.49128129       0.75155091       2.27915306        3       1.00000000       0.08347385       0.03267215       0.15995245
Ni       9.02415994       0.73457723       2.22337756        3       1.00000000      -0.14236593       0.02033699      -0.06747111
Ni       2.58379595       2.96920543       2.23627344        3       1.00000000      -0.10396844       0.09685148      -0.04553119
Ni       5.17860997       2.95612011       2.27806293        3       1.00000000      -0.05197434      -0.16172436       0.05323126
Ni       7.76494289       2.96083116       2.27487012        3       1.00000000       0.09910524      -0.11174524      -0.06583820
Pt      10.29880648       2.92103336       2.24010721        3       0.00000000      -0.02542973      -0.00032513       0.03136697
Pt       3.90451775       5.19355775       2.18953222        3       0.00000000      -0.03815747      -0.05673920       0.00821233
Ni       6.50685693       5.20114859       2.25444282        3       1.00000000       0.14318127       0.02254411      -0.06372771
Ni       9.01872314       5.21825973       2.29442856        3       1.00000000      -0.02610787      -0.01371420       0.16348643
Pt      11.62296455       5.22303793       2.22430278        3       0.00000000      -0.08051823       0.00693468      -0.00899996
Ni       5.15562426       7.49073945       2.21850029        3       1.00000000      -0.12774361       0.07513850      -0.09587816
Ni       7.76194408       7.44442579       2.24818832        3       1.00000000       0.03934906      -0.08455891      -0.00710243
Pt      10.31650503       7.46722244       2.17831020        3       0.00000000       0.00665904      -0.06219934      -0.01804852
Ni      12.94430017       7.48476491       2.23225071        3       1.00000000      -0.03844262       0.03499320      -0.07702905
Ni      -0.00907048       1.52807525       4.36648170        2       1.00000000      -0.04192735       0.07964386      -0.08579632
Pt       2.60218516       1.53733345       4.28087098        2       0.00000000       0.03864009       0.04684077      -0.02760149
Ni       5.19724419       1.50349385       4.35413439        2       1.00000000       0.01240434      -0.01773050      -0.15208793
Ni       7.79241449       1.50815097       4.36245550        2       1.00000000       0.09111989       0.06844258      -0.22120176
Pt       1.27451099       3.77694420       4.46423738        2       0.00000000      -0.02336154      -0.00892314      -0.03570899
Ni       3.88942615       3.73308845       4.37190411        2       1.00000000       0.00240557      -0.01149129      -0.13465850
Pt       6.53502522       3.69326330       4.30355214        2       0.00000000      -0.02274242      -0.07548029       0.07740290
Ni       9.05945879       3.75164181       4.41544721        2       1.00000000       0.03195800       0.06549104      -0.20940179
Ni       2.57115315       5.93917084       4.41553770        2       1.00000000      -0.03773270       0.02298792      -0.10879331
Pt       5.16925445       5.92821567       4.33709244        2       0.00000000       0.02694565       0.02197919       0.06436514
Ni       7.83164195       5.90583734       4.39045760        2       1.00000000       0.07970167      -0.09493533      -0.19714612
Ni      10.32507189       5.93163068       4.47188308        2       1.00000000      -0.06373364       0.00270742      -0.09070813
Pt       3.86999499       8.24957028       4.31781681        2       0.00000000      -0.00810566       0.03869389      -0.02840959
Pt       6.47050641       8.20277231       4.28973550        2       0.00000000      -0.00100766       0.01528846      -0.00402662
Pt       9.06419391       8.13161078       4.39566245        2       0.00000000      -0.05183698       0.00004980       0.10738816
Pt      11.66251002       8.18204298       4.40755194        2       0.00000000      -0.02443355      -0.01605258      -0.01387375
Pt      -0.00698914       0.04194828       6.60112081        1       0.00000000      -0.07246929       0.01473805       0.18734745
Pt       2.60869153       0.00672263       6.63685084        1       0.00000000      -0.04113633      -0.00006111       0.22015077
Pt       5.23281117      -0.08921578       6.63149274        1       0.00000000       0.02166663      -0.22818827       0.13185496
Ni       7.76538940       0.00001681       6.58768153        1       1.00000000       0.02111205       0.05187169      -0.12806349
Ni       1.30168593       2.28664103       6.56301996        1       1.00000000      -0.01624822       0.06981291      -0.09626477
Pt       3.83973839       2.28165882       6.50525014        1       0.00000000      -0.09398481      -0.01276203      -0.25828308
Pt       6.52456699       2.20526237       6.50912065        1       0.00000000       0.02513948      -0.02952931      -0.23283661
Pt       9.11122286       2.32899415       6.56506124        1       0.00000000       0.10035831       0.16053805       0.01316533
Ni       2.53799802       4.48035773       6.55864310        1       1.00000000      -0.17414149       0.03472619      -0.10508734
Pt       5.17155086       4.46741815       6.60874294        1       0.00000000      -0.03127374       0.02004850       0.04040413
Ni       7.83109972       4.48857720       6.49340935        1       1.00000000       0.09380098       0.04145729      -0.29836880
Ni      10.35996802       4.52029361       6.58816288        1       1.00000000      -0.04459409       0.19775876      -0.08273022
Pt       3.76655802       6.69788348       6.61623973        1       0.00000000      -0.18072519       0.00464917       0.14053719
Pt       6.55662249       6.65349782       6.53478463        1       0.00000000       0.05274426      -0.00754112      -0.21119314
Ni       9.10929277       6.62615952       6.57847862        1       1.00000000       0.06840667      -0.22764955      -0.18488511
Ni      11.61292470       6.64412684       6.59406842        1       1.00000000      -0.19543879      -0.25761663      -0.22742482
