64
Lattice="10.13868409539931 -0.011294094156249735 0.007721471540089214 5.059561075247607 8.689157366135921 -0.06033285979943561 0.006304555112213606 -0.06052230231456816 8.645806686055948" Properties=species:S:1:pos:R:3:tags:I:1:initial_magmoms:R:1:forces:R:3 unique_id=bd920c79fa5b4b30afe73be41112b53b stress="-0.007032382932559533 1.5587990281386923e-05 -1.338070674257113e-05 1.5587990281386923e-05 -0.00698024916691066 -1.6722183139989505e-05 -1.338070674257113e-05 -1.6722183139989505e-05 -0.00603780196266239" energy=-388.6528667034268 pbc="T T T"
Ni       0.04140327      -0.05320153       0.20402200        4       1.00000000       0.07976179      -0.04938773       0.14313919
Ni       2.48525766      -0.03818605       0.23157214        4       1.00000000       0.01371686      -0.01865906       0.19625490
Pt       5.09762037      -0.02589492       0.16422250        4       0.00000000       0.00909749       0.03588607      -0.20725781
Ni       7.62465389      -0.06230652       0.20768692        4       1.00000000       0.03592061      -0.06561202       0.17470325
Ni       1.25767903       2.18292004       0.11842352        4       1.00000000      -0.02309141       0.01973214       0.11874693
Pt       3.75994586       2.24035429       0.17254251        4       0.00000000      -0.01522049       0.01637822      -0.14251665
Ni       6.33969243       2.21917549       0.12045389        4       1.00000000      -0.02412267       0.07529203       0.12238732
Pt       8.87341380       2.21693540       0.11824956        4       0.00000000       0.01135718       0.04828693      -0.22102525
Ni       2.50618791       4.38684890       0.08101051        4       1.00000000       0.01645543       0.02204010       0.04159541
Ni       5.08785527       4.39188526       0.08990650        4       1.00000000       0.00250618       0.04953126       0.06716156
Ni       7.56322856       4.37879969       0.09909021        4       1.00000000      -0.04286385       0.02691571       0.08151090
Ni      10.16679079       4.37163937       0.09485708        4       1.00000000       0.03356346       0.06031564       0.08796217
Ni       3.80713377       6.48784741       0.07036461        4       1.00000000       0.07236675      -0.04891133       0.01948106
Ni       6.31784823       6.49438941       0.07349687        4       1.00000000      -0.01309570      -0.02525062      -0.04720374
Ni       8.81674840       6.44717752       0.14520614        4       1.00000000      -0.08825015      -0.06559237       0.08345335
Ni      11.44692509       6.44627735       0.04007493        4       1.00000000       0.09726369      -0.04736547      -0.10410369
Ni       1.30056811       0.72077652       2.19731725        3       1.00000000       0.01354459       0.02863788       0.13329551
Ni       3.76376454       0.74662703       2.20961223        3       1.00000000      -0.00586259       0.03410136       0.02769830
Ni       6.33515715       0.75301602       2.22889051        3       1.00000000      -0.01180979       0.01316037       0.05736067
Pt       8.89079067       0.70996148       2.21109824        3       0.00000000       0.01971848       0.00338761       0.15927221
Ni       2.49961687       2.90945018       2.22440561        3       1.00000000       0.00003725       0.01024668       0.03569828
Ni       5.07097848       2.90869262       2.18320454        3       1.00000000      -0.03815701       0.06588792      -0.00465373
Ni       7.57829673       2.92166224       2.17590136        3       1.00000000      -0.01162166       0.01281662       0.01088382
Ni      10.18556664       2.91887678       2.21096362        3       1.00000000       0.03298314       0.01922822       0.02036531
Ni       3.80012295       5.04173268       2.13995019        3       1.00000000       0.03402873      -0.04241773      -0.00086044
Ni       6.32636415       5.06478738       2.12098198        3       1.00000000      -0.02614375      -0.01620532       0.03168394
Ni       8.83981937       4.99315907       2.15338433        3       1.00000000      -0.01877388      -0.05763528       0.04214774
Ni      11.44183149       4.98310994       2.15968011        3       1.00000000       0.06573652      -0.07745783       0.06860076
Ni       5.09883864       7.16148220       2.09867601        3       1.00000000      -0.02853308      -0.07207109       0.04200736
Ni       7.53257165       7.18901880       2.10024665        3       1.00000000      -0.03081253      -0.09175214       0.05168363
Pt      10.18106832       7.11543283       2.14538379        3       0.00000000       0.03687937      -0.13139591       0.04648100
Ni      12.68942567       7.13994805       2.10045298        3       1.00000000       0.09178422      -0.13106566       0.02656582
Ni       0.06576329       1.46177843       4.25032866        2       1.00000000       0.07284485      -0.01983807      -0.03874712
Ni       2.49367068       1.47294741       4.21827622        2       1.00000000       0.01081239       0.03250856      -0.03171725
Ni       5.07369228       1.43696776       4.20458290        2       1.00000000      -0.08545741       0.03089100      -0.14689245
Ni       7.57316033       1.41338690       4.26128585        2       1.00000000      -0.05899289      -0.06390194      -0.01832957
Ni       1.27203510       3.59913053       4.26296765        2       1.00000000       0.00989883      -0.01549121      -0.04924906
Ni       3.75803639       3.64564276       4.19670184        2       1.00000000      -0.01371149       0.06785325      -0.15848267
Pt       6.32935222       3.60215299       4.25861295        2       0.00000000      -0.00354161      -0.02701438      -0.01276537
Ni       8.91117704       3.63355792       4.20046102        2       1.00000000       0.00184050       0.04709577      -0.15209092
Ni       2.50847176       5.69885896       4.24308534        2       1.00000000      -0.03541351      -0.05262991      -0.15753596
Ni       5.06537816       5.73612115       4.24429863        2       1.00000000      -0.00032007      -0.05175953      -0.13755220
Ni       7.57836333       5.74403828       4.21109400        2       1.00000000      -0.00020435       0.00429474      -0.11462335
Ni      10.17765969       5.68603635       4.25627294        2       1.00000000       0.00259818      -0.02867515      -0.05295428
Pt       3.79994016       7.84379221       4.19687247        2       0.00000000      -0.01963609      -0.00945257       0.05128593
Ni       6.31518574       7.90609992       4.17063083        2       1.00000000      -0.05520743      -0.01509576      -0.06669224
Pt       8.80208406       7.92945934       4.15540715        2       0.00000000      -0.08521572      -0.03594905      -0.03565367
Ni      11.41981010       7.89035198       4.19861000        2       1.00000000       0.02750918      -0.07919997      -0.10647381
Pt       0.01756541      -0.08308199       6.45345442        1       0.00000000      -0.08978119       0.03036514       0.14199731
Pt       2.51280597      -0.03188197       6.45894275        1       0.00000000       0.09622765       0.07190450       0.20606291
Pt       5.10246387      -0.02947750       6.30445324        1       0.00000000      -0.06705572       0.08416291       0.01833901
Pt       7.60164073      -0.09483701       6.45858925        1       0.00000000       0.04780100       0.03168319       0.21742498
Ni       1.27175557       2.20711186       6.34739701        1       1.00000000       0.02405138       0.04945350      -0.06227207
Pt       3.79732607       2.27382335       6.26921064        1       0.00000000       0.00550184       0.06760493      -0.03859378
Ni       6.33989846       2.18761507       6.38086889        1       1.00000000      -0.02062868       0.03790759       0.00975924
Pt       8.88246892       2.23542067       6.25017383        1       0.00000000      -0.00097291       0.04483352      -0.04895991
Ni       2.50645838       4.36355150       6.33722201        1       1.00000000      -0.00572800       0.07079332      -0.07634110
Ni       5.07599193       4.36947113       6.37326029        1       1.00000000      -0.03502504       0.09872767       0.00743945
Ni       7.53755713       4.30328791       6.38364311        1       1.00000000      -0.11202150       0.02522519       0.02039958
Ni      10.22431860       4.29648641       6.34587368        1       1.00000000       0.12069989       0.01395180      -0.06119808
Ni       3.79539340       6.37917881       6.35609006        1       1.00000000      -0.02543686      -0.04851325      -0.02958535
Ni       6.30164156       6.40497535       6.33693150        1       1.00000000       0.00550157       0.02602836      -0.15823012
Pt       8.87108188       6.33413074       6.39127580        1       0.00000000       0.00552720      -0.02500882       0.09143237
Ni      11.43812374       6.39432055       6.32715147        1       1.00000000      -0.00482717       0.03617947      -0.17171953
