64
Lattice="10.172856900314699 -0.00561362101682917 0.00039023152970954353 5.081566911749559 8.794652382725266 0.01772934061163137 0.0 0.0 21.468905478227832" Properties=species:S:1:pos:R:3:tags:I:1:initial_magmoms:R:1:forces:R:3 unique_id=ebad0ca8aa1c4144bc42c718edfdbd40 energy=-369.7357916462511 stress="0.004337874791045313 -9.260958602318153e-05 8.180079357687217e-05 -9.260958602318153e-05 0.004057004264285697 9.303463000706022e-05 8.180079357687217e-05 9.303463000706022e-05 -0.0023775291486397114" pbc="T T T"
Ni       0.03642975      -0.01231004       0.11679992        1       1.00000000       0.17708015      -0.04671714      -0.49589005
Ni       2.52131637      -0.02837023       0.14179683        1       1.00000000       0.01417109       0.00808467      -0.20254856
Ni       5.08560409      -0.02657369       0.02427368        0       1.00000000      -0.04861612       0.07837681       0.12493795
Ni       7.63008947      -0.01640075       0.10001574        1       1.00000000      -0.04357044       0.05191310      -0.69539410
Ni       1.23122137       2.20859878       0.05844205        1       1.00000000      -0.01491175      -0.00150173       0.37581791
Pt       3.75272104       2.20700602       0.13509637        1       0.00000000      -0.04016356       0.00475246      -0.66392325
Pt       6.40674577       2.21462814       0.04159272        0       0.00000000      -0.00307071       0.06835001      -0.21552796
Ni       8.94129585       2.24213622       0.10192021        1       1.00000000       0.02130795       0.20374603      -0.37813512
Ni       2.52883160       4.42582343       0.01877058        0       1.00000000       0.00861887       0.01320149       0.20236302
Ni       5.07114509       4.44415883       0.02570563        0       1.00000000      -0.11496698      -0.06032666       0.09078509
Ni       7.66267441       4.42494105       0.03436010        0       1.00000000       0.16886358       0.02543854       0.11546620
Ni      10.15957266       4.38584226       0.02874182        0       1.00000000      -0.06018624       0.03140772       0.25251104
Ni       3.83728003       6.58050408       0.02521981        0       1.00000000       0.10238499      -0.02859244       0.13743358
Ni       6.34980882       6.61602127       0.03560862        0       1.00000000       0.04066142       0.13191192       0.12601772
Ni       8.87328099       6.58070093       0.10621894        1       1.00000000      -0.12040642      -0.09552523      -0.15576319
Ni      11.43440607       6.58247888       0.00000000        0       1.00000000      -0.08413245      -0.07996678       0.08870029
Ni       1.31888162       0.76600182       2.11637229        2       1.00000000       0.11545308       0.19214134       0.09687894
Ni       3.76403509       0.73244897       2.15181909        3       1.00000000      -0.12580974      -0.05007029       0.13767780
Ni       6.33225464       0.75205047       2.12505758        2       1.00000000      -0.07428494       0.03424016       0.08134154
Pt       8.97190866       0.78612794       2.08762556        2       0.00000000       0.06861057      -0.03875183       0.07720213
Ni       2.52664937       2.90978829       2.19981648        3       1.00000000      -0.00916535      -0.07876742       0.24572783
Ni       5.06505318       2.94908184       2.16461708        3       1.00000000      -0.03875951       0.09775286       0.12058057
Ni       7.65800826       2.97410455       2.13622763        2       1.00000000       0.06946347       0.10609187       0.13533113
Ni      10.18132840       2.93265968       2.14609495        2       1.00000000       0.06477357      -0.02842285       0.18799400
Ni       3.82591170       5.08981251       2.14210336        2       1.00000000      -0.01587352      -0.16496442       0.04931949
Pt       6.35968271       5.16272497       2.09569914        2       0.00000000      -0.01199623       0.01393565      -0.03057530
Ni       8.88717013       5.09740646       2.14561632        2       1.00000000       0.01463566      -0.09447225       0.10452137
Pt      11.42954021       5.03795078       2.15877583        3       0.00000000      -0.01050753      -0.08355517       0.09066449
Ni       5.11658621       7.32588661       2.10388754        2       1.00000000       0.00633761      -0.00189478      -0.01886511
Ni       7.60876085       7.34860944       2.11646458        2       1.00000000      -0.03270318      -0.00355550       0.00105585
Pt      10.09384123       7.35166895       2.15850363        3       0.00000000      -0.02273794      -0.01233928       0.07775785
Pt      12.73321526       7.28613878       2.10104027        2       0.00000000       0.05019966      -0.08857219       0.04523591
Ni       0.05683277       1.53465544       4.26865030        5       1.00000000       0.09408241       0.06109913      -0.08952958
Ni       2.49726869       1.51997710       4.23128061        4       1.00000000      -0.08936957       0.05218075      -0.15497401
Pt       5.02170470       1.42125363       4.20280739        4       0.00000000      -0.14723734      -0.06828676      -0.00488671
Pt       7.65394212       1.49789852       4.23682009        4       0.00000000       0.10924673      -0.00607270      -0.04798233
Ni       1.27188918       3.66754017       4.31529193        5       1.00000000       0.01198300      -0.05081987       0.00914026
Ni       3.75628919       3.72830662       4.24535160        4       1.00000000      -0.10359209       0.02780866      -0.22511941
Pt       6.34068220       3.74974321       4.32088193        5       0.00000000      -0.05079668       0.01826248      -0.00087813
Ni       8.95879278       3.73087905       4.25501336        5       1.00000000       0.10938130       0.06741214      -0.15459307
Ni       2.51488928       5.80840046       4.33317498        5       1.00000000      -0.10736584      -0.11302861      -0.04761799
Ni       5.05354393       5.84532681       4.31320337        5       1.00000000      -0.03160399      -0.02846496      -0.10071343
Ni       7.67247383       5.86326510       4.28081855        5       1.00000000       0.16376568       0.00538494      -0.19977514
Ni      10.18584266       5.83490302       4.29857914        5       1.00000000       0.04997581      -0.11701936      -0.09397131
Pt       3.80212311       7.97566630       4.29563798        5       0.00000000      -0.05300200      -0.04618004       0.05621237
Pt       6.41750674       8.04367339       4.19907031        4       0.00000000       0.06363409       0.00125465       0.00967315
Ni       8.91661584       8.03166431       4.28224200        5       1.00000000      -0.01617502      -0.09483100      -0.09465323
Ni      11.39615729       7.99937478       4.30244859        5       1.00000000      -0.03776247      -0.14100678      -0.06645700
Pt       0.00285175      -0.02428579       6.46823050        8       0.00000000      -0.15333652       0.11830792       0.41130885
Pt       2.58616098       0.01256702       6.43979122        7       0.00000000       0.12299335       0.10383865       0.21350562
Ni       5.08853270      -0.01124432       6.39428792        7       1.00000000      -0.08526080       0.00987430      -0.03543987
Pt       7.53329822      -0.05667551       6.46890548        8       0.00000000       0.04808611       0.02286142       0.51839611
Ni       1.27710232       2.26832656       6.38092018        7       1.00000000       0.05823421       0.02826833      -0.16919049
Pt       3.80792467       2.31535241       6.35322022        7       0.00000000      -0.08352026       0.19652033       0.62412223
Ni       6.34373856       2.23099171       6.34980604        6       1.00000000      -0.02657153       0.04582210       0.40799915
Pt       8.92702365       2.31502162       6.43855374        7       0.00000000       0.03858297      -0.04708998       0.29467313
Ni       2.51553163       4.45286500       6.38133241        7       1.00000000       0.00890209      -0.00898570      -0.28091476
Ni       5.07951107       4.46375306       6.41486159        7       1.00000000      -0.09052563       0.01715327      -0.05636183
Ni       7.59823895       4.42809393       6.41914234        7       1.00000000      -0.02339733      -0.00897947      -0.01136124
Ni      10.23346586       4.41401147       6.38586674        7       1.00000000       0.10371730      -0.02345043      -0.25701673
Ni       3.80487111       6.51409333       6.41733321        7       1.00000000      -0.06148125      -0.06489530      -0.13075042
Ni       6.33391911       6.53792722       6.41137622        7       1.00000000       0.04355427       0.01411781      -0.21401380
Pt       8.94095458       6.52522721       6.40761072        7       0.00000000       0.01198154      -0.00775008      -0.04470482
Ni      11.45515569       6.54209393       6.38763760        7       1.00000000       0.07217836      -0.06665450      -0.17282463
