64
Lattice="10.154975554452264 0.012648253384656628 -0.012133916738958446 5.088441485970804 8.762687418307339 -0.030826181595538144 -0.009907301530621384 -0.023343219520077035 8.682619070606718" Properties=species:S:1:pos:R:3:tags:I:1:initial_magmoms:R:1:forces:R:3 unique_id=1c07b09de1eb4d08aee0cd3658d77603 stress="-0.006791961976087876 1.6877797896161703e-05 2.422571803219964e-06 1.6877797896161703e-05 -0.006749744077947574 -1.60161980335481e-05 2.422571803219964e-06 -1.60161980335481e-05 -0.005815881599892096" energy=-390.7600647152825 pbc="T T T"
Ni       0.02847327      -0.01113118       0.18096737        4       1.00000000       0.05599125       0.04504790       0.11714644
Ni       2.48501518       0.00174985       0.20053428        4       1.00000000      -0.03500358      -0.00326409       0.07340204
Pt       5.13412308      -0.00642550       0.21035119        4       0.00000000       0.01494756      -0.01400960      -0.05410793
Ni       7.64454162      -0.03356003       0.19591414        4       1.00000000       0.07174104      -0.06627295       0.19424797
Ni       1.26741352       2.20674436       0.12416798        4       1.00000000      -0.01152292       0.03860182       0.11108785
Pt       3.76930791       2.26364333       0.19443873        4       0.00000000      -0.04585162       0.00604457      -0.08007430
Ni       6.35290996       2.24306856       0.11727353        4       1.00000000      -0.03487697       0.03906105       0.13225966
Pt       8.89236530       2.26033223       0.10852498        4       0.00000000       0.00175942       0.07666365      -0.20231985
Ni       2.51689844       4.42486255       0.09823549        4       1.00000000      -0.01451082       0.02324439       0.05557708
Ni       5.09504531       4.42577532       0.09370329        4       1.00000000      -0.08006282       0.05180840       0.04434925
Ni       7.55907027       4.38063054       0.09655020        4       1.00000000      -0.07460772      -0.01985128       0.04112281
Ni      10.22519543       4.38969749       0.09878306        4       1.00000000       0.11702002       0.00166653       0.07412206
Ni       3.79188645       6.53701737       0.05823993        4       1.00000000      -0.05105143      -0.05323028      -0.00986901
Ni       6.32946121       6.54592358       0.04322406        4       1.00000000      -0.01220315      -0.02603406      -0.11290823
Pt       8.86788111       6.50663704       0.18664762        4       0.00000000       0.01051516      -0.04273255      -0.08164959
Ni      11.48265579       6.53611738       0.08977611        4       1.00000000      -0.00784183      -0.02603381       0.05010801
Ni       1.30665519       0.77165490       2.20312905        3       1.00000000      -0.03105910       0.07194003       0.08078732
Ni       3.74437690       0.70794478       2.20360440        3       1.00000000      -0.08551390       0.00776915       0.01643582
Ni       6.36380061       0.74069426       2.20257676        3       1.00000000       0.08293459       0.01473353       0.09038345
Pt       8.88212434       0.78291719       2.21530075        3       0.00000000       0.09226622      -0.00554416       0.17919829
Ni       2.49832010       2.95025052       2.24305420        3       1.00000000      -0.02394608       0.05524369       0.06413116
Ni       5.08461297       2.96660884       2.16350897        3       1.00000000      -0.02631237       0.06911711       0.02122949
Ni       7.59419455       2.96754884       2.18370739        3       1.00000000       0.01724054       0.01438432       0.05541263
Ni      10.21209370       2.97598254       2.21007316        3       1.00000000       0.08454847       0.02413167       0.02848095
Ni       3.77187204       5.06414375       2.16417271        3       1.00000000      -0.06020929      -0.03041091      -0.00132618
Ni       6.36221238       5.06870698       2.09961873        3       1.00000000       0.04071433      -0.01978105      -0.03067412
Ni       8.93053676       5.05613994       2.18650745        3       1.00000000       0.09919991      -0.10781689      -0.00170138
Ni      11.43376991       5.10955808       2.16928578        3       1.00000000       0.01401992      -0.02351167       0.05085220
Pt       5.12376206       7.21240617       2.12374341        3       0.00000000      -0.04423341      -0.06383781       0.05592794
Ni       7.64275650       7.34066006       2.17527518        3       1.00000000      -0.02894303       0.06147236       0.01387572
Ni      10.18670210       7.26431206       2.23854825        3       1.00000000       0.00257307      -0.08006578       0.05638031
Ni      12.64571636       7.24217801       2.13444113        3       1.00000000       0.01722265      -0.09732548       0.06652089
Ni       0.05932549       1.49219056       4.27872919        2       1.00000000       0.06531787       0.01309873      -0.02666298
Ni       2.48037494       1.48112520       4.24234794        2       1.00000000      -0.00465666       0.05067578      -0.04198951
Pt       5.04266336       1.42531095       4.18197931        2       0.00000000      -0.05089736       0.01819227      -0.10669663
Ni       7.60849756       1.46181763       4.28392961        2       1.00000000      -0.07398568      -0.06171513      -0.01396214
Ni       1.27469784       3.64972327       4.29224738        2       1.00000000       0.02074293       0.00429077      -0.06073418
Ni       3.74131541       3.70878333       4.23789404        2       1.00000000      -0.03705599       0.02121767      -0.13483690
Pt       6.33633930       3.65081185       4.29077346        2       0.00000000      -0.00731393      -0.00993031      -0.03676208
Ni       8.95593692       3.67488492       4.21983158        2       1.00000000       0.05042196       0.04510823      -0.15688305
Ni       2.50850591       5.77095337       4.28318676        2       1.00000000      -0.03916886      -0.05616752      -0.15651353
Ni       5.03768968       5.79809280       4.31572396        2       1.00000000      -0.03701713      -0.07044774      -0.09450651
Pt       7.62110872       5.86848929       4.19042801        2       0.00000000      -0.03411905      -0.00512202      -0.11523773
Ni      10.22673038       5.80554460       4.23460661        2       1.00000000       0.02660072      -0.07032317      -0.08653353
Pt       3.78292316       7.94535924       4.27724011        2       0.00000000      -0.03666050      -0.00993553       0.04093741
Ni       6.36921377       8.05620340       4.23315708        2       1.00000000      -0.01969811       0.08590777      -0.07405223
Ni       8.88669477       8.01788576       4.20149987        2       1.00000000      -0.01773787      -0.01016865      -0.05331876
Ni      11.41016347       7.94817375       4.20804955        2       1.00000000      -0.02161632      -0.06839804      -0.05355885
Pt       0.01099617      -0.05681079       6.47737700        1       0.00000000      -0.04871511       0.00498127       0.13944710
Pt       2.51775988      -0.01031468       6.41280913        1       0.00000000       0.09642610       0.01213763       0.05866510
Pt       5.08832467      -0.02529125       6.35429259        1       0.00000000      -0.05880464      -0.03165635       0.07708322
Pt       7.59677507      -0.05083892       6.48120194        1       0.00000000       0.04032040       0.01470381       0.24563638
Ni       1.26188823       2.24396883       6.38575159        1       1.00000000       0.02545034       0.03331543      -0.07013475
Pt       3.77954921       2.32538456       6.34251507        1       0.00000000      -0.02361356       0.07838093       0.04656271
Ni       6.34117884       2.23331819       6.42394250        1       1.00000000      -0.01807248       0.02289812       0.02620783
Pt       8.89376580       2.29165819       6.27800134        1       0.00000000       0.00497143       0.04440124      -0.02638356
Ni       2.50610705       4.42635987       6.38080445        1       1.00000000       0.00041791       0.04924884      -0.08471069
Ni       5.07944451       4.43431416       6.41486761        1       1.00000000      -0.02029586       0.07455854       0.00507625
Ni       7.55869842       4.37924795       6.42293421        1       1.00000000      -0.09597201       0.01619768       0.00735830
Ni      10.23875883       4.37167239       6.37027995        1       1.00000000       0.15326348      -0.01125853      -0.09158159
Ni       3.80532718       6.46064307       6.40093674        1       1.00000000      -0.01697320      -0.07824878      -0.04377221
Ni       6.31340330       6.49790293       6.38485495        1       1.00000000       0.01049616       0.00855584      -0.19001114
Pt       8.92377133       6.44069567       6.34807167        1       0.00000000       0.07984976      -0.04038555       0.08479817
Ni      11.47432021       6.48851860       6.36436612        1       1.00000000       0.03315113       0.00467897      -0.11133867
