64
Lattice="10.491758739307441 0.019163083118286958 -0.012655747405431612 5.262475086448991 9.062067134930155 -0.009642275105393828 -0.010333374485619851 -0.0031248476098771198 8.992550885613468" Properties=species:S:1:pos:R:3:tags:I:1:initial_magmoms:R:1:forces:R:3 unique_id=7f1d97869b134363a2bc2775552f9fd8 stress="-0.000629241819740986 -1.6548227826146313e-06 -1.156345975913707e-06 -1.6548227826146313e-06 -0.0006062024918105507 1.2423919948995543e-05 -1.156345975913707e-06 1.2423919948995543e-05 -0.00048216755801909483" energy=-407.4481059347196 pbc="T T T"
Ni       0.02546909       0.05878766       0.06344587        4       1.00000000       0.14360360       0.10480839       0.04384745
Ni       2.59418655       0.06922750       0.17120583        4       1.00000000      -0.04661172       0.16112684       0.32014077
Pt       5.21786683       0.12028592       0.00996991        4       0.00000000      -0.05398085       0.14821686      -0.07986258
Ni       7.88101149       0.05460577       0.11919248        4       1.00000000      -0.03245105       0.02381711       0.20316086
Ni       1.33449955       2.22768751       0.09667163        4       1.00000000       0.07114058      -0.13764872       0.16922695
Ni       3.88400528       2.27529062       0.16912262        4       1.00000000      -0.18680004       0.05927775       0.30526967
Ni       6.59671597       2.27694731       0.04713252        4       1.00000000       0.10881369       0.02582242       0.09353649
Ni       9.18797871       2.25703953       0.04107204        4       1.00000000      -0.04405016      -0.08572454      -0.00856025
Ni       2.63973546       4.46864658       0.07120366        4       1.00000000       0.04831505      -0.20158007       0.08862817
Pt       5.25158179       4.47187512       0.12242295        4       0.00000000      -0.00676816      -0.18902783       0.32223726
Ni       7.86916425       4.50398751       0.12245991        4       1.00000000      -0.02914966      -0.03660871       0.25057916
Pt      10.50531849       4.40227734      -0.00440817        4       0.00000000      -0.00175464      -0.20113600      -0.14610146
Pt       3.94323843       6.81004414       0.10371287        4       0.00000000      -0.09802845       0.04322427       0.37386060
Pt       6.57438189       6.83038973       0.00151617        4       0.00000000       0.06990296       0.11264954      -0.08547803
Pt       9.18121344       6.80304685      -0.02761941        4       0.00000000      -0.05296351      -0.01109391      -0.08878103
Pt      11.82334127       6.80321201      -0.02677982        4       0.00000000       0.01325344      -0.02349979      -0.11436585
Ni       1.33616056       0.82577674       2.20334429        3       1.00000000       0.03507207       0.12682788      -0.01603605
Ni       3.88248936       0.81035634       2.22250350        3       1.00000000      -0.00298011       0.04538165      -0.02901669
Pt       6.55270628       0.80493523       2.26478283        3       0.00000000      -0.07042821      -0.05379245       0.02642147
Pt       9.26301640       0.83482793       2.15915364        3       0.00000000       0.05785375       0.05859192      -0.03025014
Ni       2.61463350       2.97681833       2.21603679        3       1.00000000      -0.08479771      -0.08766500      -0.06458506
Pt       5.16229627       3.04422358       2.31299470        3       0.00000000      -0.05620262       0.15958049      -0.02089919
Pt       7.85923700       3.05112950       2.26236786        3       0.00000000       0.03665924       0.12451364       0.04604511
Ni      10.53616860       3.00008079       2.23484650        3       1.00000000       0.09013911      -0.02091097       0.04071447
Ni       3.93966730       5.24948831       2.25716812        3       1.00000000      -0.02905719      -0.04561750      -0.08749612
Ni       6.55488744       5.27754076       2.24991687        3       1.00000000       0.01040358       0.00789425      -0.09509667
Pt       9.18460314       5.25225565       2.25480966        3       0.00000000       0.07561801      -0.10266224      -0.13077952
Pt      11.87374769       5.18097641       2.20842328        3       0.00000000       0.03053568      -0.09863727      -0.16785623
Pt       5.28205409       7.55158702       2.26314360        3       0.00000000       0.03969292       0.01891887      -0.18196586
Pt       7.87632287       7.63041988       2.24790276        3       0.00000000      -0.00578939       0.00475639      -0.07415390
Pt      10.49625762       7.58001494       2.28508648        3       0.00000000       0.04985626       0.06723979      -0.08721226
Pt      13.11958281       7.56402386       2.26935426        3       0.00000000       0.02053895      -0.06418682      -0.15122294
Pt      -0.06653003       1.57035515       4.53164801        2       0.00000000       0.00355506       0.01009415       0.02238486
Pt       2.64340685       1.55092731       4.38217956        2       0.00000000       0.02890213       0.01527580      -0.04371072
Pt       5.32878324       1.56268411       4.52521140        2       0.00000000      -0.01269277       0.02817271       0.22735331
Ni       7.85562053       1.57543766       4.49519056        2       1.00000000       0.03355946       0.14836233       0.01883715
Pt       1.30374360       3.75501886       4.52738065        2       0.00000000       0.03404001      -0.05388412      -0.00581037
Ni       3.93463085       3.77186696       4.45486312        2       1.00000000      -0.06000744      -0.05309836       0.06525872
Ni       6.59840696       3.74430863       4.45955853        2       1.00000000       0.14103706       0.00973053       0.00787500
Ni       9.15519350       3.75732610       4.47924488        2       1.00000000      -0.06137644      -0.01006258      -0.05220927
Pt       2.63055264       5.99825534       4.48979607        2       0.00000000       0.05470284      -0.01022238       0.03809886
Pt       5.25589248       5.94978595       4.39206103        2       0.00000000      -0.02557241      -0.17374031       0.04966766
Pt       7.86712420       5.97720326       4.47365572        2       0.00000000      -0.05397342      -0.07395829       0.00486448
Pt      10.49834247       6.03523795       4.55702528        2       0.00000000       0.00948101      -0.00019116      -0.09654706
Pt       3.88207511       8.37526858       4.47543699        2       0.00000000      -0.12872208       0.07492128       0.13245860
Pt       6.54261878       8.32804380       4.50223814        2       0.00000000      -0.03190901       0.06293616       0.11312355
Pt       9.23701543       8.34243117       4.51401330        2       0.00000000      -0.02573900       0.03808836       0.05227771
Ni      11.81807981       8.33724915       4.50513198        2       1.00000000       0.01004472       0.04782017       0.04484421
Ni      -0.01362624       0.03014412       6.70323788        1       1.00000000      -0.08767211       0.09671170      -0.01640663
Pt       2.57895383      -0.01857867       6.76385194        1       0.00000000      -0.11471867      -0.05116798       0.24975545
Ni       5.26026110      -0.00873980       6.59659156        1       1.00000000       0.02010760      -0.05044451      -0.14408213
Pt       7.81033634       0.09684773       6.69179120        1       0.00000000       0.00111672       0.07386628       0.12381400
Ni       1.27236134       2.27833540       6.70341624        1       1.00000000      -0.08060988       0.01063663       0.04808395
Pt       3.90140301       2.26686511       6.73172501        1       0.00000000      -0.13162080      -0.02320426       0.20119330
Ni       6.57967571       2.27326222       6.66580358        1       1.00000000       0.03504058       0.09325892      -0.02279116
Ni       9.18608963       2.27804207       6.66600498        1       1.00000000       0.06217002      -0.02461029      -0.05847167
Ni       2.58921898       4.51980021       6.67861732        1       1.00000000      -0.02555758       0.01221844      -0.03305092
Pt       5.26856611       4.49608597       6.60525634        1       0.00000000       0.05240652       0.00703679      -0.35755257
Pt       7.94132220       4.47539467       6.69007617        1       0.00000000       0.14916055      -0.02432531       0.09860005
Ni      10.50517654       4.52264885       6.59361486        1       1.00000000       0.04668690      -0.07055706      -0.19528344
Pt       3.93978415       6.81182209       6.64301998        1       0.00000000       0.04069497       0.06193268      -0.36452004
Ni       6.57077190       6.79217090       6.59299953        1       1.00000000       0.00789078      -0.14368559      -0.29831817
Ni       9.19841702       6.79676209       6.59090043        1       1.00000000      -0.02175190      -0.03276101      -0.20264538
Ni      11.78630369       6.81272815       6.57380123        1       1.00000000       0.03174115       0.07199403      -0.23103993
