64
Lattice="10.436151159482666 -0.03203424317422003 0.008937640385816 5.190333111361451 9.049698781846937 -0.0190380497825797 0.007297552816580351 -0.02216248955218354 8.961545507382851" Properties=species:S:1:pos:R:3:tags:I:1:initial_magmoms:R:1:forces:R:3 unique_id=28181998ef174e448551cdd420c246a4 stress="0.013183380517333108 -2.7051877278180475e-05 -2.7515175645247174e-05 -2.7051877278180475e-05 0.013113930776111393 -2.8182671346214537e-05 -2.7515175645247174e-05 -2.8182671346214537e-05 0.011005238820983643" energy=-405.35687210438317 pbc="T T T"
Ni       0.01461736      -0.00631046       0.17074017        4       1.00000000       0.03016426      -0.02899416       0.15404965
Pt       2.52807469       0.01220634       0.22693973        4       0.00000000      -0.02596021       0.03314514       0.09558274
Pt       5.17460518      -0.02770408       0.13238951        4       0.00000000      -0.01219437       0.06325611      -0.10340445
Pt       7.89782496      -0.09599176       0.17724758        4       0.00000000       0.00980863      -0.06013222       0.03122592
Ni       1.29827575       2.30482635       0.10778924        4       1.00000000       0.03247546       0.10514634       0.22663940
Pt       3.83650812       2.35340815       0.11641233        4       0.00000000       0.02307564       0.01573169      -0.06715608
Pt       6.50240963       2.32165234       0.17331703        4       0.00000000       0.01710351       0.11919165       0.01614443
Pt       9.23025588       2.27060230       0.16390750        4       0.00000000       0.02437375       0.03210235       0.00278869
Ni       2.60022371       4.51165985       0.07627463        4       1.00000000       0.05817591      -0.01473117       0.08582376
Ni       5.15782105       4.54552608       0.18643591        4       1.00000000      -0.05630235       0.04290976       0.23757311
Pt       7.86389956       4.56858385       0.11915420        4       0.00000000       0.06954613       0.03556111      -0.05595017
Ni      10.45692284       4.47849189       0.08421377        4       1.00000000       0.07430052      -0.06106983       0.15733232
Ni       3.89833925       6.72997589       0.18500567        4       1.00000000      -0.03937048      -0.14772520       0.27472536
Pt       6.42608555       6.76396429       0.18532815        4       0.00000000      -0.05119076      -0.00308897      -0.06647347
Ni       9.09613895       6.74375301       0.16008496        4       1.00000000      -0.10407924       0.01709078       0.18199555
Pt      11.74612897       6.65335560       0.01810932        4       0.00000000       0.02570492      -0.04980911      -0.19857667
Ni       1.32139268       0.75690944       2.29102996        3       1.00000000       0.04309975       0.02831190       0.16013358
Ni       3.87667135       0.79017485       2.28144517        3       1.00000000       0.01186134       0.07879847      -0.00017294
Pt       6.47396158       0.79521755       2.31963069        3       0.00000000      -0.02106383       0.06025941       0.08530860
Pt       9.26060556       0.72196395       2.29264608        3       0.00000000       0.04647700      -0.01860756       0.11274967
Ni       2.61228623       2.99998024       2.25551845        3       1.00000000       0.02839945       0.00692422       0.05173751
Ni       5.15205786       3.06616568       2.28647487        3       1.00000000      -0.14547879       0.09109296       0.05532733
Ni       7.84958921       3.06572717       2.27730840        3       1.00000000       0.07123199       0.07897931       0.00846966
Ni      10.45784459       2.99155698       2.29239848        3       1.00000000       0.07040076      -0.00448097       0.14334175
Ni       3.94122124       5.26296036       2.25765190        3       1.00000000       0.05949520      -0.03070264       0.13738404
Ni       6.48708844       5.27670278       2.27844742        3       1.00000000      -0.04297221       0.04672799      -0.00790898
Ni       9.07752397       5.21387182       2.27858046        3       1.00000000      -0.04246293      -0.08851672       0.10860362
Pt      11.78960949       5.16014909       2.23648206        3       0.00000000       0.07252895      -0.01674476      -0.01059157
Ni       5.21877407       7.48424202       2.26475451        3       1.00000000       0.02259525      -0.10396079       0.09246678
Ni       7.73789495       7.49483856       2.27596382        3       1.00000000      -0.13566916      -0.10440647       0.06362961
Pt      10.34826276       7.44715108       2.21649920        3       0.00000000       0.02919792      -0.08406428      -0.00648432
Ni      13.07355261       7.44329126       2.25077137        3       1.00000000       0.05705690      -0.15600423       0.05265065
Ni       0.04138509       1.50581824       4.43072182        2       1.00000000       0.08934213      -0.04208888      -0.04093709
Pt       2.61060468       1.52695672       4.37463465        2       0.00000000       0.03669551      -0.00531373      -0.01783757
Ni       5.17900900       1.53475689       4.43346346        2       1.00000000      -0.01820416       0.10253149      -0.09111365
Pt       7.87990290       1.54837707       4.41189227        2       0.00000000       0.07043066      -0.00210513      -0.07242216
Pt       1.30461048       3.74206867       4.48916441        2       0.00000000      -0.00872388      -0.01020163      -0.01749244
Ni       3.90853879       3.78270780       4.41192840        2       1.00000000      -0.01248554       0.06398023      -0.16000746
Pt       6.48838905       3.83305682       4.33815815        2       0.00000000      -0.04740474      -0.00408292      -0.03282775
Ni       9.11161148       3.76533067       4.40580388        2       1.00000000      -0.05150122       0.03139393      -0.20455996
Ni       2.63837733       5.97067881       4.42147053        2       1.00000000       0.09165710      -0.12127480      -0.13358276
Ni       5.19617669       5.99530883       4.36793220        2       1.00000000      -0.01427580      -0.06984899      -0.14689364
Ni       7.78240079       5.99779366       4.38103645        2       1.00000000      -0.08210167       0.02135719      -0.19252796
Pt      10.37755569       5.91933543       4.44466311        2       0.00000000      -0.09032718      -0.01036105      -0.08122081
Pt       3.98561091       8.19656814       4.35748952        2       0.00000000       0.02434537      -0.07032202       0.03886141
Ni       6.49514477       8.25496801       4.37075513        2       1.00000000      -0.01396537      -0.04158237      -0.13271100
Pt       9.01988299       8.25153115       4.35187955        2       0.00000000       0.00082628      -0.07757674      -0.06169318
Pt      11.74890217       8.20257254       4.39990977        2       0.00000000       0.05245278      -0.07372779      -0.15394389
Pt       0.02585652       0.03746597       6.65765371        1       0.00000000      -0.01378036       0.04844704       0.04577674
Pt       2.60602788       0.05254008       6.62365169        1       0.00000000      -0.02244997       0.00281710       0.05772661
Pt       5.20260160      -0.02179937       6.56570217        1       0.00000000      -0.01448477       0.02292225      -0.08769148
Pt       7.83624116      -0.04920755       6.61709582        1       0.00000000       0.01277431       0.06259550       0.04284684
Ni       1.33920484       2.31038306       6.64048672        1       1.00000000       0.07899958       0.04956367      -0.02434365
Ni       3.86429970       2.28046940       6.56311289        1       1.00000000      -0.06755092       0.05543678      -0.17747610
Pt       6.50225253       2.28020927       6.58095042        1       0.00000000      -0.00523450       0.04797534       0.00081018
Pt       9.22231981       2.35751106       6.57440275        1       0.00000000       0.11914953       0.15886335      -0.01640581
Ni       2.55133091       4.48123838       6.63353957        1       1.00000000      -0.04973328      -0.01943035      -0.08639858
Pt       5.12727793       4.46488622       6.64696251        1       0.00000000      -0.13583188       0.00005828       0.08543093
Ni       7.83028568       4.49739818       6.55966317        1       1.00000000      -0.05993555       0.05013799      -0.20224050
Ni      10.48533615       4.49602992       6.65185005        1       1.00000000       0.14320656       0.08364236      -0.02465761
Pt       3.81623883       6.70374036       6.64978926        1       0.00000000      -0.09120564      -0.01547875       0.15094782
Pt       6.51090486       6.72720779       6.52412467        1       0.00000000      -0.08060465      -0.00461911      -0.12818293
Pt       9.15357080       6.66046088       6.69093096        1       0.00000000      -0.03331452      -0.03177086       0.12656276
Ni      11.72377617       6.68557870       6.54875797        1       1.00000000      -0.00709309      -0.08412742      -0.28076039
