64
Lattice="10.238607930832838 0.03263674897592956 -0.014236936604785554 5.14756821912651 8.88808739810026 -0.058790013462851384 0.0 0.0 21.597674092435383" Properties=species:S:1:pos:R:3:tags:I:1:initial_magmoms:R:1:forces:R:3 unique_id=59c29d02420f4f0a912866d45a5620bc energy=-371.7138799906843 stress="0.004199570225007776 2.1273063273376797e-05 4.802746615922833e-05 2.1273063273376797e-05 0.003998693409994682 -0.0005842876530471782 4.802746615922833e-05 -0.0005842876530471782 -0.0028680819746841717" pbc="T T T"
Ni       0.02763838       0.00686038       0.18529796        2       1.00000000       0.18294519      -0.00742579      -0.49156596
Ni       2.57974263       0.02928465       0.22410121        2       1.00000000       0.04124868      -0.02293191      -0.28902114
Ni       5.09653388      -0.00777244       0.08442002        1       1.00000000      -0.05351216       0.06081809       0.21869815
Ni       7.68018957      -0.01161146       0.05239278        1       1.00000000      -0.06983335       0.05539520      -0.02172142
Ni       1.31129536       2.21005188       0.09247845        1       1.00000000       0.10166396      -0.05751732       0.26124479
Ni       3.81449649       2.22309682       0.20920575        2       1.00000000       0.07514595      -0.00823141      -0.23268096
Pt       6.40232783       2.27962343       0.15263714        2       0.00000000      -0.05841520       0.10392687      -1.04580510
Ni       8.99062115       2.25279396       0.04642745        0       1.00000000      -0.06745461       0.01201779       0.07990872
Ni       2.59509496       4.41747710       0.06190196        1       1.00000000       0.01259155      -0.07895913       0.19064839
Ni       5.08378700       4.45014658       0.07014132        1       1.00000000      -0.07127330      -0.03147337       0.11896918
Ni       7.74467383       4.44902660       0.06252250        1       1.00000000       0.12870661      -0.00145838       0.15752691
Ni      10.24611401       4.46016203       0.02929718        0       1.00000000      -0.02450010       0.07226678       0.08854907
Ni       3.85358878       6.63183564       0.03365070        0       1.00000000       0.06520056      -0.08635215       0.12606721
Pt       6.42167269       6.69103379       0.00737441        0       0.00000000       0.06612033       0.15067105      -0.22057348
Ni       8.98559138       6.65961688       0.11332309        1       1.00000000      -0.07061471      -0.09157469      -0.18278428
Ni      11.53859502       6.67714434       0.00000000        0       1.00000000      -0.08729802      -0.07084976       0.10748886
Ni       1.32640595       0.71850547       2.17671269        4       1.00000000       0.03008914      -0.00276078      -0.00785643
Ni       3.79432636       0.75959371       2.18649307        4       1.00000000      -0.02210168      -0.01013512       0.10764509
Pt       6.31822052       0.76596100       2.25805580        5       0.00000000      -0.11856339       0.02001596       0.11278065
Pt       9.00502338       0.74608654       2.15282798        4       0.00000000      -0.05024858      -0.01444429       0.00361082
Ni       2.59924025       2.92806967       2.15487957        4       1.00000000      -0.03179471      -0.01301740      -0.02759488
Ni       5.06454431       2.98337335       2.20215911        4       1.00000000      -0.03761432       0.04020054       0.12144171
Ni       7.70753802       3.00744426       2.19873101        4       1.00000000       0.02872252       0.04631183       0.14082818
Pt      10.24418529       2.97903927       2.15347963        4       0.00000000       0.03466091      -0.07490730       0.04966746
Ni       3.87685562       5.14253690       2.15633810        4       1.00000000       0.03846155      -0.05988827      -0.09743627
Pt       6.41611725       5.19204778       2.18296508        4       0.00000000       0.01626093      -0.04520348      -0.00686949
Ni       8.94784059       5.18482425       2.18538674        4       1.00000000      -0.02762218      -0.03490062       0.06127035
Pt      11.55700589       5.16848962       2.13670129        3       0.00000000      -0.01075546      -0.07526173      -0.01101849
Ni       5.16591278       7.38364516       2.15819428        4       1.00000000       0.03027077      -0.06780522       0.01134302
Ni       7.68614187       7.42802995       2.16257646        4       1.00000000      -0.06455666      -0.01954813       0.07932830
Pt      10.15800545       7.40639914       2.18713642        4       0.00000000      -0.09887236      -0.04237441       0.07573583
Pt      12.85775357       7.37288133       2.10709413        3       0.00000000       0.03774612      -0.02736496      -0.02624628
Ni       0.00588997       1.47218311       4.40400631        7       1.00000000       0.08009627      -0.07011281      -0.08161221
Pt       2.57401963       1.43935516       4.28213506        6       0.00000000       0.00995600      -0.06461959      -0.02794008
Ni       5.10673249       1.42703688       4.37813268        7       1.00000000      -0.06480932      -0.00307987      -0.00353718
Pt       7.73397191       1.48215394       4.37404032        7       0.00000000       0.08138948       0.02645481       0.13777730
Pt       1.22113806       3.72330535       4.45100269        8       0.00000000      -0.03405245       0.03162507       0.07608852
Pt       3.84832290       3.76015384       4.31580253        6       0.00000000       0.01393152       0.05510706      -0.03060005
Pt       6.45083684       3.76251106       4.35606947        7       0.00000000      -0.01581654       0.11244400      -0.05269239
Ni       8.96845176       3.74705795       4.38046224        7       1.00000000       0.01735000       0.13578009      -0.03195539
Ni       2.53408222       5.91230155       4.40089117        7       1.00000000      -0.19193576       0.02159408      -0.02631583
Ni       5.12175855       5.90615531       4.36990174        7       1.00000000       0.01475425      -0.04616007      -0.12071262
Ni       7.75219671       5.90723772       4.33414713        6       1.00000000       0.23137673       0.03706983      -0.17493234
Ni      10.24358767       5.94830826       4.33740974        6       1.00000000      -0.04302573       0.06579067      -0.09888824
Pt       3.82160162       8.02618712       4.37094723        7       0.00000000      -0.04957985      -0.06285964      -0.00418118
Pt       6.44846853       8.04945250       4.25436606        6       0.00000000       0.10441886       0.00239335      -0.07820189
Ni       9.02264229       8.11100985       4.32925392        6       1.00000000      -0.03229130       0.01835811      -0.03303390
Ni      11.49117475       8.11155595       4.37935417        7       1.00000000      -0.08974564       0.00213278       0.01942397
Pt      -0.07341060      -0.00117978       6.59767409       11       0.00000000      -0.00546174      -0.00271564       0.24009072
Pt       2.56672978      -0.03942268       6.59574003       11       0.00000000       0.02815059      -0.09140599       0.23210474
Ni       5.15406679      -0.04984479       6.49756819       10       1.00000000      -0.02638559       0.06885238      -0.10693581
Ni       7.62515019      -0.05812025       6.52716848       10       1.00000000      -0.03244661      -0.03723876      -0.00143313
Ni       1.23436549       2.23181679       6.52779571       10       1.00000000       0.01119378      -0.07533287      -0.01200665
Pt       3.80972352       2.27580157       6.58374417       11       0.00000000       0.13729703       0.07876514       0.22075864
Pt       6.42809980       2.21007455       6.48794642       10       0.00000000      -0.16767894       0.00477257       1.15990566
Ni       8.98837628       2.27371367       6.50173293       10       1.00000000       0.02484495       0.12544997      -0.06503668
Ni       2.54243732       4.48412000       6.52006799       10       1.00000000       0.00911807       0.11312232      -0.10614965
Ni       5.11901408       4.50162009       6.50941435       10       1.00000000      -0.01102714      -0.01770222      -0.09593863
Ni       7.70745445       4.44069691       6.49223122       10       1.00000000       0.07249269      -0.02959812      -0.09725079
Ni      10.23903381       4.41982770       6.50512530       10       1.00000000      -0.03838859       0.06523058      -0.01340515
Ni       3.82113760       6.58881761       6.48322361       10       1.00000000       0.02387614      -0.03491023      -0.16319664
Ni       6.38445496       6.58628483       6.37956860        9       1.00000000       0.03265336      -0.01029675       0.20804928
Pt       9.02593990       6.58156566       6.46664828       10       0.00000000      -0.02932924       0.01428889      -0.03952111
Ni      11.56498535       6.66310046       6.44510411        9       1.00000000       0.01427078      -0.05043762      -0.28029979
