64
Lattice="10.446354156016499 0.007902645063455187 0.048441885624111995 5.230020969390291 9.08623380091751 -0.008208844588556015 0.0 0.0 21.739602815532564" Properties=species:S:1:pos:R:3:tags:I:1:initial_magmoms:R:1:forces:R:3 unique_id=e6b7786dd5d04d1da8361656e62f1ecb energy=-385.2064310036863 stress="0.0038721606835846623 7.000303687432938e-05 9.335857521587074e-05 7.000303687432938e-05 0.004073419674625477 -0.0001832431545970362 9.335857521587074e-05 -0.0001832431545970362 -0.0033205216662420493" pbc="T T T"
Pt      -0.06339636       0.02936854       0.00000000        0       0.00000000      -0.13888039      -0.10305264      -0.05216880
Ni       2.64789277      -0.03278895       0.03109573        0       1.00000000       0.11014953      -0.05873352       0.34560062
Ni       5.24497772      -0.04850245       0.11773262        1       1.00000000       0.11494502       0.01386155      -0.07228143
Ni       7.81245966      -0.00341141       0.08749304        1       1.00000000      -0.11602794      -0.09511184       0.44749369
Pt       1.26775907       2.27282650       0.05800653        1       0.00000000       0.02124020       0.06849041      -1.03165927
Pt       3.95200869       2.20031550       0.06983608        1       0.00000000       0.23001286       0.15342521      -0.79790528
Pt       6.61822719       2.18913103       0.10917649        1       0.00000000      -0.18002069      -0.11660563      -0.13745287
Ni       9.13100846       2.29362229       0.05474277        1       1.00000000       0.04582849       0.02170508       0.30523962
Pt       2.55991331       4.57955856       0.04819553        0       0.00000000       0.07954893      -0.02792933      -1.00227799
Pt       5.31315811       4.52557535       0.10973732        1       0.00000000       0.18952816      -0.18036689      -0.47382383
Ni       7.90584200       4.54688059       0.12221340        1       1.00000000       0.10596235       0.02335460       0.32538823
Ni      10.38659986       4.58320962       0.04944630        0       1.00000000      -0.09828036       0.08788692       0.36976190
Pt       3.86333256       6.87980090       0.11505628        1       0.00000000      -0.02279349       0.10500687      -0.57541256
Pt       6.64820706       6.82750574       0.16073580        2       0.00000000      -0.02199916      -0.00490996      -0.24411373
Ni       9.17747072       6.80321362       0.05011951        1       1.00000000       0.02387134      -0.08025075       0.49271902
Ni      11.72024557       6.85280616       0.11704121        1       1.00000000       0.06972776       0.03940148      -0.09039246
Pt       1.29184885       0.66094072       2.21100689        3       0.00000000       0.02659755      -0.12037695       0.15777083
Pt       4.00383713       0.72874796       2.25029867        4       0.00000000       0.05447180      -0.07083968       0.21312724
Ni       6.57970868       0.74815569       2.25831713        4       1.00000000       0.09419333      -0.01274136       0.19891748
Ni       9.09159197       0.73631413       2.24267558        3       1.00000000      -0.14505377      -0.01031267       0.02713136
Pt       2.66458556       3.03761189       2.27551252        4       0.00000000      -0.02022208       0.03565387       0.43340725
Ni       5.27166219       3.01422995       2.30321639        4       1.00000000       0.02506714      -0.00021913       0.49018046
Pt       7.78464896       3.04597020       2.32577715        4       0.00000000      -0.06239648       0.05487844       0.14410330
Pt      10.35759251       3.04764167       2.23608967        3       0.00000000      -0.17698934       0.00125823       0.10886199
Pt       4.00143605       5.31650658       2.26117759        4       0.00000000       0.13319298       0.06147187       0.27821215
Ni       6.61242495       5.30326874       2.25581873        4       1.00000000       0.15942324       0.01534859       0.30146133
Ni       9.09615826       5.32368871       2.24489542        3       1.00000000      -0.15928988       0.07098050       0.13743853
Pt      11.69240023       5.34795811       2.24173912        3       0.00000000      -0.09798217      -0.01381725       0.19683393
Ni       5.23844516       7.56295275       2.21843751        3       1.00000000      -0.00316784      -0.02566210       0.29812600
Ni       7.86860989       7.51018660       2.24602420        3       1.00000000       0.09372038      -0.10368106       0.26635179
Pt      10.43725731       7.55648469       2.16241219        3       0.00000000      -0.13474652       0.01525838       0.14782172
Ni      13.06886778       7.64249023       2.24380560        3       1.00000000      -0.04579170       0.15574160       0.13127938
Pt      -0.10787644       1.54278413       4.44083001        5       0.00000000      -0.26000867       0.06524680      -0.26000012
Pt       2.67265570       1.49954091       4.43887769        5       0.00000000      -0.01553530      -0.06663992      -0.25420541
Ni       5.28962017       1.55086583       4.41621905        5       1.00000000       0.05420609       0.14277471      -0.39093995
Ni       7.82911438       1.54049855       4.43799301        5       1.00000000      -0.08643197       0.07221579      -0.23996836
Pt       1.22793438       3.81676079       4.44031649        5       0.00000000      -0.20752315       0.10437887      -0.19583150
Ni       3.99655815       3.74596071       4.42390360        5       1.00000000       0.13643561      -0.03786095      -0.41406340
Ni       6.57696161       3.74400520       4.42818562        5       1.00000000       0.00511044      -0.02985812      -0.25633721
Ni       9.11013391       3.81551275       4.46715381        6       1.00000000      -0.18361017       0.04790437      -0.17949450
Pt       2.60710031       6.05901620       4.39391018        5       0.00000000      -0.05377953       0.04457335      -0.28928377
Pt       5.35030234       5.97906094       4.37573297        5       0.00000000       0.12339651      -0.09359733      -0.26776547
Ni       7.90828627       5.98562509       4.41866263        5       1.00000000       0.12064451      -0.18246360      -0.28347575
Ni      10.40381991       6.02486534       4.49495766        6       1.00000000      -0.11429960      -0.03099911      -0.06232915
Pt       3.92056354       8.35485243       4.35248797        5       0.00000000      -0.00689951       0.01423103      -0.28751073
Pt       6.56572221       8.29136521       4.41975588        5       0.00000000      -0.07144081       0.10778807      -0.19784100
Pt       9.16897247       8.22379170       4.47904983        6       0.00000000      -0.00314454      -0.10806041      -0.04666647
Pt      11.76846298       8.40451648       4.41352456        5       0.00000000      -0.07750650       0.15628745      -0.16415636
Ni       0.00361473       0.00408538       6.58986572        7       1.00000000      -0.06657086      -0.01263380      -0.00280200
Ni       2.63302418      -0.02832362       6.67560805        8       1.00000000      -0.05714837       0.08815188      -0.17650721
Pt       5.21757596      -0.04698955       6.73960282        8       0.00000000       0.05708692       0.17899379       0.00912877
Ni       7.88709557       0.00924118       6.69227939        8       1.00000000       0.03329379       0.01715977      -0.40238261
Pt       1.24057896       2.20289530       6.61168599        7       0.00000000       0.03410158      -0.02731375       0.90262369
Pt       3.95077214       2.22184138       6.57938264        7       0.00000000       0.12669692       0.09711943       0.83415397
Pt       6.64728245       2.20770829       6.55670298        7       0.00000000      -0.02649573      -0.01722088       0.24555875
Ni       9.16647184       2.23873229       6.69598658        8       1.00000000      -0.01348769      -0.04281012      -0.31731655
Pt       2.60837670       4.51354274       6.58054849        7       0.00000000       0.23048453      -0.15694981       0.89875931
Pt       5.29714697       4.51534805       6.57931593        7       0.00000000       0.11073518      -0.01681882       0.55700535
Pt       7.98427731       4.53018756       6.64439150        7       0.00000000      -0.15416893      -0.02055021      -0.35549121
Ni      10.45151338       4.53368899       6.68399081        8       1.00000000       0.06218140      -0.04522733      -0.25853343
Pt       3.94984060       6.88636347       6.61515368        7       0.00000000       0.13718584      -0.01715777       0.52402297
Pt       6.64835190       6.85458780       6.63704894        7       0.00000000      -0.00792299      -0.11607665       0.32989257
Ni       9.17679233       6.78360547       6.67433256        8       1.00000000       0.07231811      -0.00311495      -0.25627733
Pt      11.70452131       6.78261037       6.72414839        8       0.00000000      -0.05174237      -0.01058461      -0.08170551
