64
Lattice="10.704436784585377 0.0028529405732224335 0.021245960486324714 5.354689111304593 9.282682399428753 0.019348791671421624 0.017347254095609627 0.008226773909702945 9.31949976285257" Properties=species:S:1:pos:R:3:tags:I:1:initial_magmoms:R:1:forces:R:3 unique_id=1209031b5b8d4ac6ad25a5e23a360c3f stress="-2.8431801693741543e-05 2.041104571687365e-06 1.8940756938566536e-06 2.041104571687365e-06 -3.205689812211393e-05 -4.4695444973791956e-06 1.8940756938566536e-06 -4.4695444973791956e-06 2.6231833317388875e-06" energy=-426.2261443390495 pbc="T T T"
Pt      -0.03724467       0.00222433       0.09211926        4       0.00000000      -0.07268900       0.02052239       0.11273904
Pt       2.68183835       0.00338294       0.10678017        4       0.00000000       0.01665728       0.02326692       0.10470730
Pt       5.39083488      -0.01776585       0.13219062        4       0.00000000       0.08993245      -0.02072283       0.10257237
Ni       8.02963129       0.00050513       0.10911221        4       1.00000000       0.00377658       0.01081519       0.29629215
Pt       1.32312335       2.35764296       0.09620182        4       0.00000000      -0.02767773       0.07643450       0.05479434
Pt       4.02436032       2.32760234       0.12128824        4       0.00000000       0.02688423       0.01708597       0.11331032
Pt       6.70863771       2.30348998       0.12859182        4       0.00000000       0.06166415      -0.00811708       0.05340756
Pt       9.35991470       2.32553607       0.11392409        4       0.00000000      -0.02793287       0.01484002       0.12056984
Pt       2.64240976       4.65289989       0.03326524        4       0.00000000      -0.06126855       0.04707387      -0.07762398
Pt       5.35525972       4.63400880       0.11612773        4       0.00000000       0.01679422       0.00867531       0.08298744
Pt       8.06768002       4.63680845       0.04534032        4       0.00000000       0.07448534      -0.02391670      -0.03862654
Ni      10.70666183       4.64577964       0.11044667        4       1.00000000       0.01357686       0.00311400       0.24186137
Pt       3.98968926       6.98395345       0.03638818        4       0.00000000      -0.04930504       0.01050898      -0.08126164
Pt       6.69293436       6.95840739       0.11237359        4       0.00000000       0.02069819      -0.03753532       0.13877184
Pt       9.40509813       6.93969520       0.13689931        4       0.00000000       0.06025853      -0.04435721       0.06119352
Pt      12.04027455       6.96651089       0.13540730        4       0.00000000       0.02073936      -0.02691948       0.00098920
Pt       1.34165020       0.78419149       2.36304875        3       0.00000000      -0.02648728       0.02758954       0.03227477
Pt       4.06195955       0.78549730       2.37981038        3       0.00000000       0.06000720       0.06544532       0.09769058
Pt       6.68830529       0.77634501       2.38041168        3       0.00000000       0.03758195      -0.00421834       0.07966952
Pt       9.33598455       0.78458339       2.38341317        3       0.00000000      -0.05161475       0.04500946       0.15344481
Pt       2.70679514       3.11427538       2.39846905        3       0.00000000       0.00395913       0.05256253       0.08557431
Ni       5.36474036       3.09446605       2.36674295        3       1.00000000       0.00981528       0.00919289       0.11058853
Pt       7.98752854       3.09294535       2.44661178        3       0.00000000      -0.11441897      -0.04985677       0.31248191
Pt      10.71134389       3.12554839       2.38338347        3       0.00000000      -0.00480026       0.04331246       0.12190443
Pt       4.01150684       5.40155519       2.39634225        3       0.00000000      -0.05557286       0.06254051       0.04058521
Pt       6.68853940       5.36736094       2.40799116        3       0.00000000      -0.04449895      -0.11175502       0.17125085
Pt       9.39432692       5.42686418       2.37193637        3       0.00000000      -0.01261273      -0.03045383       0.07244364
Pt      12.04353890       5.43200151       2.40761211        3       0.00000000       0.08367849      -0.01633986       0.11249118
Pt       5.34774060       7.72418297       2.38178337        3       0.00000000      -0.02399853      -0.05593277       0.04750996
Pt       8.07240075       7.73002725       2.38445313        3       0.00000000       0.03667591      -0.05915791       0.07836501
Ni      10.71434066       7.73966842       2.36439843        3       1.00000000       0.03105949      -0.01660895       0.05812757
Pt      13.35165400       7.73979300       2.38620744        3       0.00000000      -0.03357387      -0.06027458       0.03966329
Pt      -0.01857306       1.58338311       4.63665953        2       0.00000000      -0.07809692       0.03041902      -0.06522114
Pt       2.67993834       1.59285628       4.63336149        2       0.00000000       0.01348381       0.01892814      -0.02651736
Pt       5.42020686       1.61720049       4.61626388        2       0.00000000       0.11085037       0.26333603      -0.12301881
Ni       8.03351710       1.56293975       4.66498987        2       1.00000000       0.00522974      -0.02026434      -0.02839091
Ni       1.35565428       3.89432682       4.66592993        2       1.00000000      -0.01198946       0.10411793      -0.01209886
Pt       3.99094669       3.91070620       4.65562713        2       0.00000000      -0.11164959       0.05441944      -0.00226792
Ni       6.70372582       3.86162440       4.66894018        2       1.00000000      -0.05400975      -0.00705192      -0.02889900
Pt       9.34188304       3.85830633       4.67638347        2       0.00000000      -0.03523076      -0.01989807       0.01124500
Ni       2.68487813       6.17386143       4.68375367        2       1.00000000      -0.01673679      -0.08354049       0.01384151
Pt       5.31846746       6.17133350       4.67611955        2       0.00000000      -0.11882885       0.03394717      -0.01113206
Pt       8.01954408       6.13066393       4.68454140        2       0.00000000      -0.06767365      -0.10656656       0.00854952
Pt      10.77639209       6.15598196       4.64049994        2       0.00000000       0.09531689      -0.07715104      -0.06477035
Pt       3.98312050       8.49449139       4.67250301        2       0.00000000      -0.09197080      -0.01785428      -0.01908587
Pt       6.69601648       8.50769481       4.64906531        2       0.00000000       0.02521337      -0.02761294      -0.07344684
Pt       9.40496837       8.50441034       4.63040119        2       0.00000000       0.12960104      -0.07156563      -0.09806634
Pt      12.07561568       8.51167818       4.63847419        2       0.00000000      -0.06155364      -0.00123237      -0.07956573
Pt      -0.00947988      -0.02216239       6.88557615        1       0.00000000      -0.01753059      -0.03141872      -0.10992476
Pt       2.68169718       0.00790069       6.89589169        1       0.00000000       0.00354198       0.00467878      -0.14996455
Pt       5.37802383       0.00087856       6.90073741        1       0.00000000       0.03981956      -0.04211705      -0.11774843
Pt       8.05086006      -0.00874085       6.95954167        1       0.00000000      -0.03884111      -0.00181707       0.03059675
Pt       1.35932640       2.37783282       6.87083554        1       0.00000000       0.01091573       0.08882389      -0.15530192
Pt       4.02208435       2.36798597       6.89317432        1       0.00000000       0.02935528       0.03971327      -0.07912494
Pt       6.72808783       2.36939621       6.86291380        1       0.00000000       0.01189777       0.09997801      -0.12105196
Pt       9.35374908       2.35226661       6.89633589        1       0.00000000      -0.00483552       0.00170038      -0.05836397
Ni       2.68902889       4.66180362       6.88340342        1       1.00000000       0.01689074       0.07360908      -0.39969327
Pt       5.34946767       4.66750684       6.87920517        1       0.00000000      -0.07020028       0.02173847      -0.07470887
Ni       8.04266864       4.64630341       6.90532345        1       1.00000000      -0.01086994      -0.00460305      -0.32383166
Pt      10.73216996       4.64634448       6.95695271        1       0.00000000       0.03093440       0.00903886      -0.03322962
Ni       4.01915059       6.95531135       6.89590153        1       1.00000000      -0.03425955      -0.08910492      -0.36501999
Pt       6.68109796       6.93338678       6.90604207        1       0.00000000      -0.04155077      -0.04065882      -0.06708141
Pt       9.37780798       6.92956579       6.91008400        1       0.00000000       0.07090237      -0.07137068      -0.14143704
Pt      12.12861052       6.92399409       6.89515892        1       0.00000000       0.21008165      -0.10244373      -0.13601894
