64
Lattice="10.175305190400266 0.002412724281229895 0.03101072130175327 5.089742075720003 8.764798843438626 -0.04391793678696144 0.025320147914984034 -0.05602482210501414 8.711742627925801" Properties=species:S:1:pos:R:3:tags:I:1:initial_magmoms:R:1:forces:R:3 unique_id=5bde4f290f7745358055262b2b962333 stress="-0.006710629458466892 2.597288619537628e-05 7.539286566236198e-08 2.597288619537628e-05 -0.006668443696662085 -6.880371966712079e-06 7.539286566236198e-08 -6.880371966712079e-06 -0.005765796490331827" energy=-391.7991714601372 pbc="T T T"
Ni       0.04487947      -0.04978246       0.19690646        4       1.00000000       0.08528660      -0.02631841       0.11251948
Ni       2.50179497      -0.03113706       0.20464414        4       1.00000000       0.01795664      -0.02437492       0.04193906
Pt       5.11339447      -0.03459857       0.17871823        4       0.00000000      -0.00539823      -0.01361014      -0.17713495
Ni       7.64923524      -0.05308332       0.20742994        4       1.00000000       0.03421211      -0.11753028       0.09254342
Ni       1.27034308       2.20312629       0.12022948        4       1.00000000      -0.00558706       0.03665345       0.12027745
Pt       3.77261684       2.25160153       0.19560814        4       0.00000000      -0.04288815      -0.01152567      -0.09209054
Ni       6.36927079       2.23390393       0.12915467        4       1.00000000      -0.00145160       0.07492798       0.13435508
Pt       8.91653801       2.24615548       0.15902617        4       0.00000000       0.02862959       0.05596444      -0.18637444
Ni       2.51965438       4.42144370       0.08763114        4       1.00000000      -0.00469438       0.01949758       0.05733710
Ni       5.08318563       4.41353468       0.05225827        4       1.00000000      -0.05848776       0.03949216      -0.05821753
Ni       7.63119135       4.40994424       0.06962498        4       1.00000000       0.03634431       0.02811776      -0.02649351
Ni      10.21543342       4.41605839       0.11704279        4       1.00000000       0.08066581       0.05550335       0.05144825
Ni       3.82219411       6.54835472       0.07802216        4       1.00000000       0.05154997      -0.04928163       0.04934642
Ni       6.35354434       6.58725143       0.05813511        4       1.00000000       0.00555951       0.03582420      -0.06787352
Ni       8.87537737       6.51738789       0.19450630        4       1.00000000      -0.06658631      -0.07045105       0.21124063
Ni      11.48872903       6.51531922       0.08619991        4       1.00000000       0.04927318      -0.05709571      -0.00224337
Ni       1.32429368       0.72203299       2.17286450        3       1.00000000      -0.01179980       0.06781916       0.04652837
Ni       3.75323849       0.71318548       2.21433213        3       1.00000000      -0.06582300      -0.04726423      -0.00940645
Ni       6.38489252       0.74301294       2.20502991        3       1.00000000       0.02571343      -0.01532387      -0.00209786
Pt       8.89899175       0.69476664       2.20882632        3       0.00000000       0.03568804      -0.02994006       0.14890949
Ni       2.51419146       2.93956425       2.24659398        3       1.00000000      -0.01501523       0.02296225       0.08534952
Ni       5.07950534       2.92263671       2.18819300        3       1.00000000      -0.05869308       0.05373694       0.00826622
Ni       7.63059769       2.91981644       2.22480992        3       1.00000000       0.00753882       0.00340978       0.07775091
Ni      10.23493931       2.97141486       2.21227985        3       1.00000000       0.06987896       0.02901868       0.02369101
Ni       3.77413989       5.08971412       2.16630740        3       1.00000000      -0.01861477      -0.04224971      -0.00108497
Pt       6.33785281       5.11614597       2.09888647        3       0.00000000       0.00527736      -0.00054669      -0.00638007
Ni       8.94009400       5.04043310       2.16333726        3       1.00000000       0.01473919      -0.12486547       0.02253722
Ni      11.48419987       5.05853873       2.20073884        3       1.00000000       0.02083338      -0.03449856       0.06621370
Ni       5.10798826       7.27326155       2.12330189        3       1.00000000      -0.02363686      -0.02742192       0.02647711
Ni       7.61525176       7.33409985       2.14972831        3       1.00000000      -0.04814399       0.01713602       0.04329732
Pt      10.19439173       7.22223905       2.24884655        3       0.00000000       0.01587583      -0.08687316       0.09366889
Ni      12.73026094       7.21164013       2.14666481        3       1.00000000       0.03138849      -0.13587625       0.01753656
Pt       0.10086212       1.49355727       4.26837195        2       0.00000000       0.04253160      -0.02744943       0.00787902
Ni       2.56342278       1.45810957       4.26144523        2       1.00000000       0.02791643       0.05000584      -0.08137724
Pt       5.07673016       1.40410203       4.20802321        2       0.00000000       0.01510286       0.00060281      -0.12927323
Ni       7.63455988       1.42387909       4.32119344        2       1.00000000      -0.01128450      -0.08079088      -0.04030487
Ni       1.31942816       3.67822514       4.30162831        2       1.00000000       0.04291715      -0.00334629      -0.05718091
Ni       3.76727516       3.69528285       4.25828283        2       1.00000000      -0.00178520       0.04819318      -0.15275288
Pt       6.36631019       3.62257613       4.35002814        2       0.00000000       0.02459421      -0.00476846      -0.05246938
Ni       8.96753759       3.68228810       4.27291405        2       1.00000000       0.07279401       0.06385798      -0.16321582
Ni       2.53138805       5.75739396       4.29011093        2       1.00000000      -0.01659085      -0.02079526      -0.14891916
Ni       5.06444974       5.78488383       4.32276140        2       1.00000000       0.00725571      -0.06729961      -0.10634571
Pt       7.67303241       5.86460550       4.27598874        2       0.00000000       0.05997515       0.02004636      -0.00461944
Ni      10.25438584       5.77264101       4.32772769        2       1.00000000       0.03872692      -0.04003391       0.02193498
Pt       3.81802312       7.89227733       4.24071540        2       0.00000000       0.03490948      -0.01492720       0.03233746
Ni       6.39078451       8.00783384       4.22262084        2       1.00000000      -0.01491738       0.04431785      -0.12226146
Ni       8.89229904       8.01046354       4.25842094        2       1.00000000      -0.06261609       0.03656201      -0.04045171
Ni      11.47081488       7.93572664       4.27731303        2       1.00000000       0.05939069      -0.08790246      -0.04776816
Pt       0.02326564      -0.09869559       6.52484696        1       0.00000000      -0.09563635       0.00736108       0.14665894
Pt       2.53962148      -0.03754347       6.45470942        1       0.00000000       0.03834395       0.03103138       0.03817905
Pt       5.11859999      -0.04988446       6.37749121        1       0.00000000      -0.10520818      -0.01984204       0.03601961
Pt       7.63487063      -0.08327116       6.52093654        1       0.00000000       0.01247968       0.01866779       0.14349921
Ni       1.29000027       2.22818934       6.43677498        1       1.00000000       0.00779309       0.07454447       0.00287103
Pt       3.80699572       2.30437625       6.37514782        1       0.00000000      -0.04560352       0.09500288       0.01951234
Ni       6.36514168       2.20579687       6.46756538        1       1.00000000      -0.06674890       0.03072896       0.03341226
Pt       8.90079350       2.27863826       6.37520401        1       0.00000000      -0.08732573       0.10050578       0.03786518
Ni       2.53153140       4.40969502       6.39872385        1       1.00000000      -0.01551361       0.06930157      -0.07692961
Ni       5.10269474       4.41574759       6.43843254        1       1.00000000      -0.06676881       0.10283640      -0.06743257
Ni       7.58630697       4.36177875       6.46160607        1       1.00000000      -0.16315968       0.03842663      -0.03493859
Ni      10.27526035       4.34784879       6.42784773        1       1.00000000       0.13113685      -0.00891585      -0.08641992
Ni       3.82591195       6.43881540       6.41911515        1       1.00000000      -0.04683225      -0.05711207      -0.02718534
Ni       6.34027482       6.47478592       6.42787049        1       1.00000000      -0.03668719       0.01214833      -0.13360278
Pt       8.95359290       6.41587311       6.51169278        1       0.00000000       0.01884635      -0.04703609       0.25555871
Ni      11.50940857       6.46369791       6.41498807        1       1.00000000       0.01237309       0.01106225      -0.10411504
