64
Lattice="10.472845519129288 -0.007030351183037417 0.03296662172913607 5.230334296842606 9.086130045197105 -0.016366020494865362 0.02691713392657731 -0.03097064661559912 9.001092854364362" Properties=species:S:1:pos:R:3:tags:I:1:initial_magmoms:R:1:forces:R:3 unique_id=bd902723dcae49d69e8a24be74191194 stress="-0.004889709537066356 -1.2353190639300944e-05 -6.69709609424221e-06 -1.2353190639300944e-05 -0.004913691525006002 1.2438728322693349e-05 -6.69709609424221e-06 1.2438728322693349e-05 -0.0040705792592286225" energy=-408.490107505276 pbc="T T T"
Ni      -0.05172320      -0.02611224       0.16799382        4       1.00000000      -0.23804354      -0.08419143       0.16203438
Ni       2.64115904      -0.03506991       0.08004519        4       1.00000000       0.12203300      -0.07776665       0.06130956
Ni       5.25900922      -0.04574971       0.16289891        4       1.00000000       0.12537374      -0.06098978       0.14789870
Ni       7.88109879      -0.04580482       0.14400394        4       1.00000000       0.05463815      -0.12753689       0.16166437
Pt       1.26127453       2.26366892       0.10412644        4       0.00000000      -0.03668461      -0.02131062      -0.15998216
Pt       3.95335079       2.26950331       0.12610968        4       0.00000000       0.06844963       0.02514998      -0.10359533
Pt       6.58578565       2.18944339       0.16163159        4       0.00000000       0.09647596      -0.14014869      -0.06255954
Ni       9.15187443       2.23220746       0.17600343        4       1.00000000      -0.07852288      -0.13467668       0.19547704
Ni       2.62226613       4.57660917       0.13622954        4       1.00000000       0.05905013       0.04561113       0.09696189
Ni       5.24171829       4.54497240       0.15428332        4       1.00000000       0.19542400      -0.06530071       0.15215969
Pt       7.91392434       4.56178522       0.16585200        4       0.00000000       0.08466502      -0.02198650       0.00046072
Ni      10.47814673       4.57088678       0.07981009        4       1.00000000       0.02701831       0.11073545       0.00793303
Ni       3.90226096       6.85098525       0.16114147        4       1.00000000      -0.04592006       0.16204858       0.14018671
Pt       6.52984306       6.85803469       0.20529036        4       0.00000000      -0.00766170       0.00009506       0.05924561
Ni       9.18186433       6.82177794       0.08697599        4       1.00000000       0.02536357       0.00404756       0.06474768
Ni      11.79730035       6.82842052       0.15530803        4       1.00000000       0.14836699       0.10143830       0.06746365
Pt       1.27491136       0.64239321       2.20012541        3       0.00000000       0.01559856      -0.04910741      -0.04353762
Pt       3.99937369       0.72687258       2.26689179        3       0.00000000       0.04633031       0.01358329       0.03140683
Ni       6.59334720       0.72709608       2.29064768        3       1.00000000       0.08157426      -0.06321387       0.01188593
Ni       9.11378713       0.70531408       2.23946128        3       1.00000000      -0.14474715      -0.01581592      -0.07794304
Pt       2.63531459       3.04710861       2.25633863        3       0.00000000      -0.06721316       0.01439524       0.02490954
Ni       5.27771431       3.02411956       2.28721064        3       1.00000000       0.03172825       0.00326009       0.00508042
Pt       7.79482427       3.00692395       2.38842432        3       0.00000000      -0.07960876       0.00432024       0.01197104
Pt      10.38066181       3.04710940       2.25638623        3       0.00000000      -0.10480266       0.07593716      -0.05032361
Pt       4.00384653       5.35835039       2.16189046        3       0.00000000       0.03278851       0.01365108       0.04207564
Ni       6.58702910       5.29719985       2.27823087        3       1.00000000       0.14134197      -0.00183995       0.04073634
Ni       9.13396072       5.32103536       2.31680756        3       1.00000000      -0.08411107       0.06223012       0.13462575
Pt      11.75153882       5.33335449       2.19864865        3       0.00000000      -0.00715447       0.00044832       0.01491900
Ni       5.20720797       7.57113822       2.21926137        3       1.00000000      -0.10534340       0.04916461       0.01606458
Ni       7.86791092       7.50629318       2.26129879        3       1.00000000       0.06408564      -0.13115436       0.06165609
Pt      10.46240094       7.54111508       2.18590717        3       0.00000000      -0.02361120      -0.02462292       0.03984934
Ni      13.11138442       7.61640325       2.21552190        3       1.00000000      -0.03081868       0.10023437      -0.08189336
Pt      -0.09168901       1.53254551       4.40769772        2       0.00000000      -0.13524169       0.03935460      -0.10611978
Pt       2.65541460       1.46233000       4.45772567        2       0.00000000      -0.04427747      -0.04074689      -0.12069157
Ni       5.30161122       1.50386648       4.43771994        2       1.00000000       0.08440198       0.02419990      -0.21899768
Ni       7.83325530       1.52288296       4.45952819        2       1.00000000      -0.05142959       0.01161811      -0.10562772
Pt       1.22292884       3.83910757       4.47743043        2       0.00000000      -0.04668959       0.06471112      -0.04858330
Pt       4.02867395       3.73869485       4.41584243        2       0.00000000       0.03391047       0.03342491      -0.04337464
Ni       6.60139154       3.75226124       4.46144006        2       1.00000000       0.04970069       0.02394164       0.01430673
Ni       9.13122768       3.81234035       4.46829780        2       1.00000000      -0.07794101       0.07533598      -0.13134196
Pt       2.59507957       6.06789908       4.41672943        2       0.00000000       0.00612031       0.03489523      -0.02187817
Pt       5.34367343       6.00177650       4.39076892        2       0.00000000       0.08150072      -0.04893492       0.00657528
Ni       7.91703341       5.98758627       4.42259402        2       1.00000000       0.06418762      -0.12687001      -0.23618843
Ni      10.41581228       6.01611194       4.50407312        2       1.00000000      -0.08379558      -0.04287425      -0.06354362
Pt       3.90791173       8.34304499       4.36411999        2       0.00000000       0.01346879      -0.03116115      -0.09650088
Pt       6.57275054       8.27404668       4.40941969        2       0.00000000      -0.03003882       0.01240027      -0.05531265
Pt       9.18006097       8.21176154       4.48500210        2       0.00000000      -0.02897027      -0.06501706      -0.02921758
Pt      11.78192238       8.38605835       4.42974328        2       0.00000000      -0.02015692       0.01958479      -0.01217780
Pt       0.01311877      -0.01710840       6.75955691        1       0.00000000      -0.02915104       0.02142920       0.11697449
Ni       2.64989200      -0.04416805       6.70425133        1       1.00000000      -0.00615053       0.02348217      -0.10693929
Pt       5.21636029      -0.06569489       6.75972662        1       0.00000000      -0.07085854      -0.01199056       0.12824931
Ni       7.86126455      -0.02575265       6.70938363        1       1.00000000      -0.05120569      -0.01240074      -0.11341621
Pt       1.30819013       2.24769314       6.63019392        1       0.00000000      -0.01721225       0.00090126      -0.07331926
Pt       3.94718017       2.20756002       6.63025246        1       0.00000000       0.02293792       0.01658166      -0.03435505
Pt       6.58292940       2.20500146       6.57672213        1       0.00000000      -0.02069702      -0.02108868      -0.07196190
Pt       9.16831578       2.25791171       6.73308780        1       0.00000000      -0.00947328       0.01654437       0.13598413
Pt       2.59279317       4.53171515       6.74746851        1       0.00000000       0.00999024       0.01224568       0.08840808
Pt       5.28223360       4.52922983       6.71705057        1       0.00000000       0.04817238       0.07034077       0.09871328
Pt       7.95624632       4.56797918       6.57351907        1       0.00000000       0.02827833       0.04612133      -0.02758306
Ni      10.46377001       4.54464141       6.68911231        1       1.00000000      -0.03935095       0.03207468      -0.12361808
Pt       3.90848643       6.83449877       6.74763800        1       0.00000000      -0.05049456       0.04562141       0.10279213
Pt       6.65589631       6.83033985       6.65467544        1       0.00000000       0.06086552       0.06381594       0.04202332
Ni       9.18561843       6.78362472       6.67716663        1       1.00000000       0.00678941      -0.01844135      -0.11131907
Pt      11.70994296       6.77244612       6.75048422        1       0.00000000      -0.06325225      -0.03578760       0.04515205
