64
Lattice="10.168604163300996 0.01808367765109073 -0.04499054850059724 5.099963005890251 8.747153221394186 -0.08786425818947635 0.0 0.0 21.493268382122267" Properties=species:S:1:pos:R:3:tags:I:1:initial_magmoms:R:1:forces:R:3 unique_id=422cd204bb9449ee8c8d858f21a7f716 stress="0.0019678254010847395 3.4964813406170313e-06 -0.00023357410791948944 3.4964813406170313e-06 0.0014035565006689892 -0.0002448495514625725 -0.00023357410791948944 -0.0002448495514625725 -0.0049838576473840435" energy=-369.121281998189 pbc="T T T"
Ni       0.03336352      -0.04777444       0.21675902        2       1.00000000       0.07893241       0.02068335      -0.34639786
Ni       2.48512143      -0.03394488       0.22531610        2       1.00000000       0.03281238       0.02505523      -0.26244240
Pt       5.10847487      -0.03051631       0.16493674        2       0.00000000      -0.11671825       0.14363413      -1.20294771
Ni       7.63885912      -0.03354628       0.17420350        2       1.00000000      -0.05212800      -0.04921477      -0.41377687
Ni       1.25007605       2.19579626       0.12479920        1       1.00000000      -0.09512357       0.00199183       0.30006760
Pt       3.73094193       2.20550338       0.18211165        2       0.00000000       0.04176960      -0.01790254      -0.73216744
Ni       6.37141055       2.20697319       0.09530507        1       1.00000000      -0.06141921      -0.01522216       0.05788234
Pt       8.90582609       2.24742261       0.08799494        1       0.00000000       0.08591491       0.13900543      -0.75535773
Ni       2.49301769       4.40607814       0.08226428        1       1.00000000       0.05294455      -0.01478263       0.34628135
Pt       5.11215298       4.44950142       0.04457577        0       0.00000000      -0.07919637       0.04119251       0.04834535
Ni       7.64690052       4.42559600       0.07233904        1       1.00000000       0.03746094       0.03978244       0.20397012
Ni      10.20147194       4.41892558       0.05462794        1       1.00000000      -0.03928336       0.00928215       0.36041609
Ni       3.79765797       6.58405078       0.06364700        1       1.00000000       0.03559131       0.01237938       0.22986745
Ni       6.38033394       6.59582492       0.05410133        1       1.00000000      -0.04141977       0.00047762       0.23167046
Ni       8.86423510       6.50819129       0.11299691        1       1.00000000      -0.06379769      -0.01175814      -0.29719772
Ni      11.48691877       6.50939261       0.00000000        0       1.00000000       0.00423043       0.05137931       0.18037891
Ni       1.29023423       0.72638586       2.21006850        4       1.00000000       0.00256135       0.07865544       0.17582207
Ni       3.73346789       0.72247523       2.19070741        4       1.00000000      -0.16241624      -0.04837985       0.20743936
Ni       6.37988219       0.75399366       2.17670803        4       1.00000000       0.07476970       0.07163691       0.12621435
Pt       8.91726130       0.73524162       2.18295563        4       0.00000000       0.06732367      -0.08910642       0.19506989
Ni       2.49457752       2.93044889       2.23637129        4       1.00000000      -0.00342153      -0.01258475       0.13038850
Ni       5.08629714       2.95039275       2.15670475        4       1.00000000       0.01464077       0.08247092       0.07071360
Ni       7.61158682       2.95867631       2.15530577        4       1.00000000      -0.03647022       0.05089753       0.06379493
Ni      10.21169306       2.96069656       2.18128716        4       1.00000000       0.06694788       0.01330426       0.14343229
Ni       3.79024705       5.09210969       2.17694361        4       1.00000000       0.00923207      -0.06664420       0.07490656
Ni       6.37773309       5.13187570       2.14182953        3       1.00000000       0.00251112       0.00541160       0.03894250
Ni       8.87826298       5.04539820       2.13269249        3       1.00000000       0.00349970      -0.12411851       0.09906640
Ni      11.47393020       5.03979569       2.12315700        3       1.00000000       0.06087359      -0.12858244       0.15718979
Ni       5.12267430       7.21904558       2.09752635        3       1.00000000      -0.04578696      -0.05371713       0.08028293
Ni       7.56458443       7.25050032       2.07968383        3       1.00000000      -0.04460201      -0.04505262       0.12176747
Pt      10.21851431       7.17243524       2.12366279        3       0.00000000       0.05293580      -0.22315846       0.11872478
Ni      12.73160957       7.21973911       2.05851980        3       1.00000000       0.07289911      -0.09108431       0.08344127
Ni       0.04429290       1.46823456       4.28386571        7       1.00000000       0.11619876      -0.01947457      -0.12580255
Ni       2.45765266       1.48020946       4.24410209        6       1.00000000      -0.04562294      -0.00511288      -0.13650599
Pt       5.07609544       1.46241224       4.17982158        6       0.00000000       0.02736255      -0.01236163      -0.23531037
Ni       7.62338212       1.45173835       4.24808527        6       1.00000000      -0.02547115      -0.07333291      -0.21469632
Ni       1.26284341       3.62122599       4.28650086        7       1.00000000       0.03736057      -0.04533050      -0.09846388
Ni       3.74533564       3.69661041       4.22169683        6       1.00000000      -0.03848006       0.07847288      -0.22102689
Pt       6.38456084       3.68845899       4.24674971        6       0.00000000       0.06750270      -0.04218053      -0.05105668
Ni       8.94234975       3.67652268       4.18973158        6       1.00000000       0.06327671       0.06916032      -0.18711464
Ni       2.51178569       5.74214946       4.26314319        7       1.00000000      -0.04279229      -0.05255332      -0.18480481
Ni       5.07391907       5.79410769       4.24365639        6       1.00000000       0.04253087       0.00650729      -0.20742925
Ni       7.60302336       5.80195825       4.20557326        6       1.00000000      -0.01155250       0.01209212      -0.16897913
Ni      10.20509490       5.73627977       4.23747733        6       1.00000000       0.03020204      -0.01009220      -0.08124132
Pt       3.81231298       7.89819072       4.20551133        6       0.00000000       0.00632301       0.03337879       0.00140363
Ni       6.32673792       7.96350465       4.17098427        6       1.00000000      -0.07238474      -0.01591035      -0.19529810
Pt       8.81168913       7.94753754       4.14874902        5       0.00000000      -0.08097897       0.02991527      -0.09664854
Ni      11.46061956       7.93212797       4.18380909        6       1.00000000       0.00473163      -0.10409791      -0.14691535
Pt      -0.00893106      -0.08350277       6.49326838       10       0.00000000      -0.16849832       0.16469957       0.24015616
Pt       2.49278367      -0.02619476       6.47961687       10       0.00000000       0.19655094       0.11192243       0.28910859
Pt       5.08575787      -0.04428079       6.35458518        9       0.00000000      -0.08749883      -0.03859449       1.26017321
Pt       7.59940044      -0.07125975       6.45300247       10       0.00000000       0.10890146       0.17027470       0.37476606
Ni       1.24639718       2.21937150       6.38191440        9       1.00000000       0.03927994       0.01239476      -0.14559121
Pt       3.76582717       2.29876914       6.32972622        8       0.00000000      -0.12638449      -0.01569358       0.69600817
Ni       6.33949088       2.21653634       6.39466400        9       1.00000000       0.00534412       0.01840796       0.00849315
Pt       8.89172227       2.27083345       6.25153185        8       0.00000000      -0.01246935      -0.17085750       0.78653214
Ni       2.49154147       4.39657044       6.35793309        9       1.00000000       0.07960583      -0.04156690      -0.31559321
Ni       5.07094498       4.40457006       6.29011797        8       1.00000000      -0.09265422       0.03631632       0.17429203
Ni       7.55449456       4.34674345       6.38667762        9       1.00000000      -0.03052641       0.00765119      -0.05926926
Ni      10.23774402       4.34359139       6.33290186        8       1.00000000       0.03079061       0.00687715      -0.25120470
Ni       3.79807516       6.42836540       6.36793088        9       1.00000000       0.00814762      -0.04090982      -0.22339394
Ni       6.31331586       6.45740716       6.33805249        8       1.00000000       0.00370564       0.02044922      -0.26025050
Pt       8.88742538       6.38313567       6.39151315        9       0.00000000       0.03560223       0.01580309       0.12856903
Ni      11.46682924       6.45655785       6.31206359        8       1.00000000      -0.02417108       0.09781492      -0.18869414
