64
Lattice="10.30493296132774 -0.0013052888120060838 -0.005750142564086026 5.151336067393394 8.86989727082356 -0.06253504977565866 -0.0046949717434232275 -0.05624796714437218 8.787658669715112" Properties=species:S:1:pos:R:3:tags:I:1:initial_magmoms:R:1:forces:R:3 unique_id=c8de239368fd4043af6d28b0249d444c stress="0.0002042744185346626 3.7891930001029214e-06 -5.027504651795467e-06 3.7891930001029214e-06 0.00021744546832018485 2.946142216952693e-05 -5.027504651795467e-06 2.946142216952693e-05 0.00020713762496334803" energy=-397.415763598282 pbc="T T T"
Ni      -0.01822742       0.02067192       0.20583938        4       1.00000000      -0.06513018       0.03406724       0.31896116
Ni       2.57056046      -0.00327374       0.20823477        4       1.00000000      -0.02129029      -0.03584058       0.38361170
Ni       5.14444217      -0.02938454       0.16038027        4       1.00000000      -0.02134556       0.10067726       0.31665586
Ni       7.76204181      -0.05109175       0.09355083        4       1.00000000       0.08167968      -0.14420877       0.17860047
Ni       1.26764456       2.20463149       0.07169043        4       1.00000000      -0.08463422      -0.09017950       0.11915347
Pt       3.79339345       2.21727840       0.09149412        4       0.00000000      -0.08314872      -0.01377889      -0.12217726
Pt       6.46034256       2.19523435       0.11356706        4       0.00000000       0.00860409      -0.09671982       0.21804280
Ni       9.03914439       2.16927961       0.12462185        4       1.00000000      -0.03655524      -0.20968758       0.13466414
Ni       2.57532856       4.44864103       0.04176701        4       1.00000000       0.09142607       0.02818277       0.06541951
Ni       5.11451118       4.44883560       0.15365930        4       1.00000000      -0.04974889       0.03469667       0.31543444
Pt       7.80593152       4.44777743       0.06822424        4       0.00000000       0.15930980       0.00919687      -0.07915684
Ni      10.33964235       4.43621833       0.02234505        4       1.00000000       0.14782072      -0.01701288       0.05307070
Ni       3.83166296       6.64786486       0.14646133        4       1.00000000      -0.04280380      -0.08196318       0.27688077
Pt       6.40693373       6.69157113       0.14288534        4       0.00000000      -0.10303557       0.00926872       0.08082475
Ni       9.03505495       6.65805743       0.01380347        4       1.00000000      -0.02439800       0.01377879      -0.05182748
Ni      11.61372288       6.64656598       0.00811699        4       1.00000000       0.12616024       0.00170906      -0.03097020
Ni       1.28778196       0.71048906       2.16206876        3       1.00000000      -0.01559075       0.01092485      -0.02442395
Ni       3.83335605       0.74165036       2.19206433        3       1.00000000       0.03676818       0.03208155       0.06202435
Pt       6.47862748       0.74151091       2.25698644        3       0.00000000       0.02161181       0.17516719      -0.06471373
Ni       9.03044291       0.69970227       2.17546823        3       1.00000000       0.00510575      -0.02399594       0.00274685
Ni       2.59855024       2.94056434       2.19214391        3       1.00000000       0.02954494       0.05748193       0.01696176
Ni       5.11056490       2.98294703       2.20741055        3       1.00000000      -0.14574866      -0.00313255      -0.04530876
Ni       7.74409437       2.96431461       2.21217118        3       1.00000000       0.06730775       0.02181848      -0.07363082
Pt      10.27552581       2.88901462       2.16274956        3       0.00000000       0.02802935       0.00514430       0.01452260
Ni       3.90036563       5.16313616       2.17786885        3       1.00000000       0.08441781       0.00650723       0.11578523
Ni       6.42081776       5.16446860       2.19654963        3       1.00000000      -0.01821606       0.13706515      -0.06114653
Ni       8.98556483       5.15675929       2.21316701        3       1.00000000      -0.01264758      -0.06736194       0.17576085
Pt      11.66196045       5.15703639       2.12774905        3       0.00000000       0.09671651      -0.01676603      -0.01429271
Ni       5.11193459       7.36831915       2.14617862        3       1.00000000      -0.10235171      -0.12130926      -0.07694576
Ni       7.71669404       7.37115405       2.14786517        3       1.00000000      -0.01164771      -0.13176405      -0.06754234
Pt      10.25366678       7.34457020       2.06828671        3       0.00000000       0.02598084      -0.12979162       0.01129951
Ni      12.92628421       7.36647484       2.10636429        3       1.00000000      -0.01341507      -0.05111450      -0.05151872
Ni      -0.02164961       1.47759438       4.33514523        2       1.00000000       0.01187206       0.02258431      -0.08461314
Pt       2.60096526       1.51093078       4.29886504        2       0.00000000      -0.03579038       0.00283716      -0.08236746
Ni       5.13828856       1.47759873       4.32870913        2       1.00000000      -0.02962156       0.03560144      -0.11824427
Ni       7.76905630       1.47541930       4.32406684        2       1.00000000       0.20384819       0.11783465      -0.09239685
Pt       1.26011305       3.72589977       4.41221995        2       0.00000000      -0.01779536      -0.00210550      -0.02507525
Ni       3.86814662       3.70072264       4.30502245        2       1.00000000      -0.00450173       0.11040056      -0.23216636
Pt       6.45500301       3.69894758       4.22736347        2       0.00000000      -0.08358170      -0.03289995       0.05127416
Ni       9.01006500       3.69608989       4.32768279        2       1.00000000      -0.00221028       0.06862305      -0.19557706
Ni       2.59044035       5.85144391       4.32174907        2       1.00000000       0.13057099      -0.04233335      -0.12381114
Ni       5.11898766       5.85128791       4.26621252        2       1.00000000      -0.08341313      -0.00813820      -0.14756492
Ni       7.77061126       5.83209330       4.28505501        2       1.00000000       0.05425061      -0.04166381      -0.20367410
Ni      10.27429257       5.85042596       4.36239964        2       1.00000000      -0.07402293      -0.03193291      -0.10212199
Pt       3.85468945       8.10937948       4.21914777        2       0.00000000       0.00272253      -0.00517795       0.04381760
Pt       6.41941418       8.07250507       4.18114914        2       0.00000000      -0.01198628      -0.06006194       0.03661880
Pt       9.00883696       8.04103426       4.27494562        2       0.00000000      -0.01671507       0.02972609       0.11145311
Pt      11.61551468       8.05687474       4.32858789        2       0.00000000      -0.02170015      -0.16065441       0.10931904
Pt      -0.02421185       0.00566034       6.57851323        1       0.00000000      -0.04103723       0.07441797       0.17962954
Pt       2.58867841       0.01661587       6.60153769        1       0.00000000      -0.00459034       0.11644322       0.25264453
Pt       5.17968569      -0.10077390       6.59071477        1       0.00000000       0.03826554      -0.15066764       0.17068156
Ni       7.72186591      -0.04043405       6.52797831        1       1.00000000       0.06747266       0.10994246      -0.10131060
Ni       1.30047293       2.24248363       6.51162721        1       1.00000000       0.04477116       0.15133357      -0.06984601
Ni       3.83290186       2.20894121       6.42898571        1       1.00000000      -0.02798006       0.03370093      -0.27839696
Pt       6.45013521       2.16206894       6.40311488        1       0.00000000       0.02479068       0.02727045      -0.39843588
Pt       9.05557755       2.27410349       6.47701772        1       0.00000000       0.17805728       0.19024090       0.03009593
Ni       2.51954281       4.37985964       6.49254465        1       1.00000000      -0.12987911       0.00868491      -0.05543450
Pt       5.07382488       4.36100849       6.49158173        1       0.00000000      -0.11846763      -0.00117993       0.08952768
Ni       7.77785362       4.41794275       6.39503401        1       1.00000000       0.05326801       0.09146411      -0.30325608
Ni      10.30750734       4.44921610       6.47997667        1       1.00000000      -0.01814984       0.23020205      -0.06156604
Pt       3.74333086       6.60086130       6.49832525        1       0.00000000      -0.15447181       0.05802530       0.17718078
Pt       6.49684476       6.55753731       6.40167649        1       0.00000000       0.00951020      -0.00265491      -0.28656631
Ni       9.05445919       6.54665528       6.45797365        1       1.00000000       0.02615185      -0.13832640      -0.21398744
Ni      11.55351503       6.55486194       6.46816603        1       1.00000000      -0.12841269      -0.24467724      -0.17259618
