64
Lattice="10.279785063769507 -0.030136122267905397 0.0629035227342179 5.113793884429193 8.834782355112017 0.04173241973609419 0.051360511240798414 0.009692697663695555 8.801686240389486" Properties=species:S:1:pos:R:3:tags:I:1:initial_magmoms:R:1:forces:R:3 unique_id=1e47eeb435e0448faa4afab90ccb2235 stress="0.00021121909429667324 8.549705963575368e-06 -3.8359797569795e-05 8.549705963575368e-06 0.00020168372372073723 -2.0040401288270596e-05 -3.8359797569795e-05 -2.0040401288270596e-05 0.0002141250600700001" energy=-395.48787556934946 pbc="T T T"
Ni       0.07057390      -0.03131748       0.17542402        4       1.00000000       0.18965548      -0.09533392       0.23885225
Ni       2.51910678      -0.03169989       0.22330143        4       1.00000000      -0.07537653      -0.06291221       0.37309503
Pt       5.08068219      -0.03974786       0.17126549        4       0.00000000      -0.09232786      -0.03118302       0.26729039
Pt       7.75096432      -0.12037948       0.21873590        4       0.00000000       0.09174583      -0.04622780       0.34535115
Ni       1.28835713       2.21733901       0.11831061        4       1.00000000       0.01026188       0.06459875       0.25330499
Pt       3.77379702       2.27037316       0.21515272        4       0.00000000      -0.01771612       0.16830340       0.18130861
Pt       6.42637657       2.29669241       0.15763064        4       0.00000000       0.03726348       0.19982101       0.01850266
Pt       9.07631073       2.27680265       0.20239183        4       0.00000000       0.09117428       0.12594708       0.21293422
Ni       2.55400266       4.45221191       0.09071071        4       1.00000000       0.06084802       0.12195357       0.03324994
Ni       5.13163344       4.48141654       0.14336817        4       1.00000000       0.05515622       0.20377046       0.22759310
Ni       7.70237061       4.47570683       0.16487743        4       1.00000000       0.00263030       0.22366983       0.22250436
Ni      10.29469368       4.43488752       0.14736466        4       1.00000000       0.07764151       0.16648745       0.10810558
Ni       3.86996956       6.57479700       0.13969626        4       1.00000000       0.15012978      -0.11050476       0.22042645
Ni       6.40882388       6.61075902       0.23638485        4       1.00000000       0.02621864      -0.01528381       0.17279980
Ni       8.93962560       6.56074325       0.23018516        4       1.00000000      -0.18444321      -0.07856967       0.20551670
Ni      11.56133475       6.53838069       0.14856952        4       1.00000000       0.06008930      -0.09124396       0.05211967
Ni       1.32539944       0.72753163       2.20471864        3       1.00000000       0.11741172      -0.02699646       0.04601984
Ni       3.83268722       0.75003375       2.25785664        3       1.00000000       0.01288637       0.00330296      -0.00784522
Ni       6.40922181       0.76674488       2.28023543        3       1.00000000      -0.09440369       0.06558727      -0.03516722
Pt       9.09814258       0.71068932       2.30090471        3       0.00000000       0.11362205       0.03028930      -0.18090452
Ni       2.56124542       2.95453211       2.26065528        3       1.00000000       0.03498424       0.08362159       0.00171339
Ni       5.12681909       2.97611275       2.29373688        3       1.00000000      -0.11237407       0.12102485       0.06788749
Ni       7.71148115       3.00079041       2.27719639        3       1.00000000       0.05079522       0.17934978      -0.01849965
Ni      10.31220268       2.93641832       2.33068864        3       1.00000000       0.04812533      -0.00798006       0.20246472
Ni       3.89411610       5.14765795       2.24275499        3       1.00000000       0.14855413      -0.05308729       0.04754718
Ni       6.42056435       5.16555004       2.23792580        3       1.00000000      -0.02000967       0.03717217      -0.02299983
Ni       8.94140193       5.10055242       2.27696501        3       1.00000000      -0.12179742      -0.16051938       0.08547519
Pt      11.60146326       5.06318367       2.29943911        3       0.00000000       0.10542236      -0.07770806       0.06890243
Ni       5.17620034       7.30761195       2.22366555        3       1.00000000       0.09114810      -0.19071317      -0.01073903
Ni       7.63670945       7.33087088       2.24431317        3       1.00000000      -0.13186811      -0.13702854       0.06581092
Pt      10.23259927       7.27017049       2.27038075        3       0.00000000      -0.11220829      -0.08905883      -0.20119987
Ni      12.88595644       7.26916124       2.30175327        3       1.00000000       0.20804483      -0.27027246      -0.03373639
Ni       0.04693686       1.52337404       4.35225748        2       1.00000000      -0.04853183       0.09961258      -0.02572875
Pt       2.53134604       1.54641904       4.29431456        2       0.00000000      -0.00317580       0.03846486       0.13738446
Ni       5.14578933       1.49925694       4.35459692        2       1.00000000      -0.13863026       0.06327041      -0.21541149
Pt       7.71884445       1.51942854       4.36605904        2       0.00000000       0.00353034       0.02921128       0.03998186
Ni       1.28005225       3.71996694       4.41493018        2       1.00000000      -0.04253548       0.02162411       0.02972472
Ni       3.84923590       3.75258068       4.36051337        2       1.00000000      -0.11287856       0.12285451      -0.23336643
Pt       6.39679889       3.75637299       4.39114936        2       0.00000000      -0.02663007      -0.00627183      -0.07929722
Ni       9.04971819       3.73562828       4.38955828        2       1.00000000      -0.00796578       0.10245049      -0.22601482
Ni       2.59132024       5.81810982       4.42349891        2       1.00000000       0.01996978      -0.17217314      -0.06927784
Ni       5.13315291       5.86191326       4.38534475        2       1.00000000      -0.00846031      -0.06830345      -0.22093609
Ni       7.71373498       5.85653826       4.38571928        2       1.00000000      -0.01088253      -0.01112320      -0.21594226
Ni      10.29596245       5.79060621       4.45444833        2       1.00000000      -0.00365500      -0.10443997      -0.05953763
Pt       3.94125176       7.99350311       4.35530266        2       0.00000000       0.03722038      -0.10795815       0.10565946
Ni       6.42313765       8.06177953       4.36483335        2       1.00000000      -0.05984223      -0.11105378      -0.17854732
Pt       8.91146455       8.05298455       4.37145235        2       0.00000000      -0.03097201      -0.04339590       0.04658394
Pt      11.57983050       7.99189416       4.37853892        2       0.00000000      -0.03151315      -0.08715303      -0.00268900
Pt       0.03392338       0.02087822       6.55461814        1       0.00000000       0.02664478       0.00869196       0.08973491
Pt       2.58439823       0.02167986       6.60252448        1       0.00000000      -0.05389544       0.00027611       0.23857251
Pt       5.18164700       0.01543097       6.49648976        1       0.00000000       0.05091917       0.02416061      -0.44146899
Pt       7.74563069      -0.07281297       6.55118825        1       0.00000000      -0.07986499      -0.07415377      -0.25644423
Ni       1.31160627       2.28955065       6.52730902        1       1.00000000       0.04555169       0.16612436      -0.14639449
Pt       3.87820229       2.34289031       6.48303730        1       0.00000000      -0.10902072       0.12468481      -0.22397503
Ni       6.45265962       2.25517010       6.50403061        1       1.00000000      -0.02245939       0.08284102      -0.21094203
Pt       9.05715464       2.31600148       6.50847662        1       0.00000000      -0.00886566       0.11325275      -0.31685477
Ni       2.56172037       4.47231605       6.52187115        1       1.00000000      -0.08806938       0.06013757      -0.21373956
Ni       5.13605659       4.42671851       6.55875914        1       1.00000000      -0.14831125       0.07095856      -0.11335035
Ni       7.70590487       4.38293970       6.57176706        1       1.00000000      -0.15035769      -0.07039375      -0.13679213
Ni      10.37160724       4.40441507       6.56825982        1       1.00000000       0.27571733       0.00381724      -0.21204245
Ni       3.83539192       6.54713504       6.55478087        1       1.00000000      -0.09190199      -0.23145179      -0.10156805
Pt       6.38759209       6.52336793       6.57231919        1       0.00000000      -0.05246572      -0.00764741       0.08758501
Pt       9.05741638       6.48280671       6.61379863        1       0.00000000       0.01801132      -0.15698641       0.11047831
Ni      11.60940066       6.52984268       6.60035465        1       1.00000000       0.03203634      -0.13020368      -0.19306856
