64
Lattice="10.177098946785827 -0.012384472634837888 0.003638312553293336 5.077824205478727 8.752111845283395 -0.011598895548087003 0.0029706697601105214 -0.0126506605807757 8.680489347802185" Properties=species:S:1:pos:R:3:tags:I:1:initial_magmoms:R:1:forces:R:3 unique_id=26193ca25f6c4bd39155db0b57fe249d stress="9.0905758450055e-05 2.209294840559545e-06 -9.530814997950393e-06 2.209294840559545e-06 9.894377889205219e-05 -4.799573910537699e-06 -9.530814997950393e-06 -4.799573910537699e-06 0.00010588647820268526" energy=-391.4665637181251 pbc="T T T"
Ni       0.00791981       0.01494565       0.17553303        4       1.00000000       0.02430740       0.01095565       0.22882299
Ni       2.53615550      -0.00776155       0.21764022        4       1.00000000       0.00369742      -0.02875196       0.35638785
Ni       5.09095734      -0.01936782       0.16432071        4       1.00000000      -0.00061883       0.08324967       0.22208931
Ni       7.63347047      -0.05411929       0.17964459        4       1.00000000      -0.04993569      -0.08630327       0.27318369
Ni       1.22987483       2.19803608       0.11109090        4       1.00000000      -0.09408697       0.04430975       0.18170647
Pt       3.76100061       2.20004294       0.18033269        4       0.00000000      -0.08104095       0.00806433       0.22590858
Pt       6.41394883       2.19367888       0.10442946        4       0.00000000       0.10258539       0.02944145      -0.03705215
Ni       8.94363544       2.20965939       0.15338396        4       1.00000000       0.08279865       0.10220854       0.16029863
Ni       2.52993244       4.40558538       0.06240005        4       1.00000000      -0.01412301       0.05960305      -0.00716920
Ni       5.06467003       4.39414863       0.10119058        4       1.00000000      -0.04904461       0.00721742       0.18476027
Ni       7.67170651       4.37532997       0.10805319        4       1.00000000       0.12964887       0.02001507       0.18655929
Ni      10.16404026       4.35601163       0.07859996        4       1.00000000      -0.02478666       0.00118922       0.06123513
Ni       3.77662258       6.55534396       0.09590639        4       1.00000000      -0.03820773      -0.02121709       0.13095777
Pt       6.34504561       6.55139194       0.08677391        4       0.00000000      -0.03397214      -0.02787230      -0.24631782
Ni       8.90484212       6.53498032       0.15839321        4       1.00000000      -0.04159618      -0.07196840       0.21984422
Ni      11.46376478       6.54683334       0.05666678        4       1.00000000       0.04887801      -0.05114217      -0.07627177
Ni       1.27901211       0.72439066       2.15728626        3       1.00000000      -0.05265455      -0.00614109       0.04200401
Ni       3.81143194       0.73138496       2.19083867        3       1.00000000       0.06768948       0.04287915       0.02973034
Ni       6.35293495       0.74487790       2.22502552        3       1.00000000      -0.00504758       0.11354485       0.15389426
Pt       8.90894635       0.75261220       2.17358140        3       0.00000000      -0.04098517       0.07806081       0.04555887
Ni       2.52838599       2.92301736       2.19817124        3       1.00000000       0.02884968       0.04699118      -0.05065011
Ni       5.08427113       2.93585578       2.22391490        3       1.00000000      -0.07523379       0.01788531      -0.02014066
Ni       7.64608891       2.95159282       2.20113914        3       1.00000000       0.05209466       0.09047295       0.04218311
Ni      10.17293838       2.90805062       2.18674604        3       1.00000000       0.03162394       0.04732557       0.12577085
Ni       3.84848053       5.09918883       2.17675895        3       1.00000000       0.07988781       0.00823081       0.01620806
Ni       6.35517819       5.09397532       2.18614058        3       1.00000000       0.00074482       0.04739224      -0.06060649
Ni       8.86133199       5.06088970       2.18421479        3       1.00000000      -0.00504843      -0.01387151       0.10170264
Pt      11.47328774       5.04131631       2.18746467        3       0.00000000       0.06095350      -0.05477684      -0.00457462
Ni       5.09185122       7.25448254       2.18030501        3       1.00000000       0.04104294      -0.11216972      -0.04025598
Ni       7.58465902       7.27387962       2.18488718        3       1.00000000      -0.08893376      -0.12025684       0.05105734
Pt      10.18973171       7.28788533       2.13622077        3       0.00000000       0.03338709      -0.01971184       0.04353561
Ni      12.73615844       7.25687440       2.14979503        3       1.00000000       0.08219360      -0.11994478      -0.02339164
Ni      -0.01370385       1.49709900       4.29172836        2       1.00000000      -0.09232567       0.06912773      -0.01861573
Pt       2.48212947       1.51250589       4.21707923        2       0.00000000      -0.00897618       0.03300713       0.13671548
Ni       5.12521647       1.45305059       4.26115544        2       1.00000000      -0.03829278      -0.01993048      -0.12099797
Ni       7.61900356       1.45345368       4.29350820        2       1.00000000       0.00227779      -0.01306207      -0.02421684
Ni       1.24461593       3.67703113       4.34054106        2       1.00000000      -0.03769761      -0.00039797      -0.02289006
Ni       3.80004867       3.71941378       4.26158963        2       1.00000000      -0.06762407       0.10937343      -0.19431858
Pt       6.35826987       3.65661819       4.28528218        2       0.00000000      -0.00875372      -0.03522969      -0.04271409
Ni       8.93105667       3.66521879       4.27143242        2       1.00000000       0.03163602       0.07183579      -0.17225694
Ni       2.53060595       5.78708581       4.33461433        2       1.00000000      -0.02462675      -0.06019123      -0.09754589
Ni       5.07992876       5.80996311       4.29912108        2       1.00000000      -0.01047960      -0.05203538      -0.22519345
Ni       7.61034715       5.80108954       4.27250566        2       1.00000000       0.03535044      -0.02518927      -0.21373299
Ni      10.20171633       5.76568426       4.31942042        2       1.00000000      -0.00583886      -0.01783011      -0.06424252
Pt       3.80755980       7.94377523       4.24187632        2       0.00000000      -0.02083493      -0.08598811       0.14581137
Ni       6.33909382       7.96347847       4.24906263        2       1.00000000      -0.05673548      -0.05199591      -0.14970471
Pt       8.88164258       7.97474390       4.24133799        2       0.00000000      -0.03728252      -0.06335071       0.13567991
Ni      11.45385761       7.98546532       4.27137595        2       1.00000000       0.01584537      -0.05880832      -0.06341490
Pt       0.00655934      -0.04707881       6.46431264        1       0.00000000       0.11250428      -0.07511212       0.04706298
Pt       2.52524152      -0.02066250       6.49383827        1       0.00000000      -0.10822435       0.01688039       0.23057288
Pt       5.11286454      -0.01488519       6.45524509        1       0.00000000       0.12838772      -0.01651631      -0.00034715
Pt       7.62939864      -0.06514809       6.46814800        1       0.00000000      -0.09085484      -0.09188773       0.09547832
Ni       1.26434771       2.25037456       6.42344884        1       1.00000000       0.03579296       0.08779680      -0.10535783
Pt       3.82923226       2.30938623       6.36328527        1       0.00000000       0.02757142       0.24501326      -0.33539259
Ni       6.36809170       2.21943370       6.35185107        1       1.00000000      -0.00349823       0.00944276      -0.23993090
Pt       8.91155774       2.27270143       6.41718328        1       0.00000000       0.00096483       0.11986226       0.00781687
Ni       2.51630943       4.41991550       6.39806202        1       1.00000000      -0.00342200       0.07102956      -0.20421098
Ni       5.09265367       4.42774381       6.41548657        1       1.00000000      -0.00937577       0.14650860      -0.12051807
Ni       7.57940439       4.36008596       6.42416438        1       1.00000000      -0.19462667      -0.02188150      -0.08023513
Ni      10.24287137       4.35399306       6.40401919        1       1.00000000       0.21870972      -0.02390882      -0.16345698
Ni       3.80305163       6.46709006       6.41388597        1       1.00000000      -0.01136070      -0.14861651      -0.12104925
Ni       6.32173094       6.48521445       6.32105084        1       1.00000000       0.00042389      -0.01760624      -0.37355969
Pt       8.90803162       6.40620623       6.45099377        1       0.00000000       0.01371927      -0.18599878       0.08476907
Ni      11.47573749       6.47322758       6.40083887        1       1.00000000       0.03257979      -0.03924964      -0.24697251
