64
Lattice="10.30535277916671 -0.03460983103964028 0.03679871565204756 5.122703396682337 8.90510245829765 0.007194677943349103 0.0 0.0 21.59047183304286" Properties=species:S:1:pos:R:3:tags:I:1:initial_magmoms:R:1:forces:R:3 unique_id=811cdab92b36476c8c437005fec5f973 stress="0.005485528387967672 -0.00017742839127489967 7.416645878503222e-05 -0.00017742839127489967 0.005154369206874577 -0.00013139984989301266 7.416645878503222e-05 -0.00013139984989301266 -0.001222944848861018" energy=-376.11403834003687 pbc="T T T"
Ni       0.04821057       0.02088115       0.09603144        1       1.00000000       0.14696734      -0.02356190      -0.08240825
Ni       2.53624301       0.00333850       0.14104192        1       1.00000000      -0.10979644       0.05380185      -0.02053437
Pt       5.08302580      -0.05794751       0.07003022        1       0.00000000      -0.11273123       0.19541666      -1.02287125
Pt       7.79522989      -0.11411921       0.11582846        1       0.00000000      -0.03621667      -0.12966164      -0.92603468
Ni       1.24507143       2.23454643       0.04113338        0       1.00000000      -0.10523037       0.03292194       0.51848270
Pt       3.76152901       2.28085367       0.05599245        1       0.00000000      -0.00100623      -0.03658925       0.10688294
Pt       6.44162114       2.26898869       0.11186911        1       0.00000000      -0.01058896       0.02505999      -0.77052560
Ni       9.06978025       2.21931122       0.13211010        1       1.00000000       0.03455867       0.12181271      -0.03899642
Ni       2.56009517       4.47516456       0.00000000        0       1.00000000       0.02793861       0.01355258       0.29564919
Ni       5.09852915       4.47540642       0.04811994        0       1.00000000      -0.03277608       0.11211659       0.38225657
Pt       7.80023535       4.47139149       0.06110008        1       0.00000000       0.04811850       0.04063210       0.08373203
Ni      10.32588871       4.41317028       0.04084506        0       1.00000000       0.06824387      -0.10074100       0.33323227
Ni       3.83181441       6.62715565       0.04049276        0       1.00000000      -0.01081823      -0.12332448       0.44224313
Pt       6.38814182       6.70688778       0.13302212        1       0.00000000      -0.01784054       0.04499086      -0.23754455
Ni       9.00570960       6.63627570       0.03256538        0       1.00000000      -0.06388998       0.00414719       0.11752893
Ni      11.58335412       6.59380341       0.03275164        0       1.00000000       0.05508644       0.01245304       0.17117582
Ni       1.33124388       0.73337792       2.15315591        3       1.00000000       0.16740648      -0.00161144       0.07580689
Ni       3.81018652       0.75760171       2.18090254        3       1.00000000      -0.07829114       0.04335308       0.16371591
Pt       6.39888304       0.77851568       2.25481240        4       0.00000000      -0.11643646       0.16897470       0.13591523
Pt       9.14800769       0.74456296       2.19217674        3       0.00000000       0.12814849       0.09186069       0.05075639
Ni       2.57517617       2.95113427       2.17597946        3       1.00000000       0.00315045      -0.01957899       0.12062439
Ni       5.10038336       3.01724541       2.21309011        3       1.00000000      -0.19059017       0.18737150       0.14182708
Ni       7.76351679       3.01170730       2.20500236        3       1.00000000       0.09262130       0.14196092       0.20066385
Ni      10.31579490       2.94289196       2.18278980        3       1.00000000       0.15645746       0.07587921       0.09730857
Ni       3.89347619       5.18613911       2.17303250        3       1.00000000       0.15843208      -0.02997682       0.06845108
Ni       6.41431188       5.19212900       2.20273638        3       1.00000000      -0.08324684       0.04011466       0.10081797
Ni       8.97283094       5.13572510       2.21436614        3       1.00000000      -0.11774543      -0.17146030       0.24232984
Pt      11.63955965       5.10201072       2.13113351        2       0.00000000       0.14666646      -0.15820926       0.02340797
Ni       5.15271231       7.38093893       2.19431071        3       1.00000000       0.04869925      -0.15028984       0.14869635
Ni       7.65974094       7.40669239       2.19867390        3       1.00000000      -0.16707932      -0.02806000       0.18445778
Pt      10.22395279       7.31112257       2.16133293        3       0.00000000      -0.04851673      -0.16627185      -0.20377811
Ni      12.91494846       7.32887025       2.19939755        3       1.00000000       0.19214888      -0.18261500       0.09242965
Ni       0.03832225       1.48667322       4.33258589        5       1.00000000       0.08627496      -0.07848642      -0.14516639
Pt       2.58345117       1.49896840       4.29168911        5       0.00000000      -0.03400279      -0.05378006      -0.07283666
Ni       5.12380942       1.51083404       4.35242448        6       1.00000000      -0.09161922       0.09842798      -0.25301041
Pt       7.79729437       1.52859161       4.34284303        5       0.00000000       0.09748576      -0.02548186      -0.03684838
Pt       1.30144818       3.70180465       4.38966956        6       0.00000000      -0.02532283       0.00845459      -0.02578823
Ni       3.87560571       3.73839201       4.36180097        6       1.00000000       0.00518107       0.10922435      -0.15772962
Pt       6.39705154       3.79473125       4.28384577        5       0.00000000      -0.04958501       0.02408365      -0.13189416
Ni       9.00937482       3.70335695       4.34757508        5       1.00000000      -0.06409577       0.01122461      -0.28962515
Ni       2.62268204       5.88803410       4.37550768        6       1.00000000       0.13845813      -0.18605901      -0.09325069
Ni       5.12842462       5.90103113       4.32283034        5       1.00000000      -0.07416810      -0.08528871      -0.34594759
Ni       7.70033073       5.90320380       4.32889829        5       1.00000000      -0.11963380       0.00208182      -0.41419889
Pt      10.24427046       5.84144640       4.44344148        6       0.00000000      -0.08587074      -0.02345119      -0.03311670
Pt       3.94448557       8.05750222       4.28662264        5       0.00000000       0.10722270      -0.07375533       0.00268226
Ni       6.42317737       8.12342425       4.30533253        5       1.00000000      -0.03923793      -0.03370022      -0.37310897
Pt       8.91068904       8.11370895       4.30061032        5       0.00000000      -0.13504114      -0.04393663      -0.08912203
Pt      11.60787374       8.06520185       4.33197034        5       0.00000000       0.09092199      -0.15998253      -0.14634434
Pt       0.03814446      -0.00094345       6.53990466        8       0.00000000       0.13442849       0.02317073       0.16707951
Pt       2.59078138       0.02119158       6.59047183        9       0.00000000      -0.06897198      -0.06511910       0.21102989
Pt       5.15180898      -0.06094342       6.47360704        8       0.00000000       0.04741170       0.16421051       0.97920273
Pt       7.76023636      -0.11152795       6.52342054        8       0.00000000      -0.01517445       0.13333075       1.04959681
Ni       1.33112769       2.27684592       6.53212864        8       1.00000000       0.07847022       0.10430343      -0.15492421
Ni       3.84457651       2.27615187       6.45162644        8       1.00000000      -0.04346426       0.13398193      -0.06835879
Pt       6.38681605       2.29726162       6.48689387        8       0.00000000      -0.04106407      -0.05201247       0.75150537
Pt       9.10353994       2.30905512       6.57367628        9       0.00000000      -0.05381701       0.06754497       0.18163195
Ni       2.59490866       4.46126990       6.51875095        8       1.00000000       0.07092492       0.01579387      -0.41660926
Ni       5.09093973       4.44935170       6.51651578        8       1.00000000      -0.22350777       0.02987729      -0.36655583
Ni       7.76416214       4.46097099       6.46023000        8       1.00000000       0.14353864       0.05778291      -0.12015485
Ni      10.33680803       4.45787010       6.57479414        9       1.00000000       0.07825974       0.02682765      -0.11583343
Ni       3.83703630       6.59094430       6.51326288        8       1.00000000      -0.04561676      -0.15687384      -0.35911757
Pt       6.42915588       6.56797790       6.43418674        7       0.00000000      -0.03517608       0.09244912       0.18725870
Ni       9.02758580       6.60133942       6.55440673        9       1.00000000      -0.11500860      -0.04277208      -0.11740041
Ni      11.60014254       6.56920595       6.56475349        9       1.00000000       0.10995646      -0.10653923      -0.19874401
