64
Lattice="10.313170581589823 0.005356397270788842 -0.0485544103682148 5.161224066904179 8.955308041988113 0.043565520140214274 -0.039644510054609124 0.06396273484133887 8.875807815150651" Properties=species:S:1:pos:R:3:tags:I:1:initial_magmoms:R:1:forces:R:3 unique_id=f652e12b139748729bffd924817794e9 stress="0.00017322403935730868 -5.08909203122735e-07 4.580438057541352e-06 -5.08909203122735e-07 0.00017618731330593107 -5.963211132429448e-06 4.580438057541352e-06 -5.963211132429448e-06 0.00015881594075203842" energy=-401.9268783384676 pbc="T T T"
Ni       0.03027910       0.01585110       0.17183667        4       1.00000000       0.06455987      -0.03125557       0.13141451
Ni       2.52077299       0.02942153       0.06569059        4       1.00000000      -0.10132333       0.06739956       0.01963776
Ni       5.20221840       0.03622805       0.06288383        4       1.00000000       0.06969899       0.07705735       0.06542437
Ni       7.70647421       0.02393646       0.05337640        4       1.00000000      -0.04235428       0.04482638       0.04257597
Ni       1.24820942       2.18745567       0.17709007        4       1.00000000      -0.12465688      -0.07211285       0.10879207
Pt       3.84868925       2.19414952       0.12678527        4       0.00000000      -0.07347562      -0.00877650      -0.18825973
Ni       6.45015004       2.19198139       0.15903299        4       1.00000000      -0.02750222      -0.04975145       0.13705414
Ni       9.02945975       2.20113317       0.03898222        4       1.00000000       0.00128556      -0.03982284      -0.01402878
Ni       2.59586757       4.51536406       0.20350089        4       1.00000000       0.03581925       0.12900541       0.09951992
Ni       5.12152644       4.51281054       0.20077079        4       1.00000000      -0.11810056       0.06942185       0.17789983
Pt       7.64794822       4.47864538      -0.00954613        4       0.00000000      -0.10327133       0.05471099      -0.19845739
Pt      10.38346189       4.43372305       0.04265805        4       0.00000000       0.00369932      -0.01029271      -0.06355191
Pt       3.86904018       6.75087781       0.12763835        4       0.00000000      -0.01811557       0.12233587      -0.16025236
Ni       6.40803582       6.75444264       0.09977659        4       1.00000000      -0.05153809       0.05868434       0.01403885
Pt       9.02253836       6.81894440      -0.01807309        4       0.00000000       0.00993826       0.12028448      -0.17679292
Ni      11.63521510       6.75229013       0.17825893        4       1.00000000       0.02885679       0.02402450       0.15364857
Ni       1.26223505       0.76919825       2.19311743        3       1.00000000       0.01663595      -0.01055074       0.05219979
Ni       3.85755566       0.75788943       2.23349391        3       1.00000000      -0.02348047       0.02361426       0.05672883
Ni       6.44578455       0.74883730       2.19380522        3       1.00000000       0.05507534      -0.00697466       0.08192407
Pt       9.06304530       0.68374642       2.16289124        3       0.00000000      -0.00188930      -0.00393180       0.04806121
Pt       2.46613422       3.04042390       2.21545839        3       0.00000000      -0.04287175       0.06739760       0.07157018
Pt       5.15445231       2.99841799       2.23108977        3       0.00000000       0.00525916      -0.00102293       0.12299094
Pt       7.76949861       2.95960906       2.19264291        3       0.00000000       0.01009505       0.01675099      -0.01795272
Ni      10.30684711       2.97046007       2.24208806        3       1.00000000      -0.02537484      -0.02013480       0.06580160
Ni       3.86851137       5.29204515       2.24417673        3       1.00000000      -0.00502409       0.05129194       0.02770673
Ni       6.38349935       5.28539224       2.24042798        3       1.00000000      -0.01317143       0.01017983       0.01221026
Pt       9.02921738       5.22568580       2.26852867        3       0.00000000       0.00016622       0.04340507      -0.12005364
Ni      11.63242315       5.26957603       2.20757161        3       1.00000000      -0.01489938       0.06667593       0.01486336
Ni       5.12207883       7.43413817       2.27101302        3       1.00000000      -0.02289237      -0.10330950       0.02772862
Pt       7.65250805       7.51724553       2.21963912        3       0.00000000       0.00844676       0.01322536      -0.03177768
Pt      10.39914219       7.54919765       2.22604249        3       0.00000000      -0.04101991       0.01833066       0.01658407
Ni      12.91960326       7.48811377       2.21302303        3       1.00000000       0.03319608       0.02978222      -0.01783781
Ni      -0.04207356       1.54914276       4.40129166        2       1.00000000      -0.01038146      -0.03920063      -0.02554217
Pt       2.48900713       1.50986654       4.35794503        2       0.00000000      -0.06823481       0.01035430      -0.03295945
Ni       5.17840006       1.49551278       4.37785353        2       1.00000000       0.06617786       0.00837554      -0.05534778
Pt       7.75814277       1.45416505       4.41504634        2       0.00000000       0.00205474       0.00419724       0.00779467
Ni       1.21555283       3.74709951       4.41452584        2       1.00000000      -0.00859761      -0.01641926      -0.03116556
Pt       3.84779230       3.80332356       4.39933520        2       0.00000000       0.01221881       0.04036047       0.04333148
Pt       6.49880977       3.83311952       4.41043849        2       0.00000000       0.01184401      -0.02083027      -0.00615981
Ni       9.05001935       3.72240429       4.44136010        2       1.00000000       0.06936998      -0.08160587      -0.10582809
Pt       2.59265549       6.09043952       4.36246078        2       0.00000000      -0.02309229       0.00461278       0.00378917
Ni       5.14809020       6.02641222       4.39557977        2       1.00000000       0.00731103      -0.05177871      -0.08416375
Ni       7.70781702       6.01175416       4.44911121        2       1.00000000      -0.00035482       0.04603845      -0.16053158
Pt      10.28748498       5.94146347       4.45033497        2       0.00000000       0.00984272       0.00171109      -0.07032840
Ni       3.84660123       8.22812219       4.45266988        2       1.00000000      -0.00416947      -0.01395372      -0.03664765
Pt       6.34665451       8.18528667       4.44372142        2       0.00000000      -0.03017595       0.01544968      -0.01318075
Pt       9.05187394       8.26171465       4.48266821        2       0.00000000      -0.01016967       0.04779007      -0.06734048
Ni      11.60414979       8.27457078       4.41686932        2       1.00000000       0.01528134      -0.00521097      -0.02251504
Pt      -0.08282201      -0.01136250       6.63315973        1       0.00000000      -0.00840476      -0.07917959       0.13441838
Ni       2.55326368      -0.02233730       6.58162330        1       1.00000000      -0.01819938      -0.08821967      -0.02341130
Ni       5.12997357       0.02544242       6.56110990        1       1.00000000       0.00749824      -0.00397336      -0.03052684
Ni       7.71358761       0.02445641       6.54704742        1       1.00000000       0.00192067      -0.08733594      -0.03608389
Pt       1.17756431       2.27717834       6.62309516        1       0.00000000       0.01383968      -0.05436573       0.09936500
Pt       3.86631313       2.18133654       6.51603099        1       0.00000000       0.05742184      -0.05583039       0.09994974
Pt       6.50745335       2.22838476       6.64526719        1       0.00000000       0.05678877      -0.01328028       0.17790139
Ni       9.00336570       2.30977291       6.54508501        1       1.00000000       0.04799244      -0.00874194      -0.07835417
Pt       2.51626031       4.55239124       6.65375195        1       0.00000000       0.00386389      -0.03560515       0.10762865
Pt       5.21420699       4.62949253       6.65812888        1       0.00000000       0.12334813       0.00502111       0.17702469
Ni       7.78995673       4.55149385       6.45841575        1       1.00000000       0.15752225      -0.00248332      -0.19208499
Ni      10.22273509       4.50850968       6.48556930        1       1.00000000      -0.00471830      -0.06291567      -0.07642310
Ni       3.85108112       6.77914507       6.53150880        1       1.00000000       0.00799340      -0.06064037      -0.18205931
Ni       6.48516565       6.76653925       6.59425858        1       1.00000000       0.12504993      -0.03388640      -0.06250986
Ni       8.94931144       6.73933775       6.48861967        1       1.00000000      -0.04004651      -0.08566409      -0.16402384
Pt      11.54808198       6.85087405       6.64436089        1       0.00000000      -0.06256588      -0.03325764       0.14657395
