102
Lattice="14.06201159801613 3.1160625793574216e-06 -1.3301758008065295e-08 3.1160625793574216e-06 14.062011630348772 4.96101812785929e-07 0.0 0.0 35.966009058573086" Properties=species:S:1:pos:R:3:tags:I:1:initial_magmoms:R:1:forces:R:3 energy=-573.6203002929688 free_energy=-573.6203002929688 stress="0.014267256613729408 9.719276553224003e-09 4.674875665742519e-09 9.719276553224003e-09 0.014267253637545935 7.112989143384961e-10 4.674875665742519e-09 7.112989143384961e-10 0.001839971489774903" pbc="T T T"
Pt       1.40620147       1.40620147       0.00000001        0       0.00000000      -0.00476731      -0.00476750       0.27371445
Pt       4.21860379       1.40620210       0.00000001        0       0.00000000      -0.00080303       0.00215457       0.26356378
Pt       7.03100612       1.40620272       0.00000001        0       0.00000000       0.00000488       0.00118303       0.26477069
Pt       9.84340843       1.40620334       0.00000000        0       0.00000000       0.00080722       0.00215505       0.26356292
Pt      12.65581074       1.40620397       0.00000000        0       0.00000000       0.00475241      -0.00477008       0.27371582
Pt       1.40620210       4.21860380       0.00000011        0       0.00000000       0.00215884      -0.00080333       0.26354104
Pt       4.21860442       4.21860442       0.00000011        0       0.00000000       0.00509146       0.00508727       0.25614589
Pt       7.03100674       4.21860505       0.00000010        0       0.00000000       0.00000319       0.00020151       0.26426780
Pt       9.84340905       4.21860567       0.00000010        0       0.00000000      -0.00509402       0.00506382       0.25614959
Pt      12.65581137       4.21860630       0.00000010        0       0.00000000      -0.00214739      -0.00082027       0.26354468
Pt       1.40620272       7.03100614       0.00000021        0       0.00000000       0.00117879       0.00000663       0.26475066
Pt       4.21860504       7.03100675       0.00000020        0       0.00000000       0.00019873      -0.00000370       0.26426807
Pt       7.03100736       7.03100738       0.00000020        0       0.00000000      -0.00001055      -0.00001228       0.26991645
Pt       9.84340967       7.03100800       0.00000020        0       0.00000000      -0.00021040       0.00000474       0.26426911
Pt      12.65581198       7.03100862       0.00000020        0       0.00000000      -0.00116027       0.00002084       0.26474941
Pt       1.40620334       9.84340845       0.00000031        0       0.00000000       0.00215911       0.00081056       0.26354545
Pt       4.21860567       9.84340907       0.00000030        0       0.00000000       0.00507202      -0.00507458       0.25614652
Pt       7.03100798       9.84340969       0.00000030        0       0.00000000       0.00000427      -0.00019444       0.26426774
Pt       9.84341030       9.84341032       0.00000030        0       0.00000000      -0.00506989      -0.00507255       0.25614646
Pt      12.65581261       9.84341095       0.00000030        0       0.00000000      -0.00215535       0.00080137       0.26354557
Pt       1.40620397      12.65581077       0.00000040        0       0.00000000      -0.00476014       0.00474568       0.27369365
Pt       4.21860629      12.65581139       0.00000040        0       0.00000000      -0.00081444      -0.00215756       0.26354706
Pt       7.03100861      12.65581201       0.00000040        0       0.00000000       0.00000251      -0.00117369       0.26474974
Pt       9.84341093      12.65581263       0.00000040        0       0.00000000       0.00080065      -0.00215900       0.26354563
Pt      12.65581324      12.65581327       0.00000039        0       0.00000000       0.00476188       0.00477090       0.27369159
Pt      -0.00000000       0.00000007       1.98866953        1       0.00000000       0.00000017       0.00001086      -0.30297887
Pt       2.81240232       0.00000069       1.98866953        1       0.00000000      -0.05413807       0.00000763      -0.21768843
Pt       5.62480464       0.00000131       1.98866952        1       0.00000000      -0.00394420      -0.00002837      -0.27145046
Pt       8.43720697       0.00000194       1.98866952        1       0.00000000       0.00394507      -0.00003923      -0.27145135
Pt      11.24960929       0.00000256       1.98866952        1       0.00000000       0.05414200       0.00000420      -0.21768865
Pt       0.00000061       2.81240239       1.98866963        1       0.00000000      -0.00000214      -0.05414214      -0.21768460
Pt       2.81240294       2.81240302       1.98866962        1       0.00000000      -0.02673597      -0.02674066      -0.26034829
Pt       5.62480526       2.81240364       1.98866962        1       0.00000000       0.00012600      -0.00120235      -0.27376494
Pt       8.43720759       2.81240426       1.98866962        1       0.00000000      -0.00011934      -0.00119397      -0.27376443
Pt      11.24960990       2.81240488       1.98866962        1       0.00000000       0.02673462      -0.02674120      -0.26035407
Pt       0.00000124       5.62480473       1.98866973        1       0.00000000      -0.00000428      -0.00400208      -0.27142406
Pt       2.81240356       5.62480534       1.98866972        1       0.00000000      -0.00119780       0.00012683      -0.27375582
Pt       5.62480589       5.62480598       1.98866972        1       0.00000000       0.00969777       0.00970106      -0.27693650
Pt       8.43720821       5.62480659       1.98866972        1       0.00000000      -0.00969913       0.00969480      -0.27693343
Pt      11.24961052       5.62480722       1.98866971        1       0.00000000       0.00117926       0.00011050      -0.27375185
Pt       0.00000187       8.43720706       1.98866983        1       0.00000000       0.00003336       0.00394764      -0.27143955
Pt       2.81240418       8.43720768       1.98866982        1       0.00000000      -0.00119588      -0.00012041      -0.27375293
Pt       5.62480651       8.43720830       1.98866982        1       0.00000000       0.00969804      -0.00969732      -0.27693057
Pt       8.43720883       8.43720891       1.98866982        1       0.00000000      -0.00970246      -0.00969951      -0.27692702
Pt      11.24961114       8.43720955       1.98866981        1       0.00000000       0.00118627      -0.00010866      -0.27376524
Pt       0.00000249      11.24960939       1.98866992        1       0.00000000       0.00000654       0.05413033      -0.21768086
Pt       2.81240480      11.24961001       1.98866992        1       0.00000000      -0.02674050       0.02673548      -0.26034904
Pt       5.62480714      11.24961062       1.98866992        1       0.00000000       0.00012028       0.00118602      -0.27375337
Pt       8.43720946      11.24961125       1.98866992        1       0.00000000      -0.00011752       0.00119576      -0.27375433
Pt      11.24961177      11.24961187       1.98866991        1       0.00000000       0.02673077       0.02673285      -0.26034558
Pt       1.38877882       1.38877908       3.96592551        2       0.00000000       0.00349813       0.00349433       0.00298594
Pt       4.21361865       1.40907401       3.93574653        2       0.00000000       0.00656886       0.00003750      -0.00063902
Pt       7.03100750       1.40844208       3.93814365        2       0.00000000      -0.00000822       0.00087487      -0.00191316
Pt       9.84839369       1.40907452       3.93574691        2       0.00000000      -0.00655673       0.00004037      -0.00065185
Pt      12.67323329       1.38878063       3.96592570        2       0.00000000      -0.00349912       0.00349480       0.00299111
Pt       1.40907403       4.21361877       3.93574862        2       0.00000000       0.00003940       0.00656708      -0.00066718
Pt       4.22331508       4.22331682       3.93838365        2       0.00000000      -0.00029025      -0.00029449       0.00045545
Pt       7.03100584       4.22177920       3.94248302        2       0.00000000       0.00000651      -0.00304310      -0.00431421
Pt       9.83869795       4.22331793       3.93838508        2       0.00000000       0.00028614      -0.00029508       0.00044364
Pt      12.65294055       4.21362022       3.93574844        2       0.00000000      -0.00004289       0.00657092      -0.00066090
Pt       1.40843977       7.03100587       3.93814179        2       0.00000000       0.00072081       0.00000673      -0.00194506
Pt       4.22177828       7.03100767       3.94248283        2       0.00000000      -0.00304177      -0.00000630      -0.00432110
Pt       7.03100786       7.03100727       3.94400026        2       0.00000000      -0.00000284       0.00000271      -0.00425872
Pt       9.84023405       7.03100807       3.94248384        2       0.00000000       0.00304621      -0.00000184      -0.00431556
Pt      12.65356284       7.03100871       3.93814234        2       0.00000000      -0.00072544       0.00010981      -0.00191063
Pt       1.40907542       9.84839431       3.93574800        2       0.00000000       0.00003550      -0.00656932      -0.00066464
Pt       4.22331749       9.83869742       3.93838576        2       0.00000000      -0.00029492       0.00029497       0.00044020
Pt       7.03100789       9.84023601       3.94248284        2       0.00000000       0.00000603       0.00304493      -0.00430958
Pt       9.83869858       9.83869819       3.93838627        2       0.00000000       0.00029526       0.00029356       0.00043717
Pt      12.65294101       9.84839726       3.93574748        2       0.00000000      -0.00003790      -0.00657164      -0.00065787
Pt       1.38878101      12.67323316       3.96592723        2       0.00000000       0.00350177      -0.00349294       0.00298770
Pt       4.21361943      12.65293959       3.93574702        2       0.00000000       0.00657195      -0.00004166      -0.00064404
Pt       7.03100838      12.65357103       3.93814383        2       0.00000000       0.00000979      -0.00071054      -0.00194332
Pt       9.84839812      12.65293955       3.93574728        2       0.00000000      -0.00657649      -0.00003696      -0.00066493
Pt      12.67323647      12.67323541       3.96592681        2       0.00000000      -0.00350486      -0.00349130       0.00298774
Pt      -0.00000041      -0.00000012       6.04879639        3       0.00000000       0.00000114      -0.00000019       0.00396848
Pt       2.84599722       0.00000125       5.87747242        3       0.00000000      -0.00456172      -0.00000084      -0.00491899
Pt       5.63056483      -0.00000165       5.87883833        3       0.00000000       0.00523929       0.00000059       0.00286660
Pt       8.43144829      -0.00000024       5.87883850        3       0.00000000      -0.00526650      -0.00001129       0.00287220
Pt      11.21601389      -0.00000106       5.87747278        3       0.00000000       0.00457877       0.00001978      -0.00492090
Pt       0.00000172       2.84599760       5.87747188        3       0.00000000      -0.00000833      -0.00457146      -0.00491041
Pt       2.82510413       2.82510515       5.87878764        3       0.00000000      -0.00121198      -0.00123766      -0.00014302
Pt       5.62665548       2.81290505       5.88310230        3       0.00000000      -0.00066720      -0.00133741       0.00125921
Pt       8.43535870       2.81290680       5.88310275        3       0.00000000       0.00065660      -0.00134879       0.00126457
Pt      11.23690697       2.82510579       5.87878704        3       0.00000000       0.00123280      -0.00121945      -0.00013733
Pt       0.00000085       5.63056708       5.87883799        3       0.00000000      -0.00001804       0.00524235       0.00286844
Pt       2.81290402       5.62665655       5.88310385        3       0.00000000      -0.00130854      -0.00060945       0.00126714
Pt       5.62553817       5.62553887       5.89033317        3       0.00000000      -0.00203824      -0.00205856      -0.00942731
Pt       8.43647391       5.62554023       5.89033311        3       0.00000000       0.00205700      -0.00206576      -0.00942394
Pt      11.24911004       5.62665423       5.88310467        3       0.00000000       0.00134337      -0.00065040       0.00126296
Pt       0.00000166       8.43144749       5.87883834        3       0.00000000      -0.00001584      -0.00526139       0.00286329
Pt       2.81290440       8.43535789       5.88310392        3       0.00000000      -0.00131283       0.00060866       0.00127065
Pt       5.62553970       8.43647427       5.89033270        3       0.00000000      -0.00204080       0.00205369      -0.00942618
Pt       8.43647782       8.43647768       5.89033286        3       0.00000000       0.00203693       0.00206197      -0.00941861
Pt      11.24911432       8.43536057       5.88310555        3       0.00000000       0.00129480       0.00059106       0.00127062
Pt       0.00000200      11.21601409       5.87747372        3       0.00000000      -0.00000013       0.00456616      -0.00491366
Pt       2.82510663      11.23690681       5.87878867        3       0.00000000      -0.00122166       0.00124807      -0.00014037
Pt       5.62665806      11.24910975       5.88310334        3       0.00000000      -0.00059176       0.00131163       0.00127488
Pt       8.43536157      11.24911349       5.88310527        3       0.00000000       0.00057521       0.00130018       0.00126478
Pt      11.23690777      11.23690759       5.87878951        3       0.00000000       0.00123616       0.00122596      -0.00013903
O       -0.00000039       0.00000222       8.17625147        0       0.00000000       0.00000116       0.00000038       0.03960228
O        0.00000009       0.00000010       9.43584564        0       0.00000000      -0.00000057      -0.00000020      -0.00163761
