102
Lattice="14.06201159801613 3.1160625793574216e-06 -1.3301758008065295e-08 3.1160625793574216e-06 14.062011630348772 4.96101812785929e-07 0.0 0.0 35.966009058573086" Properties=species:S:1:pos:R:3:tags:I:1:initial_magmoms:R:1:forces:R:3 energy=-573.6400756835938 free_energy=-573.6400756835938 stress="0.014305662773375902 -4.0462710919584155e-08 -1.2476837233127975e-06 -4.0462710919584155e-08 0.014305671701926325 -1.2459771044320122e-06 -1.2476837233127975e-06 -1.2459771044320122e-06 0.0017608554184612001" pbc="T T T"
Pt       1.40620147       1.40620147       0.00000001        0       0.00000000       0.00002849       0.00003627       0.26753971
Pt       4.21860379       1.40620210       0.00000001        0       0.00000000      -0.00104099       0.00002193       0.26605153
Pt       7.03100612       1.40620272       0.00000001        0       0.00000000       0.00053365       0.00000157       0.26471987
Pt       9.84340843       1.40620334       0.00000000        0       0.00000000      -0.00050056      -0.00000493       0.26474184
Pt      12.65581074       1.40620397       0.00000000        0       0.00000000       0.00102745       0.00000986       0.26597875
Pt       1.40620210       4.21860380       0.00000011        0       0.00000000       0.00002096      -0.00104185       0.26602119
Pt       4.21860442       4.21860442       0.00000011        0       0.00000000      -0.00018349      -0.00019018       0.26418120
Pt       7.03100674       4.21860505       0.00000010        0       0.00000000       0.00027158      -0.00009074       0.26471686
Pt       9.84340905       4.21860567       0.00000010        0       0.00000000      -0.00026692      -0.00012534       0.26472121
Pt      12.65581137       4.21860630       0.00000010        0       0.00000000       0.00019220      -0.00018704       0.26413363
Pt       1.40620272       7.03100614       0.00000021        0       0.00000000      -0.00000746       0.00052985       0.26470378
Pt       4.21860504       7.03100675       0.00000020        0       0.00000000      -0.00008980       0.00026683       0.26471463
Pt       7.03100736       7.03100738       0.00000020        0       0.00000000      -0.00005115      -0.00004998       0.26543689
Pt       9.84340967       7.03100800       0.00000020        0       0.00000000       0.00007150      -0.00005666       0.26547718
Pt      12.65581198       7.03100862       0.00000020        0       0.00000000       0.00011493       0.00030333       0.26467398
Pt       1.40620334       9.84340845       0.00000031        0       0.00000000      -0.00000743      -0.00049402       0.26472676
Pt       4.21860567       9.84340907       0.00000030        0       0.00000000      -0.00011233      -0.00024680       0.26471770
Pt       7.03100798       9.84340969       0.00000030        0       0.00000000      -0.00006291       0.00007930       0.26547843
Pt       9.84341030       9.84341032       0.00000030        0       0.00000000       0.00010779       0.00010493       0.26552129
Pt      12.65581261       9.84341095       0.00000030        0       0.00000000       0.00010233      -0.00027487       0.26467583
Pt       1.40620397      12.65581077       0.00000040        0       0.00000000       0.00001988       0.00102112       0.26595956
Pt       4.21860629      12.65581139       0.00000040        0       0.00000000      -0.00018232       0.00018316       0.26413912
Pt       7.03100861      12.65581201       0.00000040        0       0.00000000       0.00028682       0.00009763       0.26467448
Pt       9.84341093      12.65581263       0.00000040        0       0.00000000      -0.00026914       0.00010426       0.26467788
Pt      12.65581324      12.65581327       0.00000039        0       0.00000000       0.00017675       0.00018260       0.26408994
Pt      -0.00000000       0.00000007       1.98866953        1       0.00000000       0.00176576       0.00178681      -0.26698655
Pt       2.81240232       0.00000069       1.98866953        1       0.00000000      -0.00173226       0.00182248      -0.26702604
Pt       5.62480464       0.00000131       1.98866952        1       0.00000000       0.00387235      -0.00010688      -0.26815799
Pt       8.43720697       0.00000194       1.98866952        1       0.00000000      -0.00008719      -0.00152015      -0.27180102
Pt      11.24960929       0.00000256       1.98866952        1       0.00000000      -0.00422079      -0.00014194      -0.26840529
Pt       0.00000061       2.81240239       1.98866963        1       0.00000000       0.00181241      -0.00177599      -0.26705617
Pt       2.81240294       2.81240302       1.98866962        1       0.00000000      -0.00177903      -0.00181056      -0.26710981
Pt       5.62480526       2.81240364       1.98866962        1       0.00000000       0.00377015       0.00023872      -0.26803461
Pt       8.43720759       2.81240426       1.98866962        1       0.00000000      -0.00008307       0.00159571      -0.27171513
Pt      11.24960990       2.81240488       1.98866962        1       0.00000000      -0.00413298       0.00026639      -0.26827893
Pt       0.00000124       5.62480473       1.98866973        1       0.00000000      -0.00010689       0.00390592      -0.26815906
Pt       2.81240356       5.62480534       1.98866972        1       0.00000000       0.00023750       0.00380011      -0.26803607
Pt       5.62480589       5.62480598       1.98866972        1       0.00000000       0.00167347       0.00166980      -0.26629138
Pt       8.43720821       5.62480659       1.98866972        1       0.00000000      -0.00005296       0.00447424      -0.27070746
Pt      11.24961052       5.62480722       1.98866971        1       0.00000000      -0.00199489       0.00185435      -0.26653892
Pt       0.00000187       8.43720706       1.98866983        1       0.00000000      -0.00152285      -0.00008758      -0.27178535
Pt       2.81240418       8.43720768       1.98866982        1       0.00000000       0.00160200      -0.00009305      -0.27169105
Pt       5.62480651       8.43720830       1.98866982        1       0.00000000       0.00448549      -0.00004786      -0.27069652
Pt       8.43720883       8.43720891       1.98866982        1       0.00000000      -0.00002011      -0.00001833      -0.26876321
Pt      11.24961114       8.43720955       1.98866981        1       0.00000000      -0.00464141      -0.00004475      -0.27077407
Pt       0.00000249      11.24960939       1.98866992        1       0.00000000      -0.00014082      -0.00422832      -0.26838887
Pt       2.81240480      11.24961001       1.98866992        1       0.00000000       0.00026210      -0.00412575      -0.26827991
Pt       5.62480714      11.24961062       1.98866992        1       0.00000000       0.00186825      -0.00199641      -0.26655966
Pt       8.43720946      11.24961125       1.98866992        1       0.00000000      -0.00004907      -0.00462545      -0.27077526
Pt      11.24961177      11.24961187       1.98866991        1       0.00000000      -0.00219032      -0.00218933      -0.26681945
Pt       1.40621239       1.40621353       3.94361570        2       0.00000000       0.00000764       0.00000580      -0.00000264
Pt       4.21977125       1.40620306       3.94104716        2       0.00000000      -0.00048947      -0.00000459       0.00039019
Pt       7.03249409       1.40620428       3.94066566        2       0.00000000      -0.00027801      -0.00000075       0.00003034
Pt       9.84184518       1.40620232       3.94066803        2       0.00000000       0.00027191       0.00000043       0.00002415
Pt      12.65454532       1.40620471       3.94093644        2       0.00000000       0.00046630      -0.00000300       0.00038956
Pt       1.40620316       4.21976624       3.94104553        2       0.00000000      -0.00000228      -0.00049640       0.00039314
Pt       4.22058423       4.22059665       3.94130023        2       0.00000000      -0.00046997      -0.00046571       0.00029974
Pt       7.03250902       4.22005131       3.94096941        2       0.00000000      -0.00035465      -0.00054338      -0.00012423
Pt       9.84184394       4.22004967       3.94098161        2       0.00000000       0.00037092      -0.00052341      -0.00011605
Pt      12.65372768       4.22069284       3.94117020        2       0.00000000       0.00046158      -0.00045343       0.00030331
Pt       1.40620465       7.03249379       3.94066654        2       0.00000000      -0.00000060      -0.00027257       0.00002365
Pt       4.22005620       7.03250999       3.94097346        2       0.00000000      -0.00053264      -0.00032478      -0.00012183
Pt       7.03176400       7.03176419       3.94153457        2       0.00000000      -0.00022615      -0.00026218      -0.00055996
Pt       9.84263652       7.03175738       3.94154368        2       0.00000000       0.00022598      -0.00023898      -0.00055778
Pt      12.65434163       7.03254964       3.94096299        2       0.00000000       0.00052080      -0.00035999      -0.00010915
Pt       1.40620308       9.84184702       3.94066861        2       0.00000000      -0.00000504       0.00027189       0.00000665
Pt       4.22005079       9.84184307       3.94098034        2       0.00000000      -0.00051449       0.00032978      -0.00010060
Pt       7.03176159       9.84263860       3.94154419        2       0.00000000      -0.00033286       0.00021559      -0.00051084
Pt       9.84263770       9.84263954       3.94155211        2       0.00000000       0.00033764       0.00032062      -0.00044861
Pt      12.65434355       9.84181184       3.94097444        2       0.00000000       0.00052208       0.00030890      -0.00015220
Pt       1.40620503      12.65455143       3.94093564        2       0.00000000      -0.00000396       0.00041685       0.00039434
Pt       4.22069393      12.65371314       3.94117636        2       0.00000000      -0.00047539       0.00058544       0.00025176
Pt       7.03254585      12.65434808       3.94096194        2       0.00000000      -0.00028026       0.00046885      -0.00012182
Pt       9.84181376      12.65434360       3.94097510        2       0.00000000       0.00028363       0.00052497      -0.00013319
Pt      12.65362168      12.65362127       3.94104927        2       0.00000000       0.00047212       0.00046548       0.00028019
Pt      -0.01239068      -0.01239043       5.88162581        3       0.00000000       0.00101945       0.00103874       0.00150362
Pt       2.82459221      -0.01236727       5.88196750        3       0.00000000      -0.00104453       0.00102558       0.00151962
Pt       5.63187472      -0.00178042       5.88442327        3       0.00000000      -0.00092386       0.00032822       0.00028113
Pt       8.43716267      -0.00041764       5.88652566        3       0.00000000       0.00001401       0.00010393      -0.00024727
Pt      11.24252562      -0.00175610       5.88437116        3       0.00000000       0.00081808       0.00025832       0.00028601
Pt      -0.01237010       2.82459239       5.88196983        3       0.00000000       0.00103257      -0.00107972       0.00151888
Pt       2.82456818       2.82456881       5.88231075        3       0.00000000      -0.00099018      -0.00112664       0.00155020
Pt       5.63183246       2.81411222       5.88448155        3       0.00000000      -0.00084724      -0.00027225       0.00027269
Pt       8.43715743       2.81281401       5.88652330        3       0.00000000       0.00001152      -0.00011090      -0.00025159
Pt      11.24255994       2.81408188       5.88442795        3       0.00000000       0.00082715      -0.00025309       0.00027016
Pt      -0.00177615       5.63187701       5.88442280        3       0.00000000       0.00024160      -0.00083842       0.00027668
Pt       2.81411050       5.63183541       5.88448396        3       0.00000000      -0.00027058      -0.00083004       0.00028011
Pt       5.62747672       5.62747494       5.88631288        3       0.00000000      -0.00042531      -0.00042370      -0.00055736
Pt       8.43718603       5.62559583       5.88678290        3       0.00000000       0.00001099      -0.00035048      -0.00097060
Pt      11.24694010       5.62743953       5.88629978        3       0.00000000       0.00040900      -0.00040641      -0.00055072
Pt      -0.00042000       8.43716278       5.88652387        3       0.00000000       0.00011713      -0.00002145      -0.00023878
Pt       2.81281357       8.43716011       5.88652456        3       0.00000000      -0.00009334      -0.00001845      -0.00025752
Pt       5.62559810       8.43718573       5.88678533        3       0.00000000      -0.00034625       0.00002635      -0.00098211
Pt       8.43719112       8.43718927       5.88680703        3       0.00000000      -0.00000644       0.00000722      -0.00140333
Pt      11.24878705       8.43718349       5.88678809        3       0.00000000       0.00037452      -0.00001735      -0.00095960
Pt      -0.00175513      11.24252532       5.88437139        3       0.00000000       0.00025510       0.00084382       0.00027755
Pt       2.81408578      11.24256039       5.88442906        3       0.00000000      -0.00024125       0.00084306       0.00028265
Pt       5.62744022      11.24693663       5.88630138        3       0.00000000      -0.00039754       0.00040560      -0.00053445
Pt       8.43718388      11.24879106       5.88678948        3       0.00000000       0.00000063       0.00036714      -0.00097069
Pt      11.24697270      11.24696972       5.88629569        3       0.00000000       0.00039185       0.00043536      -0.00055176
O        1.41420345       1.41420263       8.41044764        0       0.00000000       0.00044136       0.00044637       0.04454895
O        1.42350165       1.42350294       9.65100285        0       0.00000000       0.00087218       0.00087128       0.04824489
