64
Lattice="10.374143951133892 -0.007948098305055868 0.02044284286746038 5.180188720522993 8.868642000008265 -0.02342881326562772 0.0 0.0 21.59058131003328" Properties=species:S:1:pos:R:3:tags:I:1:initial_magmoms:R:1:forces:R:3 unique_id=73dfa9923bfd40c2aa0ac06a6f3bb40a energy=-377.23212139638804 stress="0.006182535236700645 6.537312406430386e-05 1.7353481753607555e-05 6.537312406430386e-05 0.005005936200082944 4.333889986579385e-05 1.7353481753607555e-05 4.333889986579385e-05 -0.002179141370454942" pbc="T T T"
Ni      -0.01133054      -0.01687488       0.14326200        1       1.00000000      -0.00863167       0.06409900      -0.10852472
Ni       2.61095766      -0.01272844       0.16758904        2       1.00000000       0.06131547       0.04486668       0.04321341
Ni       5.18946904      -0.03514412       0.14505364        1       1.00000000      -0.01722313       0.05705223      -0.45906513
Ni       7.77100191      -0.07017313       0.17020786        2       1.00000000      -0.07086371      -0.11753677      -0.16121333
Pt       1.29936295       2.22472330       0.07264064        1       0.00000000      -0.00747418      -0.07158812       0.11148753
Pt       3.86713534       2.17020341       0.16098461        2       0.00000000       0.01136296      -0.02026114      -0.47066581
Pt       6.48246664       2.13147653       0.07694315        1       0.00000000       0.04959148      -0.04994794      -0.17043398
Pt       9.09952624       2.20072499       0.10024887        1       0.00000000       0.02144168       0.03939787      -0.57752267
Ni       2.56277185       4.48134050       0.01521596        0       1.00000000      -0.01483063       0.04650178       0.19531553
Pt       5.13661869       4.47311897       0.00000000        0       0.00000000       0.11719715      -0.00513967      -0.26547526
Pt       7.81503535       4.47870005       0.00930238        0       0.00000000      -0.10462584       0.08869185      -0.24536088
Ni      10.40516154       4.47332125       0.03636170        0       1.00000000       0.02845006       0.07517848       0.19683044
Ni       3.83663615       6.69022013       0.03644670        0       1.00000000      -0.06368337       0.10604871       0.32191809
Pt       6.47250874       6.75431343       0.06660965        1       0.00000000       0.02537417      -0.01148668       0.00824273
Ni       9.09911807       6.67787527       0.10357304        1       1.00000000      -0.07589555       0.03341518      -0.24147880
Ni      11.68742256       6.64814637       0.03451422        0       1.00000000       0.09053460       0.03509721       0.29447209
Ni       1.32869768       0.72411282       2.22379145        4       1.00000000       0.05647067       0.03097391       0.32277516
Ni       3.84806021       0.73420422       2.20397647        4       1.00000000      -0.23028174       0.02910661       0.18310652
Ni       6.49594812       0.73904142       2.20208208        4       1.00000000       0.06664734       0.09156433       0.20597464
Pt       9.09475956       0.72029421       2.23524937        4       0.00000000       0.09058683       0.18856893      -0.02177611
Ni       2.58412958       2.90761052       2.25661866        5       1.00000000      -0.02867630      -0.14213265       0.41848639
Ni       5.19793065       2.94148339       2.20941039        4       1.00000000       0.04377797       0.10793386       0.13514633
Ni       7.76405833       2.92969574       2.23561106        4       1.00000000      -0.01477195      -0.05493366       0.15134457
Ni      10.39766214       2.92120619       2.26318909        5       1.00000000       0.05364275      -0.11973868       0.37455651
Pt       3.89481590       5.17007573       2.21043870        4       0.00000000       0.02553868      -0.05039653      -0.05409461
Ni       6.48770548       5.17488752       2.20085717        4       1.00000000      -0.00007258       0.01275882       0.09741844
Pt       9.03945141       5.13354777       2.26921910        5       0.00000000      -0.09640691      -0.11318201       0.03776052
Pt      11.67820381       5.11135510       2.20696503        4       0.00000000      -0.02707775      -0.15437507       0.08375432
Ni       5.21561389       7.39618149       2.17382064        4       1.00000000       0.09456883       0.00019048       0.18792233
Ni       7.73372912       7.41235806       2.18088567        4       1.00000000      -0.18587310       0.03626173       0.20858512
Pt      10.37607710       7.42074861       2.10637469        3       0.00000000       0.03895677      -0.05028858       0.03376025
Ni      12.97731599       7.37710596       2.14447675        3       1.00000000       0.04331920      -0.04883669       0.02866141
Ni       0.06335448       1.50670840       4.32218143        6       1.00000000       0.17832464       0.05980524      -0.25401629
Ni       2.53361551       1.50222207       4.31188544        6       1.00000000      -0.12573106       0.05117501      -0.25498729
Pt       5.17551387       1.49192865       4.26125383        6       0.00000000      -0.10531064      -0.06559178      -0.13874064
Ni       7.80377136       1.48026645       4.34239070        6       1.00000000       0.02754360      -0.07429438      -0.26949271
Ni       1.30199621       3.66758967       4.36541836        7       1.00000000       0.00822596      -0.06048204      -0.08844356
Ni       3.83214718       3.70319977       4.32848161        6       1.00000000      -0.19020620      -0.02927989      -0.22154405
Pt       6.56571583       3.68457896       4.33473339        6       0.00000000       0.07799450      -0.06728445      -0.26969423
Ni       9.12980501       3.69063329       4.33832707        6       1.00000000       0.23894184      -0.04287463      -0.18349761
Ni       2.57941330       5.83893028       4.38924970        7       1.00000000      -0.03534568      -0.17786651       0.04967591
Pt       5.21801322       5.89540106       4.37897342        7       0.00000000       0.08826481      -0.00725025      -0.06325643
Ni       7.78514665       5.88195363       4.35262884        7       1.00000000      -0.02635713       0.03460976      -0.16985495
Ni      10.39386076       5.81905572       4.38625589        7       1.00000000       0.07077236      -0.15894696      -0.00587305
Pt       3.92816134       8.11492189       4.29445737        6       0.00000000      -0.02350646       0.04139458      -0.01548200
Ni       6.48710894       8.13478029       4.28868279        6       1.00000000      -0.04611846       0.16583626      -0.35202600
Pt       8.98984733       8.08363621       4.26525153        6       0.00000000      -0.05650572       0.02904220      -0.06473209
Pt      11.68832336       8.04082569       4.30495292        6       0.00000000      -0.06209488      -0.12206783       0.00273597
Pt       0.02615876      -0.05593722       6.53418873        9       0.00000000       0.06371700       0.09813167       0.27187552
Pt       2.57750480      -0.02243566       6.53284909        9       0.00000000       0.02825437       0.11094369       0.20452110
Pt       5.20758959      -0.03680443       6.58782496       10       0.00000000      -0.10841516       0.10701359       0.41731008
Pt       7.79515595      -0.07018386       6.59058131       10       0.00000000       0.00702203       0.16396247       0.33765376
Ni       1.29998361       2.24909211       6.40256579        8       1.00000000       0.00890798       0.12633605      -0.10628021
Pt       3.86385579       2.30913945       6.44141323        8       0.00000000      -0.12869782       0.13701580       0.41827463
Ni       6.49920686       2.22358673       6.44584652        8       1.00000000      -0.00246383      -0.01530322       0.11247791
Pt       9.10395555       2.27756903       6.39206430        8       0.00000000       0.00994440      -0.03903949       0.48144840
Ni       2.56965167       4.45029550       6.46444343        9       1.00000000      -0.04560243      -0.00810696      -0.40950400
Ni       5.19950050       4.43197044       6.42331977        8       1.00000000      -0.03843412      -0.03315650       0.19042320
Ni       7.76472852       4.40702034       6.41548897        8       1.00000000      -0.00699735      -0.00542492       0.19737758
Ni      10.43946705       4.40243123       6.47772802        9       1.00000000       0.16169587      -0.06540642      -0.36013331
Ni       3.87872033       6.56227086       6.49965544        9       1.00000000      -0.08305777      -0.10882590      -0.23819977
Ni       6.48664026       6.58095779       6.42920778        8       1.00000000       0.10620230       0.02170703       0.13291374
Pt       9.09467313       6.49691970       6.50766711        9       0.00000000       0.02971552      -0.10637700       0.06580842
Ni      11.70472742       6.54412733       6.50797545        9       1.00000000       0.00692932      -0.03725768      -0.28185901
