64
Lattice="10.47051138041902 0.004159123851041031 0.049482768312363284 5.238857597121999 9.090530297264236 -0.006350129119761607 0.04040251114188353 -0.029313359833028144 9.0408966502256" Properties=species:S:1:pos:R:3:tags:I:1:initial_magmoms:R:1:forces:R:3 unique_id=b939667a4b1245eca989efb0d87bf409 stress="-0.0005113678394112406 -3.0670465574259032e-06 -3.9857718192161065e-06 -3.0670465574259032e-06 -0.0005147810186437035 7.986781564986188e-06 -3.9857718192161065e-06 7.986781564986188e-06 -0.00039751321813611545" energy=-408.18545784900385 pbc="T T T"
Ni      -0.04295343      -0.02489136       0.16021304        4       1.00000000      -0.26262985      -0.10040394       0.25157219
Ni       2.63780816      -0.03546075       0.08061599        4       1.00000000       0.13933347      -0.11308031       0.13053632
Ni       5.25871328      -0.04288074       0.16199785        4       1.00000000       0.13810912      -0.05750752       0.24075371
Ni       7.87623538      -0.03508406       0.14492636        4       1.00000000       0.08131541      -0.15690996       0.24794953
Pt       1.25327592       2.23057692       0.10401666        4       0.00000000      -0.02839826      -0.04946048       0.09459143
Pt       3.96329388       2.23762222       0.12480805        4       0.00000000       0.04569413      -0.01199479       0.19889811
Pt       6.58910248       2.19789364       0.16987930        4       0.00000000       0.17160684      -0.14919853       0.04698199
Ni       9.15522224       2.24503772       0.18118480        4       1.00000000      -0.08472963      -0.13490484       0.28578020
Pt       2.61854830       4.62985052       0.09561898        4       0.00000000       0.05374275       0.10337659       0.09543277
Ni       5.25890522       4.55192339       0.15696583        4       1.00000000       0.21679168      -0.06859025       0.24863516
Pt       7.91585456       4.57182767       0.17557161        4       0.00000000       0.09151509      -0.05062147       0.08478413
Ni      10.46397280       4.58206998       0.09576761        4       1.00000000       0.01204730       0.13710370       0.10808930
Ni       3.92342316       6.86889169       0.16146515        4       1.00000000      -0.01165401       0.23786694       0.25660149
Pt       6.53977225       6.86577668       0.21016009        4       0.00000000       0.00889798       0.01024392       0.17697104
Ni       9.19206479       6.83015443       0.09602753        4       1.00000000       0.04173415       0.01133006       0.10432788
Ni      11.77660224       6.85654688       0.09648402        4       1.00000000       0.05291928       0.13937253       0.05682789
Pt       1.27513637       0.63685571       2.22211190        3       0.00000000       0.02136746      -0.01551386      -0.14455716
Pt       4.00307070       0.72294936       2.29102488        3       0.00000000       0.04300535       0.09989794       0.00509107
Ni       6.59248461       0.73620438       2.31308712        3       1.00000000       0.11834879      -0.06677133       0.04001273
Ni       9.12173294       0.71641749       2.26914881        3       1.00000000      -0.19459617      -0.03888089      -0.12506099
Pt       2.64549676       3.03435476       2.29567749        3       0.00000000      -0.06650435       0.04076582      -0.15263095
Ni       5.28363974       3.02609492       2.30756879        3       1.00000000       0.04437528      -0.03502069      -0.01076538
Pt       7.80268299       3.01400272       2.41298201        3       0.00000000      -0.13575518       0.00065126      -0.03495587
Pt      10.38723571       3.05202517       2.28854805        3       0.00000000      -0.11921499       0.04903126      -0.16239567
Pt       4.03295402       5.37072882       2.22146706        3       0.00000000       0.00266881       0.01998551      -0.06413034
Ni       6.59404161       5.30682116       2.29931177        3       1.00000000       0.22004868       0.01303055       0.05376218
Ni       9.13822177       5.32765109       2.33311807        3       1.00000000      -0.14509879       0.09318602       0.16935313
Pt      11.73676737       5.35909678       2.29214640        3       0.00000000       0.00015830       0.01809098      -0.07590831
Ni       5.22313505       7.57818205       2.24024827        3       1.00000000      -0.11507995       0.06380335      -0.00483469
Ni       7.87454654       7.51935307       2.28397313        3       1.00000000       0.08846268      -0.18910959       0.07003226
Pt      10.47506990       7.56142568       2.20810695        3       0.00000000       0.00235852      -0.03924417      -0.03563005
Ni      13.11899018       7.62677805       2.25831023        3       1.00000000      -0.03785823       0.12989211      -0.13008069
Pt      -0.07876488       1.53068240       4.43200224        2       0.00000000      -0.16146405       0.04882345      -0.06245103
Pt       2.66472560       1.46436839       4.48594703        2       0.00000000      -0.01618279       0.01245438       0.01308969
Ni       5.30865692       1.50584651       4.47713739        2       1.00000000       0.10055045       0.02023719      -0.22466333
Ni       7.83977894       1.52984359       4.49593732        2       1.00000000      -0.08331655       0.01860966      -0.10972445
Pt       1.21886427       3.83348761       4.49574574        2       0.00000000      -0.10429274       0.05222545       0.00997899
Pt       4.04281171       3.74152557       4.44636543        2       0.00000000       0.06809251      -0.02394338       0.03069213
Ni       6.61103144       3.75619774       4.49256699        2       1.00000000       0.07201479       0.02159484       0.04947669
Ni       9.14009064       3.81871429       4.50777218        2       1.00000000      -0.14499553       0.11893153      -0.13778179
Pt       2.59033309       6.08665074       4.46647233        2       0.00000000       0.00452454       0.04613679      -0.05246137
Pt       5.34916789       6.01117342       4.42965373        2       0.00000000       0.16064843      -0.02738968       0.08617023
Ni       7.92560913       6.00070093       4.46881197        2       1.00000000       0.09393360      -0.16210998      -0.26204492
Ni      10.43600776       6.03506359       4.56529958        2       1.00000000      -0.11554024      -0.03073915       0.00998565
Pt       3.92045309       8.35074793       4.39821104        2       0.00000000       0.01807295      -0.02999208      -0.13939112
Pt       6.58986406       8.28353797       4.44341376        2       0.00000000      -0.03975167      -0.08392416       0.01507332
Pt       9.19666273       8.22302747       4.53075619        2       0.00000000      -0.03723144      -0.12100974      -0.00199359
Pt      11.79259699       8.38700122       4.49477501        2       0.00000000      -0.03109936       0.08887804      -0.10222851
Pt       0.02027347      -0.02040197       6.78771685        1       0.00000000      -0.03544050       0.02019470       0.12627684
Ni       2.66410612      -0.03964365       6.74542469        1       1.00000000       0.03256684      -0.01093048      -0.13436592
Pt       5.26188339      -0.12064783       6.80328423        1       0.00000000      -0.01180698      -0.15654062       0.16797021
Ni       7.86264202      -0.02644776       6.76075868        1       1.00000000      -0.05442230       0.01088668      -0.13101233
Pt       1.32151627       2.25247196       6.67526405        1       0.00000000      -0.01327607       0.01391246      -0.27157629
Pt       3.96389572       2.19881866       6.67736489        1       0.00000000      -0.01208647      -0.05996560      -0.28570967
Pt       6.58931711       2.20516328       6.62472244        1       0.00000000      -0.02883812      -0.05397073      -0.13294184
Pt       9.17722371       2.26794941       6.77543849        1       0.00000000       0.01171844       0.01381109       0.11941736
Pt       2.57127908       4.56945660       6.67215466        1       0.00000000      -0.04872237       0.04290604      -0.29261553
Pt       5.28604723       4.53653875       6.75162241        1       0.00000000       0.00272457       0.09345310       0.08154236
Pt       7.96982666       4.57614767       6.62322230        1       0.00000000       0.03521768       0.05609718      -0.07891089
Ni      10.48348371       4.58596919       6.74141023        1       1.00000000      -0.03207738       0.18698251      -0.14154890
Pt       3.88170979       6.85046833       6.77803940        1       0.00000000      -0.11221958       0.07284667       0.14871013
Pt       6.66645181       6.83473482       6.69988391        1       0.00000000       0.09634930       0.10542784      -0.02977384
Ni       9.23268977       6.78556707       6.73020850        1       1.00000000       0.13692567      -0.10419298      -0.12834492
Ni      11.76466339       6.79763671       6.76138494        1       1.00000000      -0.14355728      -0.07011690      -0.16487775
