64
Lattice="10.528161808434087 -0.014987934587992404 0.02069110283424317 5.251100972113581 9.117713216202624 -0.011247306344005947 0.0 0.0 21.79910237326545" Properties=species:S:1:pos:R:3:tags:I:1:initial_magmoms:R:1:forces:R:3 unique_id=838c987a0dea46c79039e6c6b199da30 stress="0.005592397513985707 -9.402976365377486e-06 0.00023915208498441752 -9.402976365377486e-06 0.00579551465890717 -0.0003404107651498121 0.00023915208498441752 -0.0003404107651498121 -0.0015683013508122953" energy=-387.21126128540163 pbc="T T T"
Pt      -0.04718643       0.00944851       0.15301917        2       0.00000000      -0.03750128       0.11069370      -0.30758753
Ni       2.64562700       0.00302731       0.06906201        1       1.00000000      -0.06910888      -0.10723961       0.31191881
Ni       5.25867108       0.02665067       0.13254556        1       1.00000000       0.03642960      -0.01535718      -0.25304382
Ni       7.90303831       0.01742199       0.15096334        2       1.00000000       0.06934528       0.13230595      -0.08368225
Pt       1.34827293       2.25208716       0.00864547        0       0.00000000       0.08101336      -0.04817330      -0.12201759
Ni       3.98432694       2.25913723       0.06115870        1       1.00000000       0.18108873       0.06018306       0.40809526
Ni       6.55469502       2.29560584       0.14378415        1       1.00000000      -0.13165422       0.08835769      -0.03457730
Ni       9.17642563       2.27128387       0.15479898        2       1.00000000      -0.11669833      -0.14816846      -0.06002196
Pt       2.73042536       4.56506868       0.11823475        1       0.00000000       0.26224492       0.10034349      -0.83696476
Ni       5.28904437       4.51558707       0.17737570        2       1.00000000       0.10797130      -0.11715218       0.25640176
Ni       7.87221243       4.51820601       0.06169302        1       1.00000000      -0.12254956      -0.01759093       0.36528796
Ni      10.49771049       4.53313568       0.14125199        1       1.00000000       0.03061978       0.00500472      -0.08554482
Ni       3.95513292       6.83422512       0.14083508        1       1.00000000       0.06405465      -0.08992434      -0.00734127
Pt       6.56300136       6.76838070       0.15546331        2       0.00000000       0.11748455      -0.16205411      -0.40532302
Pt       9.18993517       6.84611715       0.00000000        0       0.00000000      -0.05979946       0.11580646      -0.15617929
Pt      11.86204718       6.87810550       0.00519574        0       0.00000000       0.03287650       0.05270618      -0.22123217
Ni       1.32613622       0.71909139       2.27258128        4       1.00000000       0.09180924      -0.02573575       0.17490901
Pt       3.90231494       0.74157673       2.17586445        3       0.00000000      -0.03568952      -0.03191220       0.03821770
Pt       6.58431406       0.78214129       2.17251669        3       0.00000000      -0.07825599      -0.01750162       0.12887940
Ni       9.21534304       0.73948252       2.27315773        4       1.00000000      -0.06396083       0.03470878       0.20470991
Pt       2.68937236       3.01618785       2.26177624        4       0.00000000      -0.02382099      -0.04243139       0.17579253
Ni       5.27133255       3.07338463       2.22732182        3       1.00000000      -0.11003749       0.07162365       0.05045540
Pt       7.81755081       3.06466093       2.20450782        3       0.00000000      -0.03631527       0.09977734       0.10861353
Pt      10.50274767       2.94856255       2.21712458        3       0.00000000      -0.02224584      -0.08294489       0.12665430
Ni       4.00941517       5.30525087       2.23496694        3       1.00000000       0.17822207       0.05863919       0.19500400
Ni       6.53478735       5.27941081       2.25810711        4       1.00000000      -0.14250087      -0.04736924       0.20130470
Pt       9.13093717       5.32633239       2.22300353        3       0.00000000      -0.18884768       0.00220795       0.03544197
Pt      11.84136391       5.30517432       2.27570619        4       0.00000000      -0.05952996      -0.00843485       0.27592629
Pt       5.31369790       7.61253695       2.31869653        4       0.00000000       0.02148051       0.01282813       0.29888437
Ni       7.86113980       7.60719902       2.27588628        4       1.00000000      -0.00440841       0.07124075       0.19104539
Pt      10.48931768       7.58836790       2.27993817        4       0.00000000      -0.02012881       0.01120403       0.20611116
Pt      13.22891879       7.60681976       2.25258399        4       0.00000000       0.10390492      -0.01909885       0.17580156
Pt       0.00518568       1.43051333       4.42199632        5       0.00000000      -0.02717775      -0.01058396      -0.30135726
Pt       2.61818204       1.46223666       4.55825476        7       0.00000000       0.02714755       0.05705361      -0.07877780
Pt       5.27716865       1.52882943       4.48300402        6       0.00000000      -0.00225287      -0.05565663      -0.22053909
Pt       7.91466846       1.48503317       4.45890713        6       0.00000000      -0.00777421      -0.00559112      -0.20187906
Pt       1.28185523       3.78737253       4.49641065        6       0.00000000      -0.11571056      -0.08255406      -0.27345833
Pt       4.00993017       3.79082042       4.44124514        5       0.00000000       0.01733832      -0.03570049      -0.15516676
Ni       6.58773031       3.79352295       4.47684847        6       1.00000000       0.01583456      -0.02273429      -0.18121249
Pt       9.16893007       3.80525102       4.50239594        6       0.00000000      -0.09194691      -0.05545034      -0.15938867
Pt       2.63432180       6.09174126       4.47582898        6       0.00000000       0.03270991       0.01885839      -0.20505601
Pt       5.28599325       6.08409605       4.43119666        5       0.00000000      -0.02248271       0.06460237      -0.14441883
Pt       7.88719334       6.05168654       4.46782467        6       0.00000000      -0.00550510      -0.14705166      -0.18355795
Ni      10.51864889       6.06429925       4.52994330        6       1.00000000      -0.01485442      -0.01650747      -0.24086458
Ni       3.96512704       8.34629964       4.46711654        6       1.00000000      -0.01754163      -0.07259200      -0.23030200
Ni       6.57732010       8.33974464       4.46433116        6       1.00000000       0.02227775      -0.02135988      -0.24422332
Pt       9.15291570       8.30425349       4.51596535        6       0.00000000      -0.06952470       0.00279769      -0.14804280
Pt      11.83083357       8.30976679       4.51416526        6       0.00000000      -0.04374451       0.01606033      -0.14063625
Pt       0.08849583       0.00754959       6.65009636        9       0.00000000       0.01186690      -0.14322022       0.44016334
Ni       2.65007685       0.00724025       6.72288122        9       1.00000000      -0.06304230      -0.01104027      -0.21397881
Pt       5.18666209      -0.05004911       6.79910237       10       0.00000000       0.00960215      -0.02392282       0.05529109
Pt       7.89307028      -0.04493202       6.77220176       10       0.00000000       0.09680803       0.05394160       0.12383528
Ni       1.34513662       2.25365370       6.63820937        8       1.00000000      -0.05603750       0.04358484       0.14682145
Ni       3.92959404       2.23421625       6.73636353        9       1.00000000      -0.00888639       0.04767909      -0.26340898
Pt       6.57000982       2.28101492       6.79173675       10       0.00000000      -0.01593301      -0.05567083       0.01129904
Pt       9.24651661       2.29550617       6.79751962       10       0.00000000       0.10740692      -0.00353015       0.03645160
Pt       2.62460649       4.48840790       6.67547940        9       0.00000000       0.04240489       0.00576168       0.78157001
Pt       5.30275421       4.52617330       6.75735194       10       0.00000000       0.00034517       0.12681353      -0.08548679
Ni       7.90718809       4.55089382       6.73182670        9       1.00000000      -0.03623832      -0.03255766      -0.23362186
Pt      10.48828066       4.62750969       6.76771511       10       0.00000000       0.07172472       0.13694473       0.04668403
Pt       3.93730649       6.82493813       6.74855515        9       0.00000000       0.12700574      -0.02585577       0.17546654
Pt       6.68584361       6.84144389       6.67679794        9       0.00000000      -0.02959348       0.19189991       0.44627516
Ni       9.22411957       6.80981140       6.62693421        8       1.00000000       0.07361609       0.04583118       0.08112385
Ni      11.81443705       6.80915559       6.63570143        8       1.00000000      -0.08333435      -0.03679149       0.20445704
