64
Lattice="10.021230578183758 0.0057739750310266055 -0.005346756289486889 5.015615698149562 8.660899864292798 0.0013574087959903737 0.0 0.0 21.3482898428743" Properties=species:S:1:pos:R:3:tags:I:1:initial_magmoms:R:1:forces:R:3 unique_id=8a5a82fe8a7146df9dc00fc680b13f0a energy=-361.1483628140162 stress="0.002385717237894521 -4.128004019147506e-05 -2.2051691099965168e-05 -4.128004019147506e-05 0.002271899175930972 5.752854590666633e-05 -2.2051691099965168e-05 5.752854590666633e-05 -0.0035787776907155056" pbc="T T T"
Ni       0.00558608       0.00728305       0.07252916        1       1.00000000      -0.00017226      -0.01361049      -0.02928522
Ni       2.47573979      -0.02834302       0.06919614        1       1.00000000       0.00672273       0.07023075       0.02152137
Ni       5.00799315      -0.01788378       0.01476705        0       1.00000000      -0.06636277       0.06997520      -0.35827861
Ni       7.54727576       0.02476745       0.01644637        0       1.00000000       0.08895192       0.04101136      -0.25609464
Ni       1.20779877       2.16726754       0.07306867        1       1.00000000       0.06805771       0.01900405       0.08678720
Pt       3.74505266       2.17469737       0.02505701        0       0.00000000      -0.02051387       0.00760259      -0.11118326
Ni       6.31041077       2.21258790       0.00772583        0       1.00000000      -0.04528749       0.08503460      -0.04093301
Ni       8.78130924       2.17443235       0.06545210        1       1.00000000       0.00520223       0.00456809       0.00791817
Ni       2.48094792       4.36255165       0.06396804        1       1.00000000       0.02285034      -0.01944640       0.14422637
Ni       5.01730734       4.36095429       0.03040089        0       1.00000000      -0.03437114      -0.04099602      -0.01237381
Ni       7.54358565       4.32562488       0.03588267        0       1.00000000       0.01659687       0.02112652      -0.04795153
Ni      10.02177743       4.32600200       0.06295453        1       1.00000000      -0.00326194       0.01386671       0.07903667
Ni       3.80401658       6.47860071       0.01425180        0       1.00000000       0.08749150      -0.03521611      -0.15097393
Ni       6.26667711       6.52077546       0.03059199        0       1.00000000      -0.00356871      -0.00086953       0.04924395
Ni       8.73233566       6.47057525       0.01166097        0       1.00000000      -0.08560222      -0.09421364      -0.12650171
Ni      11.27443333       6.46708141       0.00000000        0       1.00000000      -0.01245950      -0.07908751      -0.23289664
Ni       1.26598567       0.72782912       2.08119805        3       1.00000000       0.04815257       0.08803171      -0.00479001
Ni       3.69270260       0.75104484       2.13246323        3       1.00000000      -0.08294708       0.12628267       0.05588732
Pt       6.26270662       0.81598063       2.08983579        3       0.00000000      -0.02125139       0.13059933      -0.10074857
Ni       8.82266679       0.76381595       2.06936527        3       1.00000000       0.08968998       0.02351682       0.03504962
Ni       2.48165169       2.89793402       2.15182287        4       1.00000000      -0.00974488      -0.04241582       0.07501162
Ni       4.96905730       2.92173710       2.15587169        4       1.00000000      -0.11982584      -0.02418822       0.11501091
Ni       7.56155834       2.90985906       2.08289340        3       1.00000000       0.01650468      -0.03145963      -0.01680309
Ni      10.04095610       2.89997789       2.06738369        3       1.00000000       0.06052534      -0.02265329       0.00973980
Ni       3.74784992       4.98959876       2.12114043        3       1.00000000      -0.04341507      -0.10033643       0.05963535
Pt       6.26258294       5.05630439       2.12451238        3       0.00000000      -0.02444335      -0.01670436      -0.05317680
Ni       8.77751453       5.01212931       2.07484479        3       1.00000000       0.01048395      -0.04775559      -0.02239087
Ni      11.27643145       4.97649133       2.11309189        3       1.00000000       0.01136099      -0.11164825       0.09678117
Ni       5.06527946       7.25055665       2.08511189        3       1.00000000       0.00479520       0.04086194      -0.00447076
Ni       7.46711734       7.24926449       2.08686028        3       1.00000000      -0.02358125       0.05343513       0.02165239
Pt       9.95996153       7.16115999       2.05758677        3       0.00000000      -0.10077770      -0.04752398      -0.14280082
Pt      12.59128776       7.15812417       2.04702271        2       0.00000000       0.09837941      -0.11089853      -0.16401112
Pt       0.07366643       1.46520705       4.21377952        5       0.00000000       0.08744333      -0.01275755       0.03841034
Ni       2.53488191       1.50624728       4.21632854        5       1.00000000       0.03102599       0.11364488      -0.11237000
Ni       4.99201791       1.51967941       4.23839499        5       1.00000000      -0.01605237       0.07005159      -0.10711985
Ni       7.49184507       1.48842670       4.25425291        6       1.00000000       0.02583541       0.05538380      -0.00461700
Ni       1.31171754       3.64309015       4.22678054        5       1.00000000       0.02986275       0.01338171      -0.07347831
Ni       3.75560010       3.61940721       4.22000220        5       1.00000000       0.00283786       0.04076839      -0.10604441
Ni       6.21171109       3.60458777       4.25270720        6       1.00000000      -0.03492788      -0.01684223      -0.04824796
Pt       8.73955222       3.66571437       4.22035623        5       0.00000000      -0.02516408       0.07404887       0.04307283
Ni       2.51644365       5.69146968       4.24728495        5       1.00000000       0.07713215      -0.05007246      -0.05769975
Ni       5.02407136       5.71725811       4.25599152        6       1.00000000      -0.03768917      -0.11664988       0.01926220
Ni       7.47019469       5.78364667       4.25521959        6       1.00000000      -0.07417068      -0.02261795       0.02034875
Ni      10.04563343       5.74836082       4.25018550        6       1.00000000       0.00392889      -0.03807123      -0.00661064
Pt       3.81995740       7.88292007       4.26446003        6       0.00000000       0.07088593      -0.04573880       0.07430801
Ni       6.27067351       7.90533914       4.22653798        5       1.00000000      -0.00102342      -0.03263463      -0.08615249
Pt       8.68927817       7.95997391       4.25828308        6       0.00000000      -0.08263623       0.04517709       0.07979614
Pt      11.26719753       7.94058228       4.30049166        6       0.00000000       0.02056684       0.01639206       0.15376297
Ni       0.02379648      -0.00638908       6.34828984        8       1.00000000       0.02694325       0.01383542       0.09763070
Ni       2.47098758       0.01971206       6.32434968        8       1.00000000      -0.04975328       0.08953446       0.02004746
Ni       4.99309682       0.03488568       6.32863569        8       1.00000000      -0.07236429       0.10685153       0.27914074
Ni       7.52128377       0.03119754       6.33300100        8       1.00000000       0.05440819       0.04658506       0.30199575
Ni       1.27918658       2.18812782       6.31416931        8       1.00000000       0.09627551       0.06295062       0.00176346
Ni       3.75731963       2.18205852       6.18584559        7       1.00000000      -0.00440068       0.03084331       0.37086051
Ni       6.25421045       2.18100895       6.26894115        8       1.00000000      -0.03882166       0.04126867      -0.01388711
Ni       8.75144767       2.16972699       6.32729186        8       1.00000000       0.00536763       0.01207760       0.01566036
Ni       2.51160860       4.32895693       6.27789864        8       1.00000000       0.04973004      -0.06978338      -0.13479213
Ni       5.00692147       4.33112693       6.27069316        8       1.00000000      -0.05941696      -0.07366266      -0.07008928
Ni       7.48220806       4.34746928       6.30726218        8       1.00000000      -0.04480071       0.00102710       0.01479732
Ni      10.04356277       4.34519274       6.30955838        8       1.00000000       0.03156293      -0.03061386      -0.04679528
Ni       3.76199608       6.45043754       6.31322966        8       1.00000000       0.02627221      -0.11519590       0.12238958
Ni       6.26026365       6.49006723       6.28032165        8       1.00000000      -0.03588232       0.02553638      -0.05381432
Ni       8.76384126       6.47229656       6.30321035        8       1.00000000      -0.03359626      -0.09717893       0.08291976
Ni      11.27826866       6.45840935       6.30799806        8       1.00000000       0.03244212      -0.09366273       0.20371416
