64
Lattice="10.214262714599869 0.009795598801958695 -0.04344152134332282 5.1156145947077105 8.811720606798211 -0.04129539892780084 0.0 0.0 21.491835002107056" Properties=species:S:1:pos:R:3:tags:I:1:initial_magmoms:R:1:forces:R:3 unique_id=a6215e50b9dc440b8198e6c334e5114a stress="0.005075317668083931 4.786385585289282e-05 -0.0003904720480732481 4.786385585289282e-05 0.004358543582749154 -2.4207005097977894e-05 -0.0003904720480732481 -2.4207005097977894e-05 -0.002307025062726847" energy=-371.1910490627642 pbc="T T T"
Ni       0.00282217       0.01392595       0.17640717        2       1.00000000       0.11861091      -0.02479581      -0.28852290
Ni       2.53759698       0.00214870       0.18961751        2       1.00000000      -0.06360552       0.02588229      -0.12550285
Ni       5.10654768      -0.00385893       0.14480790        1       1.00000000      -0.01414502       0.19208470      -0.48335702
Ni       7.65448857      -0.03603448       0.14040066        1       1.00000000      -0.09897861      -0.07940025      -0.32310947
Ni       1.23677069       2.21008990       0.10164776        1       1.00000000      -0.03934474       0.01390235       0.37015359
Pt       3.76698502       2.22113627       0.16204300        2       0.00000000      -0.03481242       0.00517632      -0.57985440
Pt       6.43162567       2.21778272       0.06804150        1       0.00000000      -0.01154395      -0.09730177      -0.17701241
Ni       8.97440094       2.23621758       0.10666623        1       1.00000000       0.03297394       0.15926702      -0.18448800
Ni       2.54910322       4.43552456       0.04482202        0       1.00000000       0.00763916      -0.00796568       0.19269416
Ni       5.08576257       4.42745085       0.07277322        1       1.00000000      -0.08883384      -0.04264185       0.19903167
Ni       7.67732207       4.40543976       0.03158873        0       1.00000000       0.03068913       0.01436831       0.07000532
Ni      10.22309167       4.39598203       0.00942844        0       1.00000000       0.01636507      -0.05098687       0.22066995
Ni       3.79966568       6.59923838       0.07384528        1       1.00000000      -0.03999573       0.01071914       0.28006788
Pt       6.37028860       6.60598863       0.05659123        1       0.00000000       0.01838428       0.11225985      -0.08278130
Ni       8.94925508       6.61374672       0.09319004        1       1.00000000      -0.10027773       0.00221627      -0.39864872
Ni      11.51617416       6.61176200       0.00000000        0       1.00000000       0.05944382      -0.01012708       0.17144850
Ni       1.29479605       0.74586123       2.19449801        4       1.00000000       0.03227615       0.06460543       0.18057324
Ni       3.77413837       0.74485362       2.17396409        4       1.00000000      -0.14411566      -0.02227967       0.11112791
Ni       6.39036215       0.75163278       2.16579487        4       1.00000000       0.04585936       0.04654113       0.17050346
Pt       8.94644928       0.77650845       2.12603546        3       0.00000000       0.07479977       0.10687057       0.02274329
Ni       2.53248763       2.90522138       2.23297551        4       1.00000000       0.01410129      -0.13025798       0.20739082
Ni       5.09478047       2.97832059       2.17493680        4       1.00000000      -0.07036510       0.12456273       0.07071744
Ni       7.64894880       2.93513182       2.16919430        4       1.00000000      -0.02228158       0.00308922       0.13108300
Ni      10.24154399       2.91534602       2.14781281        3       1.00000000       0.15913936      -0.04108548       0.19438573
Ni       3.85470335       5.12557368       2.13358694        3       1.00000000       0.02609265      -0.07292677      -0.08510239
Ni       6.34642424       5.12841962       2.13746119        3       1.00000000      -0.03646189      -0.03578202      -0.00926723
Pt       8.88149447       5.09580642       2.15393976        4       0.00000000      -0.01045432      -0.03914127       0.05140892
Pt      11.55867979       5.09276747       2.13943938        3       0.00000000       0.09740404      -0.11260233       0.08581905
Ni       5.11092987       7.32749174       2.14468450        3       1.00000000      -0.00773601      -0.01617920       0.06373513
Ni       7.60583440       7.36799053       2.14183747        3       1.00000000      -0.17374343      -0.00534119       0.16964495
Pt      10.25320611       7.38121550       2.09830199        3       0.00000000       0.05772187      -0.00517596       0.09086864
Ni      12.79481271       7.32950336       2.08740064        3       1.00000000       0.12931200      -0.09066070       0.00524869
Ni       0.02802887       1.50502520       4.30851904        6       1.00000000       0.07893295       0.04781141      -0.11698891
Ni       2.46874902       1.50264128       4.26484722        6       1.00000000      -0.10295828       0.02577601      -0.16758940
Pt       5.10130045       1.46748571       4.20358583        5       0.00000000      -0.03344289      -0.06414748      -0.06270295
Ni       7.66963819       1.47809539       4.27724942        6       1.00000000       0.12156127      -0.02673894      -0.16764066
Ni       1.26478311       3.65149124       4.34368977        6       1.00000000       0.03692421      -0.05993455      -0.04370127
Ni       3.75046361       3.70039487       4.25773521        6       1.00000000      -0.12767979      -0.00765824      -0.28357508
Pt       6.44368956       3.67797967       4.27963537        6       0.00000000       0.06627165      -0.04220481      -0.05313954
Ni       8.97915734       3.68161800       4.27601080        6       1.00000000       0.19979351      -0.02550353      -0.09411705
Ni       2.50580014       5.82974531       4.34479218        6       1.00000000      -0.05902561      -0.05585607      -0.03950635
Pt       5.08001334       5.85355308       4.27873792        6       0.00000000      -0.03361108      -0.04749434      -0.11260655
Ni       7.65353871       5.85607334       4.27836988        6       1.00000000       0.00738943       0.00443842      -0.17906913
Ni      10.24454215       5.81943210       4.30005496        6       1.00000000       0.08814192      -0.05541608      -0.05427391
Pt       3.78926763       8.06382891       4.23294958        5       0.00000000      -0.06434699       0.04527266       0.06890572
Ni       6.36522040       8.08668134       4.22815611        5       1.00000000      -0.11681377       0.11466002      -0.31072976
Pt       8.87142040       8.03541205       4.20502913        5       0.00000000      -0.06274174       0.01587109      -0.00051050
Ni      11.48825733       8.02777836       4.24229254        5       1.00000000      -0.05871015      -0.09094303      -0.10678141
Pt      -0.01556826      -0.04370787       6.49183500        9       0.00000000       0.04640132       0.04460348       0.26483609
Pt       2.50793891      -0.00074297       6.47642245        9       0.00000000       0.01150405       0.06674609       0.29725909
Pt       5.10190082      -0.02787076       6.48837841        9       0.00000000       0.00098209       0.03000698       0.47298856
Pt       7.63089388      -0.04906327       6.46608989        9       0.00000000      -0.06800051       0.10530280       0.37118220
Ni       1.24851774       2.25730682       6.42013140        8       1.00000000       0.05676299       0.07181177      -0.23018981
Pt       3.78080158       2.31903459       6.37000615        8       0.00000000      -0.07533801       0.08892402       0.54431909
Ni       6.36936845       2.23789406       6.36504051        8       1.00000000      -0.01632320      -0.02221049       0.33276245
Pt       8.93128391       2.29717253       6.40165174        8       0.00000000      -0.02400651      -0.09395855       0.03221703
Ni       2.50275371       4.44217892       6.41121931        8       1.00000000       0.04384279      -0.00918918      -0.30747205
Ni       5.09512339       4.43476991       6.43844293        8       1.00000000      -0.01977436       0.02109978      -0.16938087
Ni       7.60673366       4.39988345       6.41801656        8       1.00000000      -0.07830113      -0.00924358      -0.00188569
Ni      10.26227469       4.39537253       6.37761934        8       1.00000000       0.14780994      -0.03163115      -0.22828419
Ni       3.79570444       6.52249095       6.43741687        8       1.00000000      -0.01632402      -0.07412991      -0.19227420
Ni       6.35772652       6.54739084       6.34253161        7       1.00000000       0.07154609       0.02996774       0.19378417
Pt       8.93158454       6.46232879       6.42703741        8       0.00000000       0.02969626      -0.04021050       0.21272106
Ni      11.50583659       6.53048863       6.37165374        8       1.00000000      -0.01427972       0.04728473      -0.19023082
