64
Lattice="10.175305190400266 0.002412724281229895 0.03101072130175327 5.089742075720003 8.764798843438626 -0.04391793678696144 0.0 0.0 21.47258868626836" Properties=species:S:1:pos:R:3:tags:I:1:initial_magmoms:R:1:forces:R:3 unique_id=5bde4f290f7745358055262b2b962333 stress="0.002132779661570024 -6.994435159318692e-05 0.00031505471343117893 -6.994435159318692e-05 0.0015592893459738383 -0.0002903505098646157 0.00031505471343117893 -0.0002903505098646157 -0.005089856321501914" energy=-369.9770151766047 pbc="T T T"
Ni       0.04487947      -0.04978246       0.14464819        1       1.00000000       0.08998562       0.00106187      -0.46430945
Ni       2.50179497      -0.03113706       0.15238586        2       1.00000000       0.05146408       0.00417390      -0.15534148
Pt       5.11339447      -0.03459857       0.12645995        1       0.00000000      -0.10604669       0.15554210      -0.98284907
Ni       7.64923524      -0.05308332       0.15517167        2       1.00000000      -0.05491383      -0.09439274      -0.45837038
Ni       1.27034308       2.20312629       0.06797121        1       1.00000000      -0.02725369       0.01356266       0.26240365
Pt       3.77261684       2.25160153       0.14334986        1       0.00000000      -0.00156642      -0.06051294      -0.71401639
Ni       6.36927079       2.23390393       0.07689640        1       1.00000000      -0.03121860       0.00977197       0.14164427
Pt       8.91653801       2.24615548       0.10676790        1       0.00000000       0.04577205       0.16538715      -0.95079510
Ni       2.51965438       4.42144370       0.03537286        0       1.00000000       0.04046898       0.00531737       0.38602163
Ni       5.08318563       4.41353468       0.00000000        0       1.00000000      -0.14032612       0.00808483       0.09681856
Ni       7.63119135       4.40994424       0.01736670        0       1.00000000       0.12726353      -0.01237602       0.04073715
Ni      10.21543342       4.41605839       0.06478451        1       1.00000000      -0.01795216      -0.00342917       0.33301073
Ni       3.82219411       6.54835472       0.02576389        0       1.00000000       0.03332580      -0.00372808       0.32281249
Ni       6.35354434       6.58725143       0.00587683        0       1.00000000      -0.00453583       0.09260154       0.14261689
Ni       8.87537737       6.51738789       0.14224803        1       1.00000000      -0.07540911      -0.01631196      -0.33230986
Ni      11.48872903       6.51531922       0.03394163        0       1.00000000       0.02972883       0.03827552       0.28666114
Ni       1.32429368       0.72203299       2.12060623        4       1.00000000      -0.00936643       0.11683534       0.09115077
Ni       3.75323849       0.71318548       2.16207385        5       1.00000000      -0.11634328      -0.07616420       0.19609260
Ni       6.38489252       0.74301294       2.15277163        5       1.00000000       0.03005795       0.04061740       0.08260584
Pt       8.89899175       0.69476664       2.15656805        5       0.00000000       0.04794992      -0.13314838       0.18313505
Ni       2.51419146       2.93956425       2.19433571        5       1.00000000      -0.02177262       0.01982717       0.13179521
Ni       5.07950534       2.92263671       2.13593472        4       1.00000000      -0.01635381       0.00686980       0.08157823
Ni       7.63059769       2.91981644       2.17255164        5       1.00000000      -0.02852049      -0.00923612       0.15365635
Ni      10.23493931       2.97141486       2.16002157        5       1.00000000       0.10739467       0.03127510       0.09985188
Ni       3.77413989       5.08971412       2.11404912        4       1.00000000      -0.04902729      -0.06760895       0.04915976
Pt       6.33785281       5.11614597       2.04662819        3       0.00000000       0.03966907      -0.01471851      -0.03681180
Ni       8.94009400       5.04043310       2.11107898        4       1.00000000       0.03101513      -0.13802550       0.04864518
Ni      11.48419987       5.05853873       2.14848057        4       1.00000000       0.03273737      -0.04014726       0.14211671
Ni       5.10798826       7.27326155       2.07104361        4       1.00000000      -0.05516286       0.00267578       0.07396154
Ni       7.61525176       7.33409985       2.09747004        4       1.00000000      -0.03391382       0.03203181       0.11199679
Pt      10.19439173       7.22223905       2.19658827        5       0.00000000       0.03700535      -0.15719865       0.17538622
Ni      12.73026094       7.21164013       2.09440653        4       1.00000000       0.02645883      -0.11895668       0.07750118
Pt       0.10086212       1.49355727       4.21611367        6       0.00000000       0.10004913      -0.06364598      -0.01504324
Ni       2.56342278       1.45810957       4.20918695        6       1.00000000       0.04326602      -0.00173792      -0.21934557
Pt       5.07673016       1.40410203       4.15576494        6       0.00000000       0.05610924      -0.06342339      -0.17381469
Ni       7.63455988       1.42387909       4.26893517        7       1.00000000      -0.02300000      -0.10915894      -0.19284621
Ni       1.31942816       3.67822514       4.24937004        6       1.00000000       0.06972214      -0.00339068      -0.11044160
Ni       3.76727516       3.69528285       4.20602456        6       1.00000000      -0.03983598       0.04842387      -0.18034457
Pt       6.36631019       3.62257613       4.29776987        7       0.00000000       0.02565074       0.00333964      -0.01259615
Ni       8.96753759       3.68228810       4.22065578        6       1.00000000       0.09832800       0.06835783      -0.21681378
Ni       2.53138805       5.75739396       4.23785266        6       1.00000000      -0.03406229      -0.02630389      -0.16889086
Ni       5.06444974       5.78488383       4.27050312        7       1.00000000       0.03223638      -0.04769005      -0.11745821
Pt       7.67303241       5.86460550       4.22373046        6       0.00000000      -0.00159131       0.01373055      -0.00344364
Ni      10.25438584       5.77264101       4.27546942        7       1.00000000       0.04050076       0.00914344      -0.03825515
Pt       3.81802312       7.89227733       4.18845713        6       0.00000000       0.05038853       0.02442280      -0.02310840
Ni       6.39078451       8.00783384       4.17036257        6       1.00000000       0.00879476       0.05234128      -0.21131864
Ni       8.89229904       8.01046354       4.20616266        6       1.00000000      -0.09619274       0.09949233      -0.21133641
Ni      11.47081488       7.93572664       4.22505476        6       1.00000000       0.03340939      -0.12776647      -0.12254124
Pt       0.02326564      -0.09869559       6.47258869       10       0.00000000      -0.20207666       0.10220038       0.29716856
Pt       2.53962148      -0.03754347       6.40245114        9       0.00000000       0.25122750       0.04850444       0.12261483
Pt       5.11859999      -0.04988446       6.32523294        8       0.00000000      -0.20363086      -0.12809100       1.05209573
Pt       7.63487063      -0.08327116       6.46867826       10       0.00000000       0.09177990       0.16464971       0.35191157
Ni       1.29000027       2.22818934       6.38451671        9       1.00000000       0.02432260       0.05208043      -0.05408676
Pt       3.80699572       2.30437625       6.32288954        8       0.00000000      -0.15125950      -0.02009641       0.59313146
Ni       6.36514168       2.20579687       6.41530711        9       1.00000000       0.00528429      -0.00343783       0.05428898
Pt       8.90079350       2.27863826       6.32294574        8       0.00000000      -0.15379803      -0.11620496       0.98512037
Ni       2.53153140       4.40969502       6.34646557        8       1.00000000       0.05590660      -0.04945981      -0.32127924
Ni       5.10269474       4.41574759       6.38617426        9       1.00000000      -0.12426751       0.01454716      -0.09409257
Ni       7.58630697       4.36177875       6.40934780        9       1.00000000      -0.02368795      -0.02310014       0.03300321
Ni      10.27526035       4.34784879       6.37558945        9       1.00000000       0.04287965      -0.02052689      -0.24859971
Ni       3.82591195       6.43881540       6.36685687        9       1.00000000      -0.00446608       0.00305379      -0.22874138
Ni       6.34027482       6.47478592       6.37561221        9       1.00000000      -0.03143733       0.07421348      -0.12364460
Pt       8.95359290       6.41587311       6.45943451       10       0.00000000       0.09688185       0.15759167       0.16936058
Ni      11.50940857       6.46369791       6.36272979        9       1.00000000      -0.01804537       0.06998539      -0.18720897
