64
Lattice="10.196327577875707 0.01833957747168232 0.010858272183226093 5.114046328923005 8.78909786086223 -0.03407730112977927 0.0 0.0 21.50288996266396" Properties=species:S:1:pos:R:3:tags:I:1:initial_magmoms:R:1:forces:R:3 unique_id=bcf7b50dd1f448388290c725ec2e3d68 stress="0.0016610156267639654 -4.526929484487772e-05 0.00020844853097207102 -4.526929484487772e-05 0.0012668586213023594 -1.3116577491370278e-05 0.00020844853097207102 -1.3116577491370278e-05 -0.005340430068767981" energy=-370.7528100266108 pbc="T T T"
Ni       0.03902482      -0.04636975       0.15034732        2       1.00000000       0.08184318      -0.02042390      -0.38947240
Ni       2.50607543       0.01433536       0.12648438        1       1.00000000       0.06047088       0.17881976      -0.44761468
Pt       5.13485458      -0.00451432       0.12015037        1       0.00000000      -0.07731728       0.24032207      -0.99715842
Ni       7.66420422      -0.03677993       0.14101942        1       1.00000000      -0.05273144      -0.06943161      -0.40021367
Ni       1.27502025       2.21710568       0.06630704        1       1.00000000      -0.03789452       0.06810646       0.26891847
Pt       3.79420745       2.28152709       0.12726535        1       0.00000000       0.03856613      -0.04828682      -0.51459261
Ni       6.38460247       2.25834931       0.07405884        1       1.00000000      -0.03083246       0.01928954       0.22699695
Pt       8.92930871       2.27686953       0.09195373        1       0.00000000       0.03146013       0.17649517      -0.88390865
Ni       2.53734759       4.43727955       0.04311901        0       1.00000000       0.06060039      -0.00681077       0.31891202
Ni       5.12674907       4.44347414       0.04749241        0       1.00000000      -0.08777059       0.00903220       0.30023021
Ni       7.62177152       4.43892868       0.05469669        1       1.00000000       0.04202749       0.03677199       0.27733791
Ni      10.24189115       4.43826798       0.05440279        1       1.00000000      -0.01017938      -0.00282918       0.35606874
Ni       3.84166171       6.56243524       0.03585250        0       1.00000000       0.03066325      -0.00853384       0.25935704
Ni       6.34244722       6.56132817       0.00000000        0       1.00000000      -0.05819221      -0.00567221       0.17209929
Ni       8.93163562       6.52940884       0.10452519        1       1.00000000       0.05532459      -0.08136114      -0.57508120
Ni      11.53292391       6.54748858       0.01781810        0       1.00000000       0.03613312       0.05656692       0.17428081
Ni       1.30647820       0.77877908       2.11972094        4       1.00000000       0.03429149       0.15429342       0.10692030
Ni       3.81353125       0.79717488       2.17672034        5       1.00000000      -0.03502516       0.07259550       0.24482909
Ni       6.36614059       0.78982378       2.19713800        5       1.00000000      -0.04934991       0.10747946       0.18763242
Pt       8.90208836       0.72892678       2.13952422        4       0.00000000       0.00660220      -0.08681382       0.16993699
Ni       2.53064554       2.95304360       2.19114310        5       1.00000000      -0.01639114       0.03226089       0.09135056
Ni       5.10634380       2.94641844       2.15099219        5       1.00000000       0.00070168      -0.00303717       0.05240300
Ni       7.62418727       2.97026503       2.15591884        5       1.00000000      -0.06175763       0.01139738       0.10141587
Ni      10.24767242       2.99748068       2.14891784        4       1.00000000       0.06439579       0.02235184       0.10336164
Ni       3.84391197       5.09523489       2.09276195        4       1.00000000      -0.00062687      -0.13632572      -0.01477824
Ni       6.33906462       5.08625309       2.08058650        4       1.00000000      -0.06527048      -0.06958993       0.02548390
Ni       8.94172050       5.05246592       2.10998435        4       1.00000000      -0.02236288      -0.13226888       0.04785515
Ni      11.50934153       5.06446606       2.10568600        4       1.00000000       0.05547982      -0.10620671       0.03565037
Ni       5.08717816       7.24715602       2.08127005        4       1.00000000      -0.10836852      -0.11170509       0.06479353
Pt       7.57720243       7.30989025       2.04940765        3       0.00000000      -0.00494605      -0.01747501       0.00667325
Pt      10.29902806       7.23468553       2.14665574        4       0.00000000       0.04173261      -0.22331300       0.15028636
Ni      12.78850482       7.26452369       2.07847058        4       1.00000000       0.09552477      -0.11356649       0.03411805
Pt       0.09104416       1.50664379       4.23141077        6       0.00000000       0.11057588      -0.10470518      -0.03288511
Ni       2.57879150       1.51685362       4.21687692        6       1.00000000       0.05840964       0.06030374      -0.25524178
Ni       5.11117598       1.46710301       4.21037956        6       1.00000000       0.00598240      -0.02381921      -0.28496264
Ni       7.61298432       1.45229085       4.26503599        7       1.00000000      -0.06385964      -0.08433920      -0.17599868
Ni       1.29268822       3.64762491       4.26946725        7       1.00000000       0.03582909      -0.01382411      -0.11810644
Ni       3.81580036       3.64434086       4.19843144        6       1.00000000      -0.02569723       0.01041219      -0.27001233
Pt       6.33620249       3.59763204       4.26551578        7       0.00000000      -0.00860131      -0.08214425       0.00093276
Ni       8.96635142       3.68995987       4.21949886        6       1.00000000       0.05174478      -0.00356614      -0.24966938
Pt       2.53475683       5.76328283       4.24713502        6       0.00000000      -0.03498858      -0.02851385      -0.04656583
Ni       5.10042789       5.81034356       4.26316247        7       1.00000000      -0.02187914      -0.09725844      -0.15665770
Pt       7.63936903       5.81239598       4.24613177        6       0.00000000      -0.03300952       0.02520362      -0.03849875
Ni      10.22542727       5.79240424       4.27374097        7       1.00000000      -0.03011978      -0.02203138      -0.10349971
Pt       3.85907906       7.97989185       4.21247134        6       0.00000000       0.07922484       0.05272951      -0.03624593
Ni       6.38138102       8.02992337       4.23001039        6       1.00000000       0.02124514      -0.01485946      -0.14221866
Pt       8.93593658       8.10092933       4.19814713        6       0.00000000      -0.08678897      -0.01138345      -0.18282444
Ni      11.50795322       8.05466859       4.22270093        6       1.00000000       0.02677901      -0.04251258      -0.20096853
Pt       0.01421498      -0.08245874       6.50288996       10       0.00000000      -0.15954819       0.08895471       0.37927151
Pt       2.52923415      -0.00612446       6.46177950       10       0.00000000       0.17780407       0.10623837       0.36902778
Pt       5.13855773       0.01059637       6.34548846        8       0.00000000      -0.08182440       0.08514025       1.11962476
Pt       7.64795723      -0.05471138       6.47265653       10       0.00000000       0.10572776       0.15908211       0.35374163
Ni       1.28971514       2.24681162       6.40569712        9       1.00000000       0.02431946       0.04216741      -0.06851631
Pt       3.82849022       2.31422540       6.30679558        8       0.00000000      -0.01971586      -0.11130887       0.50771110
Ni       6.37619045       2.23745923       6.41474676        9       1.00000000       0.01192831      -0.00618892       0.01916104
Pt       8.91058843       2.30420383       6.32716403        8       0.00000000      -0.14694684      -0.11590863       0.90084318
Ni       2.53295910       4.40881949       6.40974443        9       1.00000000       0.03195088      -0.03243657      -0.22128451
Ni       5.11826109       4.43423629       6.41043299        9       1.00000000      -0.08748841       0.02538956      -0.24416411
Ni       7.59057836       4.38535948       6.42826402        9       1.00000000      -0.02158463      -0.01342756      -0.08543930
Ni      10.28607178       4.38058091       6.38735297        9       1.00000000       0.02758400       0.00615914      -0.24111313
Ni       3.84511408       6.47880402       6.41563513        9       1.00000000       0.01773249      -0.01365233      -0.17110464
Ni       6.35276359       6.50764790       6.39904875        9       1.00000000      -0.03261365       0.07586657      -0.09010725
Pt       8.96676525       6.45576620       6.47543623       10       0.00000000       0.09360745       0.06883215       0.30316276
Ni      11.51434070       6.51773462       6.40348090        9       1.00000000      -0.04258007       0.07326949      -0.09148344
