64
Lattice="10.655289824222917 0.013712296259285757 -0.008539068688180343 5.339520109016222 9.22531239963123 -0.026212071463888754 -0.006972120388206221 -0.020687622391796192 9.207918373327553" Properties=species:S:1:pos:R:3:tags:I:1:initial_magmoms:R:1:forces:R:3 unique_id=b0efef0723104933b5fc12235d85cd3f stress="0.008319094678178873 3.0877429947845904e-05 2.2272394161865913e-05 3.0877429947845904e-05 0.008314268608531024 8.36457481068976e-06 2.2272394161865913e-05 8.36457481068976e-06 0.006423394613399455" energy=-420.18642368657925 pbc="T T T"
Pt       0.02249535      -0.03587389       0.09994088        4       0.00000000      -0.00160315      -0.00738088       0.03226167
Pt       2.67462005      -0.06084733       0.11367790        4       0.00000000       0.01115992      -0.07470983       0.03123298
Pt       5.30696612      -0.00266562       0.13870332        4       0.00000000       0.00283791       0.00212066      -0.00720170
Pt       7.97736366      -0.00305017       0.14370117        4       0.00000000      -0.02305829      -0.02356954       0.07801833
Pt       1.33663503       2.30821945       0.02790869        4       0.00000000      -0.00397656      -0.02431265      -0.07567469
Pt       4.02201189       2.32387255       0.14196306        4       0.00000000       0.00547906      -0.03636171       0.08767729
Pt       6.64067654       2.35048066       0.13616098        4       0.00000000      -0.00787125       0.04688016       0.05625036
Pt       9.31998009       2.33394520       0.02747689        4       0.00000000      -0.04544647       0.04232808      -0.05581737
Pt       2.70606812       4.61140009      -0.00514658        4       0.00000000       0.00189498      -0.01782901      -0.14867302
Ni       5.34278349       4.62911130       0.10541214        4       1.00000000       0.00750405      -0.02169559       0.22202348
Pt       7.94483446       4.69422708      -0.00235391        4       0.00000000      -0.05105973       0.10815817      -0.13647056
Pt      10.63923588       4.63986082       0.09252934        4       0.00000000      -0.02364534      -0.00537547       0.04155823
Pt       4.06125379       6.87979690       0.01070346        4       0.00000000       0.07176946      -0.04388536      -0.10528356
Ni       6.67274912       6.90733999       0.10522072        4       1.00000000       0.00498590       0.01850027       0.30933005
Ni       9.31755118       6.92461707       0.10657074        4       1.00000000       0.00798373       0.01310201       0.31135366
Pt      11.97952536       6.93253335       0.11061758        4       0.00000000       0.01328393      -0.00217813       0.14130245
Pt       1.34455301       0.77797516       2.36339799        3       0.00000000      -0.01905416      -0.01051359       0.01084675
Ni       4.04696715       0.78460042       2.34829054        3       1.00000000       0.15220840       0.07399710       0.13305698
Ni       6.61345155       0.77873766       2.34791448        3       1.00000000      -0.12024512       0.08841156       0.12292142
Pt       9.27663201       0.78007420       2.33621803        3       0.00000000      -0.04210919       0.04925887       0.00379671
Pt       2.69488844       3.03879626       2.34579834        3       0.00000000      -0.01993754      -0.02404674       0.01429468
Ni       5.33734760       3.02831598       2.33034535        3       1.00000000       0.02385238      -0.16712200       0.16670023
Pt       7.94409160       3.05698924       2.35961421        3       0.00000000      -0.05443004       0.02261243       0.03585804
Ni      10.65217568       3.07138818       2.31132854        3       1.00000000      -0.03539396      -0.02864156       0.09118897
Pt       4.00902216       5.35920088       2.29490034        3       0.00000000      -0.02170980      -0.01859220      -0.02964489
Pt       6.63818078       5.33981539       2.28107197        3       0.00000000      -0.00787296      -0.03481262       0.06395761
Pt       9.33121488       5.38235901       2.29783851        3       0.00000000      -0.00318710       0.00612334       0.06729736
Pt      12.00335861       5.39056894       2.32502000        3       0.00000000      -0.01441700      -0.01981459       0.05892031
Pt       5.33214017       7.68018195       2.32010192        3       0.00000000       0.00722969      -0.02241966       0.05066274
Pt       8.02887968       7.71155101       2.32793427        3       0.00000000       0.06927398       0.06971740       0.16682344
Pt      10.69924652       7.79431940       2.37326701        3       0.00000000       0.07335613       0.12409073       0.13894532
Ni      13.31386750       7.71107813       2.30545146        3       1.00000000      -0.00279273       0.02974576       0.10549756
Pt       0.00425329       1.52920110       4.59699742        2       0.00000000      -0.02254407       0.03257913      -0.07256134
Pt       2.73368459       1.45119833       4.54429231        2       0.00000000       0.14463664      -0.08270170      -0.07757852
Ni       5.33208976       1.50569516       4.53006183        2       1.00000000      -0.00639993      -0.11094818      -0.22945741
Pt       7.88468585       1.51611193       4.54080118        2       0.00000000      -0.17653408      -0.06392925      -0.04723534
Pt       1.35276113       3.81313425       4.59601418        2       0.00000000       0.05711531      -0.03928042      -0.05304289
Pt       4.08356378       3.78971357       4.54015411        2       0.00000000       0.18448042      -0.09772635      -0.07979675
Ni       6.65038228       3.83080512       4.57034251        2       1.00000000      -0.01820771       0.01703795      -0.07137002
Pt       9.26924934       3.82572734       4.59969599        2       0.00000000      -0.06654354      -0.01643972      -0.03494514
Pt       2.67650476       6.15881922       4.57389417        2       0.00000000       0.01905926      -0.04403701      -0.07701428
Pt       5.35702796       6.14292861       4.58168778        2       0.00000000       0.03042287       0.00915738       0.02423316
Pt       7.98143653       6.17410669       4.56937950        2       0.00000000       0.01761821       0.06388151       0.02560081
Pt      10.64632227       6.22676512       4.54939976        2       0.00000000      -0.01609665       0.05106090       0.08496396
Pt       3.97749752       8.43512915       4.53731190        2       0.00000000      -0.05797385       0.02013548      -0.05766586
Ni       6.68338458       8.44495912       4.56123176        2       1.00000000      -0.00011995      -0.00666907      -0.04578501
Ni       9.34729468       8.47854840       4.53618581        2       1.00000000       0.06320979       0.03661591      -0.08623066
Ni      11.97290814       8.48728481       4.52651786        2       1.00000000      -0.02092765       0.07086184      -0.08793636
Pt      -0.00677560       0.01150583       6.77812060        1       0.00000000      -0.00241221       0.02871508      -0.04308581
Pt       2.64039505      -0.00780572       6.75317306        1       0.00000000       0.02724398      -0.05314591      -0.06451140
Pt       5.32384755      -0.00164973       6.71304371        1       0.00000000       0.00901210       0.03894773      -0.12327849
Pt       8.00467930      -0.00319232       6.77478991        1       0.00000000      -0.03217247       0.03593419      -0.00396375
Ni       1.32082699       2.30210652       6.76943203        1       1.00000000       0.01554239      -0.02296026      -0.24552947
Pt       3.94946948       2.33180838       6.78082328        1       0.00000000      -0.04302949       0.02750867       0.00413387
Pt       6.69476166       2.35830589       6.75038340        1       0.00000000      -0.01587430       0.09825669      -0.02249256
Ni       9.32820825       2.31029052       6.76194096        1       1.00000000      -0.02746827      -0.02816980      -0.23102022
Ni       2.67097278       4.59983813       6.76141513        1       1.00000000       0.03864840       0.00265501      -0.29926355
Pt       5.31009924       4.62779359       6.84904033        1       0.00000000      -0.08759075       0.04269356       0.09576159
Ni       7.99119425       4.59908249       6.76121310        1       1.00000000      -0.04043315       0.02260734      -0.26231890
Pt      10.65435167       4.53512012       6.77692842        1       0.00000000       0.01025502      -0.08816137      -0.02835068
Ni       4.00002221       6.89519196       6.76530007        1       1.00000000       0.00328144       0.02780390      -0.23553197
Pt       6.64189410       6.89354385       6.85856314        1       0.00000000      -0.01405831       0.01818181       0.16249709
Pt       9.31612473       6.87696720       6.84939178        1       0.00000000       0.02836265      -0.06321567       0.15602195
Pt      12.04230235       6.88338548       6.77205900        1       0.00000000       0.04448873      -0.03903478       0.04374313
