64
Lattice="9.87879510275101 -0.0026893113614762 -0.02346704477612879 4.937068539417777 8.570743142307476 0.010840304526969258 -0.019160761824187075 0.02128280811860225 8.454314254937382" Properties=species:S:1:pos:R:3:tags:I:1:initial_magmoms:R:1:forces:R:3 unique_id=5bc1f0603eec4f3ea8beb93555cec5f1 stress="0.002934600733560437 -5.023841922583791e-06 2.4748391800573728e-06 -5.023841922583791e-06 0.002936562402527494 -6.848465109682491e-06 2.4748391800573728e-06 -6.848465109682491e-06 0.002621689815143907" energy=-378.34119355506056 pbc="T T T"
Ni      -0.00372041       0.00125947       0.11099360        4       1.00000000      -0.01229370       0.00505488       0.04072827
Ni       2.46452971       0.01218493       0.09983966        4       1.00000000      -0.01870517       0.04033452       0.01045100
Ni       4.93560606       0.00950462       0.08565141        4       1.00000000      -0.02636431       0.03292245      -0.01930925
Ni       7.40590170       0.00002249       0.09713933        4       1.00000000      -0.01201080       0.01303934       0.06090695
Ni       1.23952573       2.13855482       0.10364019        4       1.00000000       0.00694160       0.00530509      -0.02769810
Ni       3.70005000       2.14578301       0.10037626        4       1.00000000      -0.01619433       0.01583715      -0.00017914
Ni       6.16254488       2.13883498       0.09882201        4       1.00000000      -0.03772505       0.00582935       0.02472201
Ni       8.63983889       2.13244695       0.10183480        4       1.00000000      -0.00525254       0.00676823       0.06462499
Ni       2.47896936       4.28796962       0.11371269        4       1.00000000       0.02454812       0.01925134      -0.00015358
Ni       4.92477069       4.28520066       0.09866653        4       1.00000000      -0.03657154       0.00875481       0.00339898
Ni       7.36939718       4.27154361       0.07225116        4       1.00000000      -0.05198104       0.01329734       0.00186927
Ni       9.92352783       4.25912635       0.15603207        4       1.00000000       0.10194950      -0.04440807       0.02941050
Ni       3.69763967       6.43124748       0.11007889        4       1.00000000      -0.02671456       0.01747736       0.01160867
Ni       6.16087455       6.43402567       0.12356607        4       1.00000000      -0.02444428       0.01517240       0.09970118
Ni       8.63690397       6.47014958       0.07043181        4       1.00000000      -0.01582756       0.05629599      -0.01911940
Ni      11.11763517       6.43559286       0.09990868        4       1.00000000      -0.01000639       0.01469887       0.02795875
Ni       1.23718556       0.74475930       2.09221694        3       1.00000000       0.01881137       0.01557876       0.00127252
Ni       3.70166181       0.73265999       2.12269934        3       1.00000000      -0.00703877       0.01317433      -0.00297960
Ni       6.14792345       0.70755940       2.08835636        3       1.00000000      -0.01876290       0.00198801       0.00790567
Ni       8.65229678       0.69803572       2.08745264        3       1.00000000       0.01268844      -0.02209902       0.05792712
Ni       2.47578101       2.86289412       2.13166423        3       1.00000000       0.00979382       0.01296997      -0.02111597
Ni       4.91679395       2.85622525       2.12693181        3       1.00000000      -0.02213097      -0.00959572      -0.00083896
Ni       7.37533089       2.83585249       2.08560571        3       1.00000000      -0.01820796       0.00352563       0.01888307
Ni       9.90791927       2.81091603       2.12003404        3       1.00000000       0.02014678      -0.02026714       0.04769626
Ni       3.69457562       5.00035667       2.13807787        3       1.00000000       0.00331677      -0.00167462       0.00479492
Ni       6.10679494       4.99283830       2.10731282        3       1.00000000      -0.00761571      -0.01108621       0.04638918
Pt       8.66266450       4.99590067       2.08836406        3       0.00000000      -0.03053564       0.02969478       0.04334087
Ni      11.17385022       5.00646166       2.12854390        3       1.00000000       0.04023997       0.01476533       0.03699941
Ni       4.90526186       7.13763676       2.11028727        3       1.00000000      -0.01866162      -0.01314064       0.03998743
Ni       7.39748788       7.19300990       2.08912491        3       1.00000000       0.00821845       0.01109567       0.04639241
Ni       9.90008944       7.18891858       2.12307468        3       1.00000000      -0.00464314       0.00780360      -0.00059268
Ni      12.34436381       7.14293990       2.12301249        3       1.00000000      -0.00542080      -0.00015629       0.02690786
Ni       0.00925405       1.49299152       4.20655311        2       1.00000000      -0.00279759       0.03561905      -0.01566101
Ni       2.49042062       1.48861393       4.18922349        2       1.00000000       0.00335524       0.01662901      -0.07380418
Ni       4.88415328       1.44234430       4.18845810        2       1.00000000      -0.01236630       0.00047784      -0.06072650
Pt       7.38216366       1.42075362       4.18005771        2       0.00000000      -0.00117760       0.00119156       0.02263988
Ni       1.26586744       3.57844159       4.17227662        2       1.00000000       0.01445921       0.02605056      -0.01784234
Ni       3.68686264       3.58189253       4.19186541        2       1.00000000      -0.01110095       0.00280518      -0.06606195
Ni       6.09421704       3.56383228       4.19151844        2       1.00000000      -0.03888255      -0.02168823      -0.06388654
Ni       8.66608793       3.54708943       4.18131183        2       1.00000000       0.01424759      -0.00230707      -0.00828893
Ni       2.46222884       5.71518006       4.20738176        2       1.00000000       0.00583265      -0.01393557      -0.02487601
Ni       4.86014798       5.69313977       4.20390101        2       1.00000000      -0.00398016       0.01312663      -0.03806621
Pt       7.39264098       5.69098910       4.25057927        2       0.00000000      -0.01533778       0.00262601       0.02210271
Ni       9.93579434       5.75266299       4.18131398        2       1.00000000       0.00427239      -0.00500835      -0.01994447
Ni       3.65138554       7.81971395       4.21330027        2       1.00000000      -0.03468060      -0.02483660      -0.02203715
Pt       6.12961784       7.93041899       4.20417135        2       0.00000000      -0.00549032      -0.01015466       0.03176526
Ni       8.68245446       7.90697547       4.19511497        2       1.00000000      -0.02260613      -0.00161195      -0.07191247
Ni      11.08684159       7.83412458       4.19009744        2       1.00000000      -0.00769117      -0.00248041      -0.05388445
Ni      -0.04020174       0.02236265       6.28170997        1       1.00000000      -0.03299020      -0.00459036       0.01282078
Ni       2.48737097       0.03381500       6.26621135        1       1.00000000       0.05994711       0.01308849      -0.02366209
Ni       4.93514767       0.02504293       6.22707517        1       1.00000000       0.04389317       0.01844975      -0.06987289
Ni       7.39180471      -0.01653545       6.26074039        1       1.00000000       0.00145519      -0.03870680       0.02667510
Ni       1.25985824       2.11759829       6.23756888        1       1.00000000       0.04968410      -0.01901546      -0.06830741
Ni       3.69873059       2.15843877       6.23415616        1       1.00000000       0.02436808       0.00134871      -0.04938381
Ni       6.12666747       2.15431230       6.26368872        1       1.00000000      -0.03876956      -0.04228108      -0.00537193
Ni       8.62512181       2.11947888       6.26296403        1       1.00000000       0.01436697      -0.03371146       0.02540624
Ni       2.51314256       4.29578129       6.23730349        1       1.00000000       0.03863141      -0.02420805      -0.04603295
Ni       4.91614282       4.29228794       6.23968348        1       1.00000000       0.00686773      -0.01830508      -0.05228496
Ni       7.34540354       4.25031277       6.27072965        1       1.00000000      -0.01512314      -0.12610835      -0.01015735
Pt       9.88344821       4.29791766       6.25841770        1       0.00000000       0.02470504      -0.01273821       0.09159474
Ni       3.68801319       6.43566993       6.24956302        1       1.00000000       0.01154825      -0.02891849      -0.02910678
Ni       6.12790000       6.43763631       6.31049604        1       1.00000000      -0.02067484      -0.00226078       0.06680966
Ni       8.64486463       6.50332362       6.26182044        1       1.00000000       0.07853703       0.05258127      -0.04077787
Ni      11.13161443       6.48003306       6.22890411        1       1.00000000       0.04795170      -0.00933457      -0.02975472
