64
Lattice="10.493050927028374 0.027684483472913836 0.012154958073535935 5.27050092949238 9.097025792401723 0.02424552743927159 0.0 0.0 21.73057591543825" Properties=species:S:1:pos:R:3:tags:I:1:initial_magmoms:R:1:forces:R:3 unique_id=7d4e3c0b44404e0da5d4445538d59e30 energy=-384.6240574064162 stress="0.006489254059050866 -2.5401184661872256e-05 -2.3318084520796662e-05 -2.5401184661872256e-05 0.005689835278928881 0.0001628737083182018 -2.3318084520796662e-05 0.0001628737083182018 -0.0009223279393923665" pbc="T T T"
Pt       0.02578086       0.03831232       0.00569257        0       0.00000000      -0.03252061      -0.04752666      -0.19862948
Pt       2.62215422      -0.07187890       0.09491418        1       0.00000000       0.05685939      -0.08876572      -0.23712078
Pt       5.24014794      -0.06292579       0.00000000        0       0.00000000      -0.03329837       0.07288059      -0.08825600
Pt       7.86085025       0.00273431       0.12135729        1       0.00000000       0.02496378      -0.15923513      -0.74473867
Ni       1.30489875       2.27076122       0.13387361        1       1.00000000       0.06315376      -0.00903301      -0.06107287
Pt       3.91988184       2.26750082       0.02047840        0       0.00000000       0.04230159      -0.14561415      -0.00394393
Pt       6.59302482       2.29514283       0.02345909        0       0.00000000      -0.03989733      -0.00115021      -0.15608979
Ni       9.20432289       2.30574741       0.14073988        1       1.00000000      -0.05845393       0.08843158      -0.08829882
Pt       2.60563726       4.55413245       0.00545211        0       0.00000000      -0.02090072       0.02300812      -0.22267422
Pt       5.29128872       4.58809708       0.05382653        1       0.00000000       0.02196560      -0.10597990       0.03062649
Pt       7.89722584       4.63710231       0.02413119        0       0.00000000      -0.00098549      -0.02450154       0.06069381
Pt      10.48839557       4.59054154       0.02101571        0       0.00000000      -0.01407677       0.08529537      -0.18128160
Pt       3.95652449       6.83103341       0.14564637        1       0.00000000      -0.09802692       0.16272794      -0.49338764
Ni       6.60275473       6.83332076       0.08650576        1       1.00000000       0.02127715       0.06206846       0.25836508
Ni       9.19581232       6.82852969       0.07558725        1       1.00000000       0.00005086      -0.01192503       0.23064560
Ni      11.80479668       6.83823654       0.15823881        2       1.00000000       0.05194342      -0.00292706      -0.16738268
Pt       1.35092444       0.72490728       2.33749570        3       0.00000000       0.08289309       0.00260422       0.19968442
Pt       3.94835666       0.76426053       2.41389957        4       0.00000000       0.00899467       0.01743010       0.27318227
Pt       6.52697014       0.78114389       2.37336268        4       0.00000000      -0.02002425       0.08044060       0.15394711
Pt       9.17602072       0.76336382       2.29360573        3       0.00000000      -0.04303357      -0.02894980       0.11855302
Pt       2.68121760       3.03597260       2.34311020        3       0.00000000       0.05113198       0.01181889       0.14092216
Ni       5.26736665       3.06144790       2.33533154        3       1.00000000       0.02793438      -0.05238236       0.33269266
Pt       7.79972223       3.12407998       2.33550325        3       0.00000000      -0.19016392       0.09248286       0.10062104
Pt      10.48484722       3.07459655       2.26864870        3       0.00000000      -0.04100198       0.09927418       0.18361845
Pt       4.04108400       5.27511239       2.38311121        4       0.00000000       0.20167973      -0.12461107       0.22908609
Ni       6.57492306       5.32982410       2.33385922        3       1.00000000       0.00099698      -0.02845875       0.31686044
Pt       9.10168970       5.38977129       2.35095142        4       0.00000000      -0.12799942       0.09956827       0.16655647
Pt      11.83864075       5.37761411       2.29408727        3       0.00000000       0.06074251       0.01073701       0.13542549
Pt       5.36724596       7.52410427       2.34782046        3       0.00000000       0.19577991      -0.07970828       0.12778535
Ni       7.88340256       7.56802990       2.31904873        3       1.00000000       0.06687193       0.01173995       0.26493996
Pt      10.49200005       7.60573343       2.32413989        3       0.00000000      -0.11146380       0.05134616       0.10164907
Ni      13.13335346       7.60415441       2.30544429        3       1.00000000       0.05060953      -0.01170884       0.35461394
Pt       0.04626517       1.50110888       4.51954424        5       0.00000000       0.03470075       0.00152830      -0.05039399
Ni       2.69011985       1.52138714       4.52063218        5       1.00000000       0.13595467       0.06832464      -0.08081242
Ni       5.21582669       1.55983125       4.54474372        5       1.00000000      -0.11592408       0.08743641       0.01443899
Pt       7.78284044       1.62997687       4.52579297        5       0.00000000      -0.08851280       0.19109246       0.03298159
Pt       1.35403953       3.79483300       4.54454361        5       0.00000000      -0.06580214      -0.01558297      -0.07864390
Ni       4.02030993       3.76893774       4.54709848        5       1.00000000       0.23463455      -0.08510773      -0.01612892
Ni       6.53572743       3.85698468       4.53874110        5       1.00000000      -0.12846378       0.18761276      -0.09740373
Ni       9.15392422       3.85228787       4.54009953        5       1.00000000      -0.18247196       0.09536053      -0.13299264
Pt       2.66905169       6.06116125       4.49833654        5       0.00000000       0.01222301       0.07555255      -0.13413845
Ni       5.34797429       6.03324329       4.51978361        5       1.00000000       0.29422177      -0.14158316      -0.00998569
Ni       7.83524754       6.08894780       4.53848411        5       1.00000000      -0.24586916       0.03556857       0.02538710
Pt      10.39567515       6.12580220       4.57038050        6       0.00000000      -0.24292119       0.00895308       0.03684637
Pt       3.99996193       8.31694593       4.49436674        5       0.00000000       0.00816573      -0.07239586      -0.09032516
Ni       6.62979671       8.29030258       4.52695814        5       1.00000000       0.12221645      -0.29616991      -0.13880931
Ni       9.19867560       8.36790982       4.52378976        5       1.00000000      -0.02675990      -0.00597219      -0.15014268
Ni      11.78921364       8.37654616       4.52692677        5       1.00000000      -0.14791285       0.02156749      -0.19080077
Ni       0.02742700      -0.00349836       6.60980388        7       1.00000000       0.11143891      -0.06890438       0.13959775
Pt       2.65777264      -0.04596814       6.55205786        7       0.00000000       0.00858288      -0.02756477       0.23660805
Ni       5.23257478       0.04566162       6.57679481        7       1.00000000      -0.04401815       0.09187553      -0.23556653
Pt       7.82594351       0.04435516       6.63003787        7       0.00000000      -0.16023925      -0.04870692       0.67799237
Pt       1.38183758       2.30082796       6.72855425        8       0.00000000       0.30485953      -0.15125278       0.33159357
Ni       3.98141643       2.30591636       6.57335121        7       1.00000000       0.07652917       0.05276726      -0.33038625
Ni       6.51833889       2.33404546       6.60233325        7       1.00000000      -0.21904417       0.14261784      -0.13165958
Pt       9.16300239       2.38955044       6.71305092        8       0.00000000      -0.11864563       0.21841310       0.15695424
Ni       2.67052155       4.54195332       6.61290301        7       1.00000000       0.28489380      -0.03749637       0.11688598
Ni       5.29175588       4.53651025       6.58317046        7       1.00000000       0.07264176      -0.08797991      -0.40321911
Ni       7.86344014       4.60789737       6.58800239        7       1.00000000      -0.15467537       0.11170062      -0.39422327
Ni      10.48116414       4.59010655       6.62660160        7       1.00000000      -0.16477750      -0.03617490       0.10628485
Pt       4.06136953       6.76660220       6.65448567        8       0.00000000       0.18451870      -0.23973051       0.64387207
Ni       6.61026939       6.81324060       6.66181139        8       1.00000000       0.10804979      -0.13683678      -0.66232529
Ni       9.17094478       6.83154937       6.69948957        8       1.00000000      -0.15489191      -0.05812552      -0.44121906
Pt      11.76174499       6.83678470       6.73057592        8       0.00000000       0.06899521       0.06983673       0.11214141
