64
Lattice="10.442068810742212 -0.016878950147822185 0.014210827309151047 5.206416805753939 9.05806608180119 0.046587508906543 0.0 0.0 21.752136628125662" Properties=species:S:1:pos:R:3:tags:I:1:initial_magmoms:R:1:forces:R:3 unique_id=4fa7eb27a02f445c9e802bf84dadfac7 energy=-384.2183049071214 stress="0.005183223417357632 -4.798242717751169e-08 -9.234927761307416e-05 -4.798242717751169e-08 0.00543329988720722 7.596320671398541e-05 -9.234927761307416e-05 7.596320671398541e-05 -0.0015273777508706086" pbc="T T T"
Pt      -0.00175026      -0.04539168       0.00000000        0       0.00000000       0.20370875      -0.13238278      -0.18124091
Pt       2.58420073      -0.10548973       0.14490718        1       0.00000000      -0.20548705      -0.16204557      -0.29253480
Pt       5.19784980      -0.05016751       0.03607339        0       0.00000000      -0.02776613       0.05642803      -0.15338248
Pt       7.86961975      -0.02324113       0.02330127        0       0.00000000      -0.07094560      -0.04488434      -0.18175838
Pt       1.24712962       2.26664384       0.10982953        1       0.00000000       0.05932934      -0.03057948       0.10469745
Pt       3.91134338       2.27900329       0.14710737        1       0.00000000      -0.05563964       0.04792655      -0.63822173
Pt       6.59129246       2.33984150       0.12726968        1       0.00000000      -0.01106667       0.11178320      -0.80363761
Ni       9.13484766       2.26668198       0.07560445        1       1.00000000      -0.03345994      -0.02273377       0.17753379
Pt       2.63750253       4.56365139       0.14817731        1       0.00000000      -0.07502913      -0.22758076      -0.64482106
Ni       5.25091310       4.58736522       0.16945094        2       1.00000000       0.14331582       0.08958647      -0.01852852
Ni       7.80725772       4.58031706       0.17089567        2       1.00000000      -0.15934336       0.27328601       0.08429070
Pt      10.31004297       4.52136399       0.08951819        1       0.00000000      -0.14902333       0.04388634       0.27457902
Ni       3.94172586       6.78265506       0.09864770        1       1.00000000       0.06415530      -0.00395472       0.24537614
Ni       6.52712795       6.72914229       0.18822932        2       1.00000000       0.13650971      -0.17409925       0.13882740
Ni       9.08650599       6.75586419       0.13528512        1       1.00000000      -0.13537101      -0.06794974       0.46561802
Pt      11.72864457       6.77773793       0.09734115        1       0.00000000      -0.08535372      -0.03075144       0.03488843
Ni       1.31439979       0.79295151       2.30836740        3       1.00000000       0.02045137       0.15433204       0.29037955
Pt       3.82630760       0.68471845       2.36901849        4       0.00000000      -0.09959862      -0.18172817       0.14691139
Pt       6.53075187       0.67577360       2.30239302        3       0.00000000       0.02089880      -0.13625747       0.15098570
Pt       9.22016174       0.78836746       2.29838151        3       0.00000000       0.15627999       0.03667774       0.02813881
Ni       2.55732368       3.00183608       2.30899982        3       1.00000000      -0.13843781      -0.03977853       0.34444888
Pt       5.23311208       3.07010702       2.29300557        3       0.00000000       0.07928880       0.02863219       0.17389650
Pt       7.94224046       3.13997143       2.28480820        3       0.00000000       0.30003007       0.16505036       0.09097825
Ni      10.46169398       3.01753429       2.31624751        3       1.00000000       0.17447204       0.05722153       0.21889194
Pt       3.93348658       5.34616893       2.28927555        3       0.00000000      -0.06607583       0.06798089       0.06212512
Ni       6.57514571       5.32879533       2.26801682        3       1.00000000       0.20925526       0.07875225       0.18453603
Ni       9.10217127       5.34666526       2.32503530        3       1.00000000      -0.06867047       0.31765872       0.28634397
Pt      11.64251287       5.29035629       2.35872689        4       0.00000000      -0.17843871       0.03509361       0.05093297
Pt       5.29352133       7.53788866       2.29079544        3       0.00000000       0.15412987       0.19442608       0.01590509
Ni       7.85739576       7.47622607       2.32685100        3       1.00000000       0.22952891      -0.30231515       0.19656271
Ni      10.37880993       7.50881545       2.33887208        3       1.00000000      -0.25012340      -0.07501985       0.23663909
Ni      13.04296120       7.53342897       2.30405582        3       1.00000000       0.00704322       0.01743899       0.16429583
Ni       0.03405066       1.53562979       4.50904887        5       1.00000000       0.08569091      -0.12203028      -0.12128905
Ni       2.55932237       1.52142894       4.46945207        5       1.00000000      -0.18159746       0.06707011      -0.32210123
Pt       5.17504420       1.45554569       4.50061979        5       0.00000000      -0.05171135      -0.01013955      -0.09668566
Pt       7.94102436       1.55579085       4.53008400        5       0.00000000       0.12429660       0.16623707      -0.12649578
Pt       1.19071170       3.72491081       4.49316416        5       0.00000000      -0.11613877      -0.01701887      -0.16529759
Pt       3.87827479       3.78634860       4.45416850        5       0.00000000      -0.06438217      -0.05421421      -0.20295411
Pt       6.58835082       3.90291538       4.47652184        5       0.00000000       0.04820760       0.24705642      -0.10180122
Ni       9.15905625       3.81780345       4.51661967        5       1.00000000      -0.05817672       0.19753711      -0.16347291
Pt       2.58379150       6.08195509       4.51316644        5       0.00000000      -0.07004095      -0.05419549      -0.13734514
Ni       5.23908858       6.07084520       4.51164560        5       1.00000000       0.09713664       0.03379405      -0.16150068
Ni       7.88381738       6.07681210       4.48900989        5       1.00000000       0.20221978       0.12760486      -0.25491944
Ni      10.36232810       6.04073776       4.54097975        5       1.00000000      -0.27790144      -0.06961159      -0.09202058
Pt       3.94942165       8.31407981       4.59413873        6       0.00000000       0.13288389      -0.09948384      -0.15797044
Pt       6.58240244       8.32722698       4.45462272        5       0.00000000       0.18928144      -0.03112657      -0.16389656
Ni       9.12027905       8.24240539       4.53085274        5       1.00000000      -0.00924786      -0.36652550      -0.17563182
Pt      11.66327452       8.24783290       4.58440416        6       0.00000000      -0.05981335       0.00616766      -0.21433238
Ni      -0.01384247       0.05246528       6.60876104        7       1.00000000       0.07918680       0.15267497      -0.02164324
Pt       2.63371671       0.00614053       6.61157222        7       0.00000000       0.09462830       0.03419098       0.32422909
Ni       5.23733527      -0.03891834       6.62983346        7       1.00000000      -0.05717565      -0.08712696       0.18837246
Ni       7.86112523      -0.01748749       6.62599724        7       1.00000000      -0.01656873      -0.03294970       0.06309622
Ni       1.25140129       2.27466445       6.62317512        7       1.00000000      -0.10700422      -0.13171717      -0.21491957
Pt       3.87059747       2.26710866       6.66036077        8       0.00000000      -0.20964479      -0.00899052       0.88499192
Pt       6.57880162       2.21684347       6.66968599        8       0.00000000       0.05282097      -0.02980677       0.85602337
Ni       9.19496950       2.26440778       6.70234397        8       1.00000000       0.16418344      -0.01959488      -0.43085871
Pt       2.51305845       4.59019330       6.68639201        8       0.00000000      -0.20575690       0.00152982       0.87237789
Pt       5.20550016       4.59196107       6.75213663        9       0.00000000      -0.03078436      -0.02687902       0.18563369
Pt       7.95950427       4.56559692       6.72901633        8       0.00000000       0.13129894      -0.01414161      -0.12070711
Ni      10.43291723       4.54282885       6.63895131        7       1.00000000      -0.00649901       0.09199508      -0.14176905
Ni       3.89191352       6.85198027       6.73283996        8       1.00000000      -0.09515785      -0.00086525      -0.27332803
Pt       6.50721037       6.83966232       6.73654015        8       0.00000000       0.05589890       0.00293648      -0.19724058
Ni       9.18085367       6.81531939       6.69839831        8       1.00000000       0.16082221       0.01951481      -0.54618798
Ni      11.71624587       6.82351559       6.66982818        8       1.00000000      -0.14952167      -0.11599157      -0.02401304
