64
Lattice="10.285522736120365 -0.032874610063960405 -0.0018709245697086294 5.114291120605284 8.86231943654931 -0.029465304750180308 -0.0015276035143407594 -0.02689819343122122 8.756109561106486" Properties=species:S:1:pos:R:3:tags:I:1:initial_magmoms:R:1:forces:R:3 unique_id=8ee0324a2b234bd296516a74c0b6d1f9 stress="0.00017065292246411928 5.92457172631628e-06 -1.7482409229587215e-05 5.92457172631628e-06 0.00017653906524260632 1.643400006481936e-05 -1.7482409229587215e-05 1.643400006481936e-05 0.00017602442513387634" energy=-396.0056787400779 pbc="T T T"
Ni      -0.02335104       0.02967347       0.21198200        4       1.00000000      -0.09514401       0.06428094       0.31791944
Ni       2.56244030      -0.00575420       0.21652636        4       1.00000000      -0.04984843       0.01143009       0.42626559
Ni       5.13999970      -0.02881703       0.16689221        4       1.00000000      -0.02384654       0.13319228       0.30756224
Ni       7.74011328      -0.06443161       0.12014868        4       1.00000000       0.09733753      -0.09946110       0.22779396
Ni       1.23844442       2.21490778       0.10771920        4       1.00000000      -0.14993001      -0.01287497       0.23423696
Pt       3.77897388       2.21360772       0.10475910        4       0.00000000      -0.08011805       0.02085110      -0.14990368
Pt       6.44864672       2.13839375       0.19004480        4       0.00000000       0.06759398      -0.06692681       0.21741551
Ni       9.03461397       2.16044570       0.17610019        4       1.00000000       0.06493518      -0.10118291       0.23763970
Ni       2.55469821       4.44264682       0.05961676        4       1.00000000       0.08870881       0.02574669       0.02174622
Ni       5.09425824       4.43498705       0.17537415        4       1.00000000      -0.01776114      -0.00525639       0.32586830
Pt       7.77178075       4.41819901       0.09346835        4       0.00000000       0.10254525      -0.03115824      -0.07888162
Ni      10.29881972       4.39110290       0.05849009        4       1.00000000       0.08825663      -0.10668394       0.12414776
Ni       3.79912969       6.64862690       0.17553492        4       1.00000000      -0.05579704      -0.05430218       0.27511450
Pt       6.37284047       6.67992928       0.17036084        4       0.00000000      -0.08785764       0.02078628       0.12002521
Ni       8.99755954       6.63883864       0.05255446        4       1.00000000      -0.01431380       0.00862293       0.05691181
Ni      11.57239252       6.62417443       0.03946909        4       1.00000000       0.13302578       0.01671077      -0.03397742
Ni       1.25813963       0.75276392       2.15251139        3       1.00000000      -0.11407927       0.14352244      -0.01571109
Ni       3.84810405       0.74662092       2.18577405        3       1.00000000       0.08083379       0.06443155       0.00868887
Ni       6.46007782       0.72424674       2.23249741        3       1.00000000       0.12438205       0.08860117       0.12161936
Ni       8.99779455       0.72503831       2.17142073        3       1.00000000      -0.04221543       0.08298030       0.03454464
Ni       2.56431730       2.93719417       2.18539200        3       1.00000000      -0.02551452       0.04279026      -0.03303340
Ni       5.10469744       2.94911831       2.21747522        3       1.00000000      -0.14864122      -0.03376676      -0.04316404
Ni       7.75239170       2.91204039       2.22405828        3       1.00000000       0.18412377      -0.06771302      -0.05954339
Ni      10.25345423       2.87817132       2.17259579        3       1.00000000       0.00263082      -0.04681666       0.05301555
Ni       3.87531599       5.16066183       2.18874274        3       1.00000000       0.05367700      -0.01597239       0.10449209
Ni       6.39296968       5.15304142       2.20783176        3       1.00000000      -0.02180285       0.11174814      -0.08349463
Ni       8.96156064       5.11797113       2.20942944        3       1.00000000      -0.01658651      -0.11428431       0.09685568
Pt      11.60113095       5.09925640       2.11424045        3       0.00000000       0.07190201      -0.04625125      -0.02243873
Ni       5.07587899       7.37280294       2.16295095        3       1.00000000      -0.13117534      -0.06707714      -0.09573194
Ni       7.68694680       7.36588409       2.16676174        3       1.00000000       0.02712589      -0.10922992      -0.08854691
Pt      10.24987630       7.37299369       2.07893714        3       0.00000000       0.04036932      -0.10262934      -0.04534961
Ni      12.86788085       7.36403516       2.12426346        3       1.00000000      -0.02133380      -0.00202254      -0.05527098
Ni      -0.03259841       1.49668657       4.29587226        2       1.00000000      -0.03521089       0.02325475      -0.21912503
Pt       2.59717747       1.51205781       4.28091692        2       0.00000000      -0.01162455       0.00132711      -0.08398256
Ni       5.13957927       1.48406891       4.29560048        2       1.00000000       0.06566450       0.07582015      -0.18848447
Ni       7.74154534       1.47019486       4.28524647        2       1.00000000       0.11343876       0.09329592      -0.19375077
Pt       1.26648872       3.67191690       4.37280354        2       0.00000000      -0.03285901      -0.07599569      -0.08099945
Ni       3.85478932       3.70610015       4.30033437        2       1.00000000       0.00323476       0.09299768      -0.24750887
Pt       6.43224015       3.68492746       4.22088507        2       0.00000000      -0.05991738      -0.06913137       0.06902404
Ni       8.97091865       3.63379730       4.30130619        2       1.00000000       0.00982677      -0.08481703      -0.27919337
Ni       2.57898374       5.86216314       4.31622789        2       1.00000000       0.06063658      -0.01711770      -0.17162954
Ni       5.09197844       5.85484075       4.27085076        2       1.00000000      -0.08277615      -0.01110337      -0.15063047
Ni       7.69780725       5.83649262       4.28496971        2       1.00000000      -0.05132777      -0.01236500      -0.25767126
Pt      10.22801848       5.82427515       4.38349807        2       0.00000000      -0.01822783      -0.01370118      -0.08751406
Pt       3.82555696       8.12784886       4.22512071        2       0.00000000      -0.02693111       0.00832362       0.03528482
Pt       6.37610936       8.07999280       4.19121457        2       0.00000000      -0.01088770      -0.03990727       0.00787307
Pt       8.95882381       8.08988797       4.27580700        2       0.00000000      -0.02934806       0.05553048       0.12054938
Pt      11.58231075       8.12428316       4.29640619        2       0.00000000       0.03685919       0.04590846       0.01524272
Pt      -0.02075647       0.02451911       6.55540715        1       0.00000000      -0.04119176       0.05783257       0.16890095
Pt       2.58759110       0.03003756       6.58506676        1       0.00000000       0.01158114       0.09870896       0.26938037
Pt       5.18040520      -0.09867686       6.56570987        1       0.00000000       0.05192413      -0.17649338       0.11832933
Ni       7.71320477      -0.04698449       6.50851144        1       1.00000000       0.06588970       0.08527317      -0.10550116
Ni       1.29825531       2.25526134       6.50350742        1       1.00000000       0.05739572       0.09378856      -0.01617191
Ni       3.82174967       2.21864210       6.41501132        1       1.00000000      -0.01632687       0.01138379      -0.30047909
Pt       6.43585943       2.16341551       6.41269464        1       0.00000000       0.02626315       0.01488778      -0.25005835
Pt       9.03624635       2.25978321       6.47278344        1       0.00000000       0.15542317       0.12287898       0.09125051
Ni       2.50589023       4.39060461       6.48289618        1       1.00000000      -0.13636189      -0.02498059      -0.13402205
Pt       5.05629799       4.36601420       6.48435080        1       0.00000000      -0.11458500      -0.02042976       0.09024833
Ni       7.75010409       4.41579705       6.39093115        1       1.00000000       0.06229885       0.06320357      -0.32482533
Ni      10.28771807       4.41586781       6.50219837        1       1.00000000       0.06385632       0.13260146       0.00335536
Pt       3.72286501       6.61080275       6.50153283        1       0.00000000      -0.14304399       0.01691585       0.14386759
Pt       6.46551753       6.56357050       6.40783468        1       0.00000000      -0.00698775      -0.01056731      -0.30918284
Ni       9.00412818       6.55607461       6.48697476        1       1.00000000      -0.02594682      -0.10948993      -0.09487780
Ni      11.52933152       6.55776214       6.49030400        1       1.00000000      -0.07222042      -0.17991836      -0.14451404
