64
Lattice="10.070345234368155 0.004645726298057296 -0.02111090524668141 5.039195934177223 8.71307467562642 -0.03663007487910867 0.0 0.0 21.33737912152717" Properties=species:S:1:pos:R:3:tags:I:1:initial_magmoms:R:1:forces:R:3 unique_id=d7ef4e135cbd4d7f93abc87ee3310833 stress="0.004928428827407844 7.906929877816197e-05 -0.0002492361899664057 7.906929877816197e-05 0.004580323059633865 -0.00017511580302920378 -0.0002492361899664057 -0.00017511580302920378 -0.0011906811856720583" energy=-365.86129007977917 pbc="T T T"
Ni       0.01526538      -0.02370510       0.10465284        1       1.00000000       0.00679472       0.07812209      -0.35893844
Ni       2.48087519      -0.00624595       0.14062424        1       1.00000000      -0.00804113      -0.02932518      -0.16072092
Ni       5.06817226      -0.00884242       0.14486071        1       1.00000000      -0.04172295      -0.05483681      -0.28551190
Ni       7.52104341      -0.03944002       0.02277294        0       1.00000000       0.01992945      -0.00631373       0.15915175
Ni       1.26026387       2.18936231       0.05804048        1       1.00000000      -0.01938364      -0.01572105       0.24852380
Pt       3.76875219       2.18772197       0.13545973        1       0.00000000      -0.02053193       0.03296660      -0.66656404
Ni       6.28774614       2.18233261       0.04859255        0       1.00000000      -0.01146632       0.01437432       0.18034499
Pt       8.80751752       2.22219213       0.05341313        1       0.00000000       0.01544233       0.07915173      -0.82503529
Ni       2.49442200       4.38954521       0.04246312        0       1.00000000       0.07840758       0.00234090       0.31131027
Ni       5.04706462       4.38438651       0.11617937        1       1.00000000      -0.08001608       0.04474696      -0.09119191
Ni       7.50511134       4.36141814       0.03415235        0       1.00000000      -0.03400450       0.04540382       0.20278477
Ni      10.12146324       4.36271498       0.02476664        0       1.00000000       0.02452678       0.04925867       0.24788324
Ni       3.75274582       6.51467641       0.00187102        0       1.00000000      -0.06549307      -0.06981775       0.18741887
Ni       6.27527327       6.51539264       0.00000000        0       1.00000000       0.08384737      -0.05532465       0.07169879
Pt       8.81990483       6.52314351       0.09421408        1       0.00000000       0.00726022       0.01377858      -0.54634895
Ni      11.36757141       6.52858397       0.01404378        0       1.00000000      -0.04537676      -0.00178749       0.29714882
Ni       1.29470901       0.75343873       2.12346425        2       1.00000000      -0.01727013       0.10515356       0.16093068
Ni       3.75140856       0.67942483       2.12572252        2       1.00000000      -0.10799451      -0.15176326       0.10101774
Ni       6.27374888       0.71059868       2.06814926        2       1.00000000       0.00474808       0.01376307      -0.00168917
Pt       8.77644603       0.72768454       2.17251015        3       0.00000000       0.00681829      -0.00541440       0.00222291
Ni       2.48182647       2.92649172       2.15707877        3       1.00000000      -0.03351727       0.05571178       0.19007734
Ni       5.06055195       2.94597167       2.11907892        2       1.00000000       0.01928508       0.13764826       0.08350498
Ni       7.51236902       2.95096957       2.13201311        2       1.00000000      -0.00978107       0.01367198       0.19026423
Ni      10.11040546       2.95134345       2.13171900        2       1.00000000       0.04455991       0.03692910       0.19646668
Ni       3.74138474       5.04217778       2.09933312        2       1.00000000      -0.13944586      -0.06662004       0.12252652
Ni       6.32018742       5.04218090       2.09690772        2       1.00000000       0.12027327       0.00322965       0.15131977
Ni       8.81595688       5.05152264       2.13187006        2       1.00000000       0.05729538      -0.05131939       0.10165455
Ni      11.32858601       5.08275004       2.08323120        2       1.00000000      -0.02807104       0.02264321       0.12122161
Pt       5.05760563       7.18327262       2.09777472        2       0.00000000      -0.02962626      -0.11094714      -0.01794642
Ni       7.56998168       7.26071742       2.13409829        2       1.00000000       0.03338667      -0.06552707       0.24200973
Ni      10.10072053       7.25577993       2.12908747        2       1.00000000       0.03760966      -0.07986617       0.20345868
Ni      12.53918188       7.21672264       2.07069356        2       1.00000000      -0.04077278      -0.12062498       0.12938617
Ni       0.03688798       1.46060342       4.18947476        5       1.00000000       0.18963426       0.07875801      -0.13407970
Ni       2.45525416       1.45512355       4.14566440        4       1.00000000       0.00044246       0.00885467      -0.18346684
Pt       5.05482421       1.45136222       4.10517468        4       0.00000000      -0.06542747       0.01257689       0.12582355
Ni       7.53972826       1.43862453       4.19090865        5       1.00000000      -0.08429265       0.00242037      -0.00196144
Ni       1.25074338       3.63199986       4.20455843        5       1.00000000       0.03447560       0.02477882      -0.12845223
Ni       3.73224620       3.68168566       4.13845069        4       1.00000000      -0.04400659       0.09459827      -0.22567325
Ni       6.32384302       3.65269554       4.17005306        5       1.00000000       0.05126474       0.05922278      -0.15012914
Ni       8.81377315       3.66973532       4.13922100        4       1.00000000       0.04455750       0.12682656      -0.20770475
Ni       2.50490496       5.78853478       4.19628962        5       1.00000000      -0.00869059      -0.07104733      -0.20015372
Ni       5.02206383       5.80070538       4.18627772        5       1.00000000      -0.01459704      -0.05637726      -0.05772162
Ni       7.52054376       5.77595314       4.12975200        4       1.00000000      -0.05609882       0.00656342      -0.16385589
Ni      10.10588874       5.77396762       4.12716465        4       1.00000000       0.10984246      -0.02610468      -0.21671100
Ni       3.73186179       7.93712776       4.19877280        5       1.00000000      -0.07413825      -0.13359553      -0.03614194
Ni       6.29740785       7.95510600       4.14981480        4       1.00000000       0.10631552      -0.01883589      -0.11862379
Ni       8.80106086       7.94810368       4.11270436        4       1.00000000       0.03148560      -0.01191379      -0.23686491
Ni      11.36192988       7.91953931       4.13905252        4       1.00000000      -0.02033278      -0.10548022      -0.16599782
Pt      -0.07225467      -0.06997363       6.30476315        7       0.00000000       0.01861070       0.14125808       0.18604153
Pt       2.48488308      -0.02470446       6.29880987        7       0.00000000       0.17735869      -0.00933500       0.25296209
Pt       5.12999554      -0.04156139       6.33737912        7       0.00000000      -0.18311702      -0.15030949       0.28109814
Ni       7.55197884      -0.04804393       6.27671480        7       1.00000000       0.02679687       0.01286431      -0.14310942
Ni       1.22207041       2.21755054       6.28252912        7       1.00000000      -0.06366222      -0.00233588      -0.16047921
Pt       3.71513265       2.24123343       6.23511127        6       0.00000000      -0.07784042       0.07529582       0.79275115
Ni       6.30890957       2.18365791       6.29247638        7       1.00000000      -0.05205777       0.08225840      -0.04455974
Pt       8.78366269       2.22906177       6.17303446        6       0.00000000       0.04903012      -0.01207995       0.75442885
Ni       2.45624810       4.39288650       6.27440156        7       1.00000000       0.06723392       0.01060792      -0.28793150
Pt       5.05354164       4.41635989       6.28853408        7       0.00000000      -0.11826317      -0.02950886       0.05644385
Ni       7.53553686       4.33984271       6.26472103        7       1.00000000       0.00636470      -0.01712765      -0.15040896
Ni      10.12387745       4.33843395       6.25672237        7       1.00000000       0.08299300      -0.00723360      -0.24224325
Ni       3.71144619       6.51056369       6.26386019        7       1.00000000      -0.11222887      -0.07202172      -0.22491819
Ni       6.27976211       6.50838219       6.25731854        7       1.00000000       0.05074623       0.05136206      -0.14131072
Pt       8.82067349       6.41157974       6.17331455        6       0.00000000       0.17668288       0.06352624       0.53015327
Ni      11.38539560       6.47716624       6.24990807        6       1.00000000      -0.07675106       0.00784908      -0.30558324
