64
Lattice="10.374222550754187 -0.004755646072981517 0.007911646570660983 5.182992765066484 8.946547850328226 -0.026206863541187647 0.0 0.0 21.586045363454872" Properties=species:S:1:pos:R:3:tags:I:1:initial_magmoms:R:1:forces:R:3 unique_id=22fb1d39dce74d3cad2f0d5ba4eb963c stress="0.006334477819554319 -0.00012391761943719004 3.9824455093000635e-05 -0.00012391761943719004 0.005572876550870512 -7.726321211971406e-05 3.9824455093000635e-05 -7.726321211971406e-05 -0.0008261049031557579" energy=-379.5462036891814 pbc="T T T"
Ni       0.01171261      -0.00621222       0.10138787        1       1.00000000       0.04001967      -0.06954900      -0.04741046
Pt       2.52684561       0.01610229       0.15764215        2       0.00000000      -0.02509328      -0.02433676      -0.40958077
Pt       5.16163638      -0.04965605       0.06533909        1       0.00000000      -0.16044913       0.15285866      -0.90871379
Pt       7.83174364      -0.11902849       0.10887572        1       0.00000000      -0.00733888      -0.13331452      -0.75234290
Ni       1.29588918       2.27549318       0.03449558        0       1.00000000      -0.00182368       0.17227042       0.45173646
Pt       3.82228073       2.33720418       0.05132851        1       0.00000000       0.02134790      -0.05348078       0.15702976
Pt       6.46855902       2.29732861       0.10227393        1       0.00000000       0.11880579       0.07829803      -0.65043495
Pt       9.18098554       2.26199869       0.09567784        1       0.00000000      -0.07847399       0.11644492      -0.42872625
Ni       2.58036643       4.50026883       0.00000000        0       1.00000000       0.02988574       0.11065797       0.39473317
Ni       5.14200445       4.50018015       0.03541379        0       1.00000000      -0.11213843       0.12220899       0.43973569
Pt       7.82796309       4.52705693       0.05338029        1       0.00000000       0.07847467       0.04886679       0.07567143
Ni      10.42032621       4.48796720       0.01355149        0       1.00000000       0.08574791       0.00282579       0.37719584
Ni       3.86928106       6.65088529       0.10218292        1       1.00000000      -0.09340682      -0.19793858       0.22093790
Pt       6.40239295       6.69560968       0.12099438        1       0.00000000      -0.07824655       0.04326445      -0.20529063
Ni       9.09081384       6.66969301       0.08454878        1       1.00000000      -0.09569620      -0.00454158      -0.19755096
Ni      11.67961420       6.64146670       0.00844174        0       1.00000000       0.09129917      -0.03633583       0.26856138
Ni       1.31067060       0.75157590       2.21962851        4       1.00000000       0.11176140       0.07113265       0.26717036
Ni       3.85663603       0.78163493       2.21761853        4       1.00000000      -0.02823002       0.15800580       0.28105265
Pt       6.44202103       0.79472751       2.25769540        5       0.00000000      -0.09083758       0.15371315       0.09789606
Pt       9.19874353       0.72968392       2.22770706        4       0.00000000       0.12520908       0.03518726       0.06920387
Ni       2.59545475       2.97071561       2.19226058        4       1.00000000       0.03816521      -0.02222062       0.11211707
Ni       5.13795886       3.03665882       2.21819383        4       1.00000000      -0.21409867       0.21400549       0.20682309
Ni       7.80490397       3.04115506       2.20991229        4       1.00000000       0.11077328       0.16293127       0.25934061
Ni      10.40681080       2.98322626       2.22991335        4       1.00000000       0.13269143      -0.00023124       0.30861004
Ni       3.92023473       5.20357264       2.17667148        4       1.00000000       0.15600263      -0.07976207       0.14769269
Ni       6.46500654       5.21658178       2.21229242        4       1.00000000      -0.11026761       0.03134692       0.20169240
Ni       9.04707601       5.17222575       2.19889992        4       1.00000000      -0.09336370      -0.22360567       0.28518665
Pt      11.73161103       5.12854629       2.14138577        3       0.00000000       0.16418032      -0.17108063       0.06183735
Ni       5.20355020       7.40731027       2.18705027        4       1.00000000       0.06591006      -0.15837979       0.27644365
Ni       7.72647522       7.42201262       2.20172914        4       1.00000000      -0.20361495      -0.15449391       0.33753394
Pt      10.32469422       7.36334958       2.14283955        3       0.00000000       0.00662014      -0.17923698      -0.11939139
Ni      13.00449398       7.37861723       2.17116314        4       1.00000000       0.11276235      -0.23056609       0.21781480
Ni       0.04748491       1.52011404       4.35218061        7       1.00000000       0.10782446       0.07014913      -0.21832558
Pt       2.56052123       1.58176090       4.30641014        6       0.00000000       0.02823900       0.06906972      -0.03375102
Ni       5.14538770       1.52312272       4.36156653        7       1.00000000      -0.16948242       0.14404004      -0.31694023
Pt       7.82579676       1.54852596       4.33793293        6       0.00000000       0.08544478       0.02650088      -0.09174546
Ni       1.30609895       3.70437485       4.39120849        7       1.00000000       0.02553931       0.00287706      -0.09645331
Ni       3.87638312       3.74989005       4.37359418        7       1.00000000      -0.03074268       0.20849496      -0.17376329
Pt       6.43859719       3.81298711       4.28927921        6       0.00000000      -0.07408121       0.08447866      -0.12443628
Ni       9.09374958       3.72673611       4.33518644        6       1.00000000      -0.03342609       0.03457695      -0.37926712
Ni       2.62039193       5.87430859       4.35710618        7       1.00000000       0.11199654      -0.30508671      -0.22284903
Ni       5.17516175       5.92351313       4.30979620        6       1.00000000      -0.08982964      -0.07905601      -0.41734476
Ni       7.76340860       5.93368319       4.31453190        6       1.00000000      -0.01298610       0.01477520      -0.49047582
Pt      10.38216620       5.81730192       4.37330461        7       0.00000000       0.02443574      -0.08806964      -0.05885653
Pt       3.98090670       8.09945960       4.27943475        6       0.00000000       0.10985193      -0.13099003      -0.02926518
Ni       6.47960019       8.16610459       4.30051076        6       1.00000000      -0.02610578      -0.03836751      -0.40107899
Pt       8.99042147       8.17223994       4.26448368        6       0.00000000      -0.13272803      -0.02362593      -0.17464161
Pt      11.69229881       8.11510032       4.31715990        6       0.00000000       0.08442894      -0.24116835      -0.05722165
Pt       0.02251367       0.01631293       6.56782471       10       0.00000000       0.04668239       0.04212563       0.13260400
Pt       2.58662364       0.05369826       6.53024136        9       0.00000000      -0.03802124      -0.04353252       0.45141510
Pt       5.17169999      -0.00615972       6.49566919        9       0.00000000      -0.04362242       0.18738803       0.81609187
Pt       7.78577284      -0.04692106       6.53944784        9       0.00000000       0.03584382       0.18004879       0.93313989
Ni       1.32705233       2.29008750       6.53789494        9       1.00000000       0.04144600       0.15757408      -0.36112867
Ni       3.86065259       2.28921232       6.47805141        9       1.00000000      -0.03901419       0.18163570      -0.17104351
Pt       6.42439433       2.31336342       6.50445632        9       0.00000000      -0.03365751      -0.06831210       0.60504507
Pt       9.16159751       2.34012989       6.48870170        9       0.00000000       0.06397176       0.07005069       0.56117444
Ni       2.57023792       4.41586096       6.52988506        9       1.00000000      -0.05757882      -0.17621851      -0.58516048
Ni       5.14829723       4.43095633       6.53698005        9       1.00000000      -0.22771087      -0.03164811      -0.36933020
Ni       7.78685825       4.45334182       6.47788076        9       1.00000000       0.06006386       0.01448449      -0.15317033
Ni      10.44326470       4.44673282       6.55146578       10       1.00000000       0.24586459      -0.02327691      -0.28812372
Pt       3.83501083       6.55722978       6.55185067       10       0.00000000      -0.01372321      -0.11575679      -0.15517171
Pt       6.47656846       6.60453825       6.43840383        8       0.00000000      -0.02932797       0.04747887       0.18252426
Pt       9.11679544       6.59180490       6.58604536       10       0.00000000      -0.15037358       0.01212567       0.10362267
Ni      11.67570333       6.61933708       6.55979343       10       1.00000000       0.03420136      -0.11770996      -0.21264753
