64
Lattice="10.169468383104897 0.014540847122879218 -0.057782818759579614 5.097326934553463 8.779699743062803 -0.056728865825162386 -0.047179473953563825 -0.026245405631343973 8.691449730466799" Properties=species:S:1:pos:R:3:tags:I:1:initial_magmoms:R:1:forces:R:3 unique_id=cde3195d53c643b69739526ec701c6b5 stress="-8.156180362136473e-05 -1.828704140314107e-06 6.176064025963201e-06 -1.828704140314107e-06 -5.9691193346401994e-05 1.3948201810865319e-05 6.176064025963201e-06 1.3948201810865319e-05 -2.3333080061437028e-05" energy=-390.8962484187525 pbc="T T T"
Ni       0.01808737      -0.01611601       0.16857739        4       1.00000000       0.03770936       0.05719006       0.25310142
Ni       2.48502919       0.00103606       0.17573609        4       1.00000000      -0.09915208      -0.03601442       0.25755204
Pt       5.13160729      -0.00799634       0.17151003        4       0.00000000       0.02707704      -0.03216740       0.33910930
Ni       7.64152855      -0.02845144       0.13615627        4       1.00000000       0.07463805      -0.08545311       0.35773489
Ni       1.26415900       2.20783460       0.10433004        4       1.00000000      -0.03548859       0.04624943       0.25143067
Pt       3.77117210       2.26057067       0.16672079        4       0.00000000      -0.10402575       0.05622617       0.25119781
Ni       6.35818989       2.23909788       0.07677272        4       1.00000000      -0.06276891       0.07031295       0.24249318
Pt       8.89946004       2.26259420       0.05984636        4       0.00000000      -0.01904016       0.01645726       0.17052760
Ni       2.51449898       4.42912256       0.08080561        4       1.00000000      -0.07082356       0.06184249       0.18549649
Ni       5.09688810       4.42648698       0.15412742        4       1.00000000      -0.08548059       0.09985294       0.33926189
Ni       7.57570167       4.39125783       0.05731564        4       1.00000000      -0.19024617      -0.00011770       0.19635552
Ni      10.22482325       4.39769115       0.03863850        4       1.00000000       0.15101029       0.02225538       0.22616033
Ni       3.79397127       6.55801944       0.04162294        4       1.00000000      -0.11919906      -0.11336550       0.07135321
Ni       6.33629200       6.56634356       0.02109839        4       1.00000000      -0.03748479      -0.08422832      -0.05434759
Pt       8.87443044       6.52412004       0.11179346        4       0.00000000      -0.04158874      -0.11414170       0.20117298
Ni      11.49139816       6.55225507       0.02548961        4       1.00000000      -0.00849640      -0.08512304       0.16309758
Ni       1.30125421       0.76108150       2.19223361        3       1.00000000      -0.03030150       0.08082247       0.10846475
Ni       3.74877134       0.70440097       2.19303500        3       1.00000000      -0.16537847      -0.07110286      -0.06829774
Ni       6.35750701       0.74364386       2.17875241        3       1.00000000       0.09095448      -0.02489571      -0.01302705
Pt       8.87829557       0.77364792       2.17686688        3       0.00000000       0.14112060       0.22885542      -0.09177721
Ni       2.49524365       2.94985982       2.22495426        3       1.00000000      -0.04902187       0.08617045       0.12601091
Ni       5.08928351       2.96252610       2.15023242        3       1.00000000      -0.06420652       0.12820213      -0.04447778
Ni       7.59991420       2.97533475       2.14236971        3       1.00000000       0.10872689       0.01944496      -0.03433987
Ni      10.21020741       2.98259008       2.16417781        3       1.00000000       0.06023193       0.06975308       0.07529046
Ni       3.77246629       5.08076965       2.15208684        3       1.00000000      -0.14026212      -0.05470383       0.09234871
Ni       6.38575903       5.09996256       2.10519949        3       1.00000000       0.16677135       0.03978699      -0.02253901
Ni       8.90483692       5.09235017       2.17589817        3       1.00000000       0.07408152      -0.02226457       0.04569732
Ni      11.43691153       5.12230024       2.11319030        3       1.00000000      -0.01777109      -0.01918785       0.09116602
Pt       5.13161238       7.23317438       2.10481773        3       0.00000000      -0.00289674      -0.12379597      -0.03828097
Ni       7.64800780       7.32001163       2.17159406        3       1.00000000       0.08031997      -0.06546594       0.04097134
Ni      10.18507144       7.28254348       2.18927313        3       1.00000000      -0.03474638      -0.13075765       0.02900114
Ni      12.65627789       7.26807469       2.07290762        3       1.00000000      -0.05804765      -0.18106001       0.02419366
Ni       0.03643739       1.49033554       4.28639042        2       1.00000000       0.12650951       0.04684351      -0.07309812
Ni       2.46378886       1.46744551       4.23228861        2       1.00000000      -0.01901906       0.04605746      -0.12811046
Pt       5.05025924       1.43938057       4.16349240        2       0.00000000      -0.14467876      -0.02736810       0.12269478
Ni       7.60589539       1.46937980       4.24743406        2       1.00000000      -0.01444341      -0.01426098      -0.01624730
Ni       1.25243112       3.65572949       4.29452286        2       1.00000000       0.02807771       0.03349552      -0.11057871
Ni       3.73474204       3.70281831       4.22551101        2       1.00000000      -0.03109648       0.09358201      -0.14565626
Pt       6.39095600       3.69980606       4.21677321        2       0.00000000       0.01582458       0.06340451       0.09245648
Ni       8.93895822       3.70863090       4.19800371        2       1.00000000       0.14232858       0.11383073      -0.18683496
Ni       2.49306298       5.78933652       4.28292132        2       1.00000000      -0.08503604      -0.13671975      -0.20115678
Ni       5.06911110       5.83898628       4.26586234        2       1.00000000       0.01693366      -0.12027520      -0.09443156
Ni       7.61520873       5.86744944       4.19234596        2       1.00000000       0.06636065       0.08541796      -0.24277679
Ni      10.18905869       5.82109591       4.19064313        2       1.00000000       0.07362619      -0.08385889      -0.17421182
Pt       3.77831632       7.96653141       4.24634308        2       0.00000000      -0.08607336      -0.08847646       0.18918696
Ni       6.38387370       8.02043306       4.21336399        2       1.00000000       0.04001306       0.01972461      -0.10721286
Ni       8.86353901       8.00286835       4.16261522        2       1.00000000       0.01789685      -0.07645845      -0.09951792
Ni      11.40955717       7.96854142       4.16256813        2       1.00000000      -0.05923247      -0.13884764      -0.09251228
Pt      -0.01400724      -0.04712024       6.47720482        1       0.00000000       0.12302106      -0.00835772       0.06943670
Pt       2.50066488      -0.02449222       6.40255236        1       0.00000000      -0.09767568       0.00987419      -0.00779071
Pt       5.06742724      -0.04730280       6.34685179        1       0.00000000       0.12259502      -0.00241304      -0.31233467
Pt       7.58686167      -0.04345374       6.43623763        1       0.00000000      -0.08947489       0.00446864       0.13213127
Ni       1.23167448       2.24033969       6.39718500        1       1.00000000       0.01449097       0.08198205      -0.19509511
Pt       3.72878651       2.26517664       6.33679480        1       0.00000000      -0.04893048       0.12493554      -0.28339405
Ni       6.33845986       2.21339002       6.39737831        1       1.00000000      -0.04318377       0.03658580      -0.15271076
Pt       8.88696477       2.28766552       6.26117678        1       0.00000000       0.03800037       0.14369243      -0.45275339
Ni       2.46170584       4.41934347       6.38509437        1       1.00000000      -0.01534008       0.08361088      -0.19080861
Pt       5.07079167       4.45511671       6.43403092        1       0.00000000       0.02052657       0.09241917       0.21371544
Ni       7.59603362       4.38529640       6.38505592        1       1.00000000      -0.03491226       0.00702724      -0.10770649
Ni      10.21266062       4.38427581       6.33955001        1       1.00000000       0.22885980      -0.00899291      -0.20535182
Ni       3.76078426       6.52854264       6.39525695        1       1.00000000      -0.11197569      -0.03765299      -0.15222131
Ni       6.33617534       6.55428997       6.35638085        1       1.00000000       0.08682467       0.06229770      -0.34223512
Pt       8.88659115       6.45289725       6.26303815        1       0.00000000       0.10027491      -0.19298410      -0.29354188
Ni      11.45465985       6.50181163       6.32659884        1       1.00000000       0.04269395      -0.05216035      -0.22343388
