64
Lattice="10.21492008938541 -0.020838225635096668 0.014920314281850346 5.0894136119229145 8.83312083360649 -0.022545431847660183 0.01218238559749798 -0.028289540596433616 8.767828251012146" Properties=species:S:1:pos:R:3:tags:I:1:initial_magmoms:R:1:forces:R:3 unique_id=fd6f653b0df5455fafc8d524b91c73b1 stress="-0.00018652815262586858 -2.3254230348033025e-06 1.2501318207370915e-05 -2.3254230348033025e-06 -0.00017854965720859317 2.7409932386687363e-05 1.2501318207370915e-05 2.7409932386687363e-05 -0.00014081748821065387" energy=-393.3492840540707 pbc="T T T"
Ni       0.02437255       0.03638061       0.15165573        4       1.00000000       0.18904192       0.09371867       0.21202753
Ni       2.57475664       0.02926144       0.21220704        4       1.00000000       0.05508733       0.04432396       0.27250409
Ni       5.08418642      -0.03050320       0.07638571        4       1.00000000      -0.05003627      -0.00560335       0.04399233
Ni       7.66369435      -0.03983596       0.05539452        4       1.00000000      -0.03211331       0.02035823       0.01388444
Ni       1.27664017       2.21526350       0.10468811        4       1.00000000       0.03093101       0.04493831       0.12315525
Ni       3.78832436       2.20356829       0.19540041        4       1.00000000      -0.03765715      -0.03620540       0.21272736
Pt       6.37740143       2.24865228       0.15778792        4       0.00000000      -0.03517890       0.05770706       0.52440861
Ni       8.97918921       2.22905232       0.06854036        4       1.00000000       0.11185661       0.08166630       0.01087965
Ni       2.55800382       4.38887193       0.05604551        4       1.00000000       0.02601086      -0.15317929      -0.00906437
Ni       5.04281616       4.40544574       0.06830178        4       1.00000000      -0.18339303      -0.00272074       0.05859420
Ni       7.72047080       4.39205649       0.06827962        4       1.00000000       0.24351547      -0.03147345       0.02495228
Ni      10.19660544       4.37180132       0.06300621        4       1.00000000       0.00875337      -0.09308266      -0.00713273
Ni       3.79170081       6.59129924       0.02201179        4       1.00000000      -0.02693441      -0.13194480      -0.02213124
Pt       6.41358522       6.61234598      -0.03750191        4       0.00000000       0.03998886      -0.00740529      -0.27922112
Ni       8.94121504       6.59193190       0.13094431        4       1.00000000       0.03692565      -0.09792111       0.18258859
Ni      11.47250109       6.59430037       0.02463950        4       1.00000000      -0.07953925      -0.08456878      -0.13168499
Ni       1.33067973       0.77964494       2.15890799        3       1.00000000      -0.02067468       0.09646820       0.02279641
Ni       3.78841836       0.74611810       2.17603602        3       1.00000000       0.02255837      -0.03050568       0.03261810
Pt       6.30358974       0.74793532       2.25969966        3       0.00000000      -0.09262761       0.14885114      -0.02493346
Pt       8.99547679       0.80919497       2.15568718        3       0.00000000       0.01550558      -0.01712447      -0.04249636
Ni       2.56885606       2.91559340       2.15605667        3       1.00000000      -0.06324419       0.04351667       0.00129694
Ni       5.01824278       2.94742770       2.22257578        3       1.00000000      -0.12487875      -0.01503574       0.15001557
Ni       7.71830426       2.96904572       2.20537430        3       1.00000000       0.10348399       0.02436488       0.04714698
Ni      10.21869726       2.92927750       2.18562897        3       1.00000000       0.03480466      -0.04580532       0.04387890
Ni       3.82393710       5.07319275       2.18851442        3       1.00000000      -0.04301363      -0.05985935       0.03235801
Pt       6.41159496       5.08937781       2.17571570        3       0.00000000       0.00963718      -0.02703974      -0.14748993
Ni       8.92489565       5.08649569       2.19880662        3       1.00000000       0.04185899      -0.10159007       0.04885397
Pt      11.47042997       5.03944482       2.14851124        3       0.00000000       0.03155298      -0.03895104      -0.08641742
Pt       5.12315522       7.33716764       2.15329404        3       0.00000000       0.03879177      -0.09514226      -0.19211543
Ni       7.65937446       7.36700153       2.18250215        3       1.00000000      -0.04029364      -0.02267435      -0.01840585
Pt      10.10077445       7.31983203       2.21252964        3       0.00000000      -0.12791757      -0.07379852       0.01503794
Pt      12.73980685       7.29528920       2.14919750        3       0.00000000      -0.01785486      -0.04911839      -0.07739519
Ni       0.01753075       1.49076222       4.36920186        2       1.00000000       0.10479846      -0.04334061      -0.02685222
Pt       2.59811024       1.47539516       4.26248882        2       0.00000000       0.10531496       0.01432410       0.12555836
Ni       5.09287241       1.42580261       4.36895638        2       1.00000000      -0.01418459       0.04695056       0.15104392
Pt       7.71595980       1.46532845       4.37503783        2       0.00000000       0.03788103       0.08282880       0.19960894
Pt       1.24338138       3.70587486       4.40685823        2       0.00000000      -0.02175284      -0.03833123      -0.02344412
Ni       3.82683596       3.72109130       4.33366675        2       1.00000000      -0.08459391       0.07744305      -0.07333620
Pt       6.35441144       3.71276744       4.36501210        2       0.00000000      -0.05105512      -0.00444809       0.01333160
Ni       8.94440713       3.69777249       4.37126832        2       1.00000000       0.01594049       0.11960997      -0.06317306
Ni       2.53737054       5.84654706       4.39187057        2       1.00000000      -0.08893353      -0.05822149      -0.09770222
Ni       5.05574980       5.83532621       4.38515000        2       1.00000000      -0.11105345      -0.05944655      -0.15575671
Ni       7.71393449       5.84669448       4.34403399        2       1.00000000       0.18958118      -0.01846808      -0.17008852
Ni      10.20604339       5.87108424       4.35897867        2       1.00000000       0.01876167      -0.02029107      -0.06596718
Pt       3.76642620       7.99973977       4.39414883        2       0.00000000       0.01212779      -0.00880080       0.06983066
Pt       6.42729253       8.01781465       4.31813969        2       0.00000000       0.04239094       0.03296825       0.06014464
Ni       8.97661782       8.05661859       4.34829299        2       1.00000000      -0.00322046       0.00648573       0.07566419
Ni      11.42669130       8.03385875       4.41056004        2       1.00000000      -0.03592386      -0.06019145       0.01680599
Pt      -0.05549551       0.01580562       6.57692886        1       0.00000000      -0.13880026       0.01481299       0.05273548
Pt       2.59049275      -0.03337790       6.58189194        1       0.00000000       0.03424781       0.03511478       0.20527638
Ni       5.15953287      -0.06322006       6.48371475        1       1.00000000       0.02211272      -0.02979639      -0.13078509
Ni       7.62291537      -0.08534753       6.52585411        1       1.00000000      -0.11589789      -0.13363384      -0.08998199
Ni       1.24138001       2.23678818       6.51213019        1       1.00000000      -0.02983948       0.04899655       0.01262606
Pt       3.80961616       2.28830255       6.54159265        1       0.00000000      -0.11791721       0.22651880       0.16321170
Pt       6.41898816       2.17599308       6.49227527        1       0.00000000       0.05533433      -0.02455784      -0.20804918
Ni       8.97478780       2.23026431       6.50967751        1       1.00000000       0.07096056       0.20327176      -0.13403763
Ni       2.54088313       4.46287076       6.49165201        1       1.00000000      -0.06568238       0.20204674      -0.04186196
Ni       5.08864603       4.47214852       6.48965096        1       1.00000000      -0.04989146       0.16205659      -0.05452847
Ni       7.67718325       4.39554716       6.49349876        1       1.00000000       0.02597815       0.01336662      -0.09470403
Ni      10.22148662       4.36207380       6.50882809        1       1.00000000       0.02972348       0.00279545      -0.02799383
Ni       3.79420352       6.54871028       6.48242362        1       1.00000000      -0.05310733      -0.05630057      -0.09112150
Ni       6.34983670       6.53666324       6.36798274        1       1.00000000       0.00178824      -0.09819799      -0.48016375
Pt       8.98965008       6.52392470       6.48017873        1       0.00000000       0.08658988      -0.03103845       0.06259971
Ni      11.52460127       6.58676062       6.46592369        1       1.00000000       0.06337473      -0.03968993      -0.21411902
