64
Lattice="10.21070788364887 -0.004593912381554059 -0.0009325612587676162 5.101375496999249 8.807110277202774 -0.019999576657788717 0.0 0.0 21.518509409682384" Properties=species:S:1:pos:R:3:tags:I:1:initial_magmoms:R:1:forces:R:3 unique_id=6bebdaeeab584779b6ffed1737cf599c stress="0.0037422847910490824 -5.1494922372568534e-05 9.285998025959149e-05 -5.1494922372568534e-05 0.0033828543299163696 -0.0001916326794252071 9.285998025959149e-05 -0.0001916326794252071 -0.0029872091401539277" energy=-370.25669290200085 pbc="T T T"
Ni       0.03651241      -0.01439484       0.14681077        1       1.00000000       0.15685753      -0.08148314      -0.46617070
Ni       2.53323566      -0.03406029       0.18058410        2       1.00000000       0.03210893      -0.03095095      -0.29184129
Ni       5.10376679      -0.02940278       0.05844816        1       1.00000000      -0.04646610       0.07913443       0.14439509
Ni       7.65872759      -0.02013072       0.12952327        1       1.00000000      -0.05475257       0.03495612      -0.69903256
Ni       1.23584599       2.20667426       0.07860575        1       1.00000000       0.01018956      -0.02253362       0.31627091
Pt       3.77434267       2.20612939       0.16358811        2       0.00000000       0.01154316       0.00211079      -0.80017150
Pt       6.43708621       2.21325597       0.06129955        1       0.00000000      -0.03663676       0.04945831      -0.16844768
Ni       8.97681717       2.23450751       0.04004729        0       1.00000000       0.01100805       0.09861539       0.13537406
Ni       2.54500611       4.42226217       0.03138651        0       1.00000000       0.05630367      -0.01850866       0.10694120
Ni       5.09273548       4.44525787       0.03822287        0       1.00000000      -0.09360106      -0.06606347       0.10939444
Ni       7.69506042       4.42273793       0.04216505        0       1.00000000       0.14085918       0.03794917       0.15180700
Ni      10.18970344       4.38052573       0.03302363        0       1.00000000      -0.10989468       0.03491886       0.14749788
Ni       3.85312627       6.58433661       0.02839642        0       1.00000000       0.11371471      -0.02496680       0.16661549
Ni       6.37554462       6.61840497       0.04107417        0       1.00000000       0.03582784       0.10636521       0.17067923
Ni       8.90636154       6.58580736       0.11016609        1       1.00000000      -0.13151676      -0.10936831      -0.12941708
Ni      11.47937087       6.59168958       0.00000000        0       1.00000000      -0.08076629      -0.04863652       0.04357090
Ni       1.30284212       0.73751212       2.11755131        3       1.00000000       0.08349020       0.08685431      -0.00892553
Ni       3.80334677       0.71550805       2.15883039        4       1.00000000      -0.01344529      -0.04141245       0.08042329
Ni       6.36262042       0.74660926       2.15199958        4       1.00000000      -0.03206215       0.05241681       0.06466620
Pt       8.99441924       0.79164778       2.10908875        3       0.00000000       0.02199942      -0.00278397       0.04222846
Ni       2.53828140       2.93003287       2.17695993        4       1.00000000      -0.03577946       0.03088804       0.07794850
Ni       5.09216343       2.94395953       2.19072517        4       1.00000000      -0.00439807       0.08525596       0.16031015
Ni       7.68852550       2.96341504       2.15874717        4       1.00000000       0.06617063       0.11980106       0.10436187
Ni      10.20290495       2.93107537       2.13953952        3       1.00000000       0.02322412       0.04092633       0.07376215
Ni       3.84428247       5.09385457       2.15378440        4       1.00000000       0.02104802      -0.13267826       0.03529954
Pt       6.38430318       5.15900618       2.11092874        3       0.00000000       0.00692451      -0.01214728      -0.02175408
Ni       8.91631467       5.09932646       2.15457612        4       1.00000000      -0.02216332      -0.07634761       0.07403299
Pt      11.46766842       5.06618004       2.10814282        3       0.00000000      -0.05964850      -0.03522009      -0.00273047
Ni       5.13061610       7.32572397       2.10285282        3       1.00000000      -0.00896591      -0.00820298      -0.04827967
Ni       7.63813834       7.34562849       2.11939621        3       1.00000000      -0.04000517      -0.02076259       0.01473042
Pt      10.13254985       7.35769193       2.15982023        4       0.00000000      -0.01142451       0.01297536       0.08648673
Pt      12.78399115       7.29889586       2.10170051        3       0.00000000       0.06789703      -0.04410213       0.04264306
Ni      -0.00220305       1.48937240       4.32687293        6       1.00000000       0.02422024      -0.05286682      -0.06023676
Pt       2.51867297       1.46799687       4.22179655        5       0.00000000      -0.03451470      -0.11576184      -0.03768133
Pt       5.11416841       1.40041716       4.25190362        6       0.00000000      -0.03442146      -0.13425297      -0.09454995
Pt       7.71418689       1.49985161       4.31062986        6       0.00000000       0.11683301       0.01283727      -0.03506624
Pt       1.23209680       3.70997016       4.36767169        7       0.00000000      -0.03253880       0.03205058       0.04353853
Ni       3.82162165       3.73626603       4.28373664        6       1.00000000      -0.05134853       0.06961432      -0.20549969
Pt       6.37524357       3.74374344       4.34804913        6       0.00000000      -0.06845415       0.04155694      -0.03417267
Ni       8.94457233       3.70738935       4.31822889        6       1.00000000      -0.02007812       0.17784583      -0.08342370
Ni       2.54640295       5.83783795       4.34963271        6       1.00000000      -0.07784311      -0.02277970      -0.07042787
Ni       5.06845210       5.82972507       4.33201594        6       1.00000000      -0.06990870      -0.04056442      -0.09365052
Ni       7.70435385       5.84562309       4.30028313        6       1.00000000       0.20039004      -0.03683205      -0.18219296
Ni      10.19776194       5.87039707       4.30778944        6       1.00000000      -0.03813845       0.01781144      -0.16393847
Pt       3.80957561       7.97715550       4.30395440        6       0.00000000      -0.04034363      -0.01933345      -0.01855646
Pt       6.41206028       7.96858038       4.22035507        5       0.00000000       0.07845579      -0.13041025      -0.04613275
Ni       8.95497301       8.01499400       4.29692603        6       1.00000000      -0.03696570      -0.04734743      -0.07719229
Ni      11.44955945       7.99580482       4.31628401        6       1.00000000      -0.00372290      -0.14607817      -0.05764185
Pt      -0.01567308       0.00437889       6.51778649        9       0.00000000      -0.10649019       0.08134614       0.38482962
Pt       2.58375760      -0.02598405       6.51843542        9       0.00000000       0.11230393       0.01913616       0.35634239
Ni       5.11144995      -0.03603599       6.44476572        8       1.00000000      -0.10864179       0.00048106      -0.00846744
Pt       7.57048719      -0.04475148       6.51850941        9       0.00000000       0.02232780      -0.00445532       0.46452161
Ni       1.23922038       2.23789045       6.46393737        9       1.00000000       0.05974919      -0.01922543      -0.00152125
Pt       3.84876780       2.29438326       6.41840536        8       0.00000000       0.01002384       0.24991458       0.77796662
Ni       6.40023214       2.22446649       6.39349379        8       1.00000000      -0.00534887       0.07974268       0.41999317
Ni       8.94378697       2.25358632       6.45149966        9       1.00000000       0.00939352       0.04315318      -0.06549273
Ni       2.54143331       4.44942541       6.44108629        8       1.00000000       0.06325288       0.03670131      -0.12215639
Ni       5.10540479       4.45165197       6.44498875        8       1.00000000      -0.05736447       0.01764757      -0.04904275
Ni       7.65610263       4.37118250       6.45100744        9       1.00000000       0.06550127      -0.03773506      -0.08710179
Ni      10.21180529       4.36297760       6.45120094        9       1.00000000      -0.07084313      -0.00898064      -0.06622228
Ni       3.82067297       6.51813933       6.43661399        8       1.00000000      -0.02733357       0.01453983      -0.14008912
Ni       6.35267128       6.52376620       6.43663108        8       1.00000000       0.04855489      -0.00495191      -0.19866395
Pt       8.97216863       6.50503536       6.43195310        8       0.00000000      -0.04464656      -0.04920611       0.02921328
Ni      11.49723090       6.54194046       6.41170085        8       1.00000000       0.04030049      -0.12005462      -0.18995303
