64
Lattice="10.496216883362656 -0.004570537798541686 -0.002113228685831927 5.244150239838834 9.104123372072179 -0.02265550806029992 0.0 0.0 21.793473183893106" Properties=species:S:1:pos:R:3:tags:I:1:initial_magmoms:R:1:forces:R:3 unique_id=371c1e9092c44a0d8dc4c2a58e6cdcb2 stress="0.002906055550166946 -0.00023846627819757826 -0.0002720248375493639 -0.00023846627819757826 0.003437017298072392 -0.0001512698170570468 -0.0002720248375493639 -0.0001512698170570468 -0.003349871381177833" energy=-387.8306124880011 pbc="T T T"
Ni       0.00620233       0.02399020       0.05656786        1       1.00000000      -0.08579853      -0.08295236       0.24448916
Ni       2.62164272       0.00753077       0.15241411        2       1.00000000       0.08211086      -0.00859577      -0.06625658
Pt       5.19998341       0.05697327       0.04788182        0       0.00000000      -0.01019900       0.07574276       0.05301560
Pt       7.89167459       0.06187821       0.09664086        1       0.00000000      -0.08570339       0.06613880      -0.65620558
Pt       1.29934917       2.23858319       0.00000000        0       0.00000000      -0.05957219       0.10765871       0.02371434
Ni       3.92493100       2.26718334       0.15432115        2       1.00000000      -0.06134265      -0.04099952       0.03785048
Ni       6.57852104       2.28504769       0.13161423        1       1.00000000       0.07391116      -0.02357030       0.07587420
Ni       9.18340820       2.29142688       0.06179121        1       1.00000000      -0.01360132       0.04647854       0.38574626
Ni       2.60691368       4.54172291       0.13245827        1       1.00000000      -0.07759667       0.00481311      -0.03939953
Pt       5.26867909       4.47605516       0.10990312        1       0.00000000       0.13229249       0.12841266      -0.60091122
Ni       7.88143839       4.51986355       0.13703658        1       1.00000000      -0.01364283       0.05493732       0.10064582
Pt      10.49354876       4.52376107       0.09295689        1       0.00000000       0.00276362      -0.05513846       0.23361501
Pt       3.88850693       6.81287755       0.07996914        1       0.00000000       0.02396999      -0.06011665      -1.12627702
Pt       6.57127482       6.83884880       0.10779562        1       0.00000000      -0.07733658      -0.24808336      -0.91434462
Pt       9.20330993       6.79995984       0.00690296        0       0.00000000       0.01913956      -0.13079188      -0.08466452
Ni      11.79810739       6.80541415       0.11418221        1       1.00000000      -0.00497478      -0.00586618       0.04531662
Pt       1.33050510       0.78066403       2.25465660        3       0.00000000       0.07411848      -0.03701142       0.14685452
Ni       3.93130317       0.75463437       2.26613049        3       1.00000000       0.03015658      -0.02906043       0.25559576
Pt       6.54729563       0.76281342       2.32587377        3       0.00000000      -0.02115589       0.10033078       0.35987107
Pt       9.21911718       0.85204142       2.29574610        3       0.00000000       0.10938661       0.21560551       0.16155867
Pt       2.58408601       3.04951716       2.25135567        3       0.00000000      -0.09507366       0.02269122       0.10709137
Pt       5.25940275       3.02600408       2.30979380        3       0.00000000       0.02550039      -0.10648430       0.30569376
Pt       7.92309177       3.12220567       2.29588159        3       0.00000000       0.01909869       0.04557307       0.09677616
Ni      10.48729890       3.07543950       2.29126655        3       1.00000000       0.00517454       0.13667376       0.15580443
Pt       3.90340532       5.27002118       2.28259002        3       0.00000000      -0.12345257      -0.01839905       0.26122460
Ni       6.59446619       5.28404701       2.26389538        3       1.00000000       0.08994880       0.01420142       0.27219357
Ni       9.20918105       5.27271491       2.28158971        3       1.00000000       0.12037336      -0.00217812       0.19676400
Ni      11.75413685       5.27018308       2.25575354        3       1.00000000      -0.10367978      -0.09147370       0.18610362
Pt       5.24384015       7.58182671       2.27004169        3       0.00000000      -0.07618782       0.13310911       0.23461758
Pt       7.90980666       7.55265276       2.28003739        3       0.00000000       0.15578290       0.00033931       0.21463210
Pt      10.49182236       7.50164995       2.30931900        3       0.00000000      -0.02536455      -0.13065461       0.19742228
Pt      13.06544420       7.55608056       2.27378138        3       0.00000000      -0.04499120      -0.03060015       0.26365946
Ni      -0.05067644       1.55211377       4.55189024        6       1.00000000      -0.15962668       0.08142072      -0.05995788
Pt       2.61398611       1.55836636       4.50574525        5       0.00000000       0.02021921       0.12476045      -0.19342670
Pt       5.30327130       1.52539041       4.52001590        5       0.00000000       0.09907817       0.06767484      -0.06983681
Ni       7.90623972       1.56535650       4.51512807        5       1.00000000       0.08167739       0.23684908      -0.18138345
Pt       1.17417471       3.77842332       4.49487072        5       0.00000000      -0.14736456      -0.02489585      -0.18332062
Ni       3.92524109       3.77107769       4.50426439        5       1.00000000      -0.07707957       0.02630890      -0.24476614
Ni       6.60205111       3.75450273       4.48536418        5       1.00000000       0.13989079      -0.11421428      -0.23145648
Ni       9.18234380       3.73800597       4.49619432        5       1.00000000      -0.07873263      -0.18278263      -0.12925134
Pt       2.53384209       6.04293468       4.47084691        5       0.00000000      -0.09718159      -0.03447811      -0.25308185
Pt       5.27240869       5.97834239       4.44202126        4       0.00000000       0.02962572      -0.07450261      -0.36007224
Pt       7.95340394       5.94717400       4.44069075        4       0.00000000       0.14794572      -0.15956054      -0.30579110
Ni      10.48110002       6.02870870       4.49451681        5       1.00000000      -0.04118989      -0.07964530      -0.21406569
Pt       3.90532086       8.42736213       4.48207070        5       0.00000000       0.01342048       0.06825365      -0.23503231
Pt       6.53839753       8.38401064       4.50644875        5       0.00000000      -0.02423811       0.07040060      -0.18402077
Pt       9.25228442       8.30189723       4.53953759        5       0.00000000      -0.01485833      -0.05163036      -0.14642204
Ni      11.79855747       8.33465683       4.51196719        5       1.00000000       0.04380909      -0.00437358      -0.28043299
Ni       0.00217851       0.04622724       6.73118861        8       1.00000000       0.02842690       0.07101710      -0.31950304
Pt       2.61810266      -0.00106345       6.79347318        9       0.00000000      -0.02782936      -0.00155506       0.19100601
Ni       5.24950495      -0.02310287       6.66214408        8       1.00000000       0.06864563       0.05873289       0.15649972
Pt       7.87929117       0.03497876       6.64486754        7       0.00000000      -0.14895627       0.03538498       0.62426099
Ni       1.24060315       2.24873448       6.64204391        7       1.00000000      -0.10864482      -0.03880679      -0.05590784
Pt       3.92185294       2.23470130       6.77225009        9       0.00000000      -0.03359373       0.07301574       0.17387214
Pt       6.61616149       2.25316566       6.74310830        8       0.00000000       0.16649200       0.06976376       0.10253609
Ni       9.23429081       2.24937216       6.69279912        8       1.00000000       0.09784169      -0.00656149      -0.54857780
Pt       2.54214310       4.49885636       6.74552868        8       0.00000000      -0.02902185      -0.04001356      -0.00003214
Pt       5.25944780       4.51136945       6.63611899        7       0.00000000       0.05789755      -0.15436303       0.65032614
Pt       7.99186423       4.50281579       6.72309606        8       0.00000000       0.07945315      -0.02115192      -0.16242758
Ni      10.48020155       4.51307575       6.65062873        8       1.00000000      -0.02521815       0.00482035      -0.22549315
Pt       3.92746200       6.85238874       6.65219967        8       0.00000000      -0.08821314      -0.00644854       0.80457124
Pt       6.59766235       6.82469905       6.66294476        8       0.00000000       0.15250250      -0.03339444       0.74576790
Ni       9.19302585       6.79930055       6.63686325        7       1.00000000      -0.07218020      -0.06206836       0.11870812
Pt      11.68656756       6.81957962       6.70605105        8       0.00000000      -0.03705175       0.05131358      -0.11135977
