64
Lattice="10.190128980165895 0.014020611364052263 -0.0001871851153038991 5.107206695700803 8.763513340562222 -0.0331822442330556 -0.00015283600664617672 -0.03119627997333007 8.699818831871587" Properties=species:S:1:pos:R:3:tags:I:1:initial_magmoms:R:1:forces:R:3 unique_id=5420d9d2a55c4a8e959706245a6f4a75 stress="-0.007534526809131005 1.66876380906196e-05 7.425585319080668e-06 1.66876380906196e-05 -0.00749351721487973 -1.0230883342076272e-05 7.425585319080668e-06 -1.0230883342076272e-05 -0.006413431052451561" energy=-391.6462737252764 pbc="T T T"
Ni       0.04624116      -0.05702547       0.20570234        4       1.00000000       0.07395238      -0.05530721       0.15547132
Ni       2.48976916      -0.03350038       0.21883061        4       1.00000000      -0.00568329      -0.02076368       0.13899398
Pt       5.08651660      -0.05275028       0.16052559        4       0.00000000      -0.02549597       0.04865589      -0.17444600
Ni       7.66204296      -0.05639044       0.18362226        4       1.00000000      -0.03973341      -0.05740438       0.11746003
Ni       1.27653369       2.20621502       0.12459672        4       1.00000000      -0.00087318       0.05082792       0.14728951
Pt       3.73494295       2.26059923       0.17883352        4       0.00000000      -0.00823820       0.04761580      -0.12343456
Pt       6.38593759       2.27415591       0.10257078        4       0.00000000      -0.01396351       0.06627278      -0.05543235
Pt       8.99713114       2.26692071       0.14227940        4       0.00000000       0.04246721       0.11403376      -0.16360593
Ni       2.52673624       4.43306984       0.09627373        4       1.00000000       0.01523385       0.06206211       0.06793602
Ni       5.09317159       4.47165017       0.09927990        4       1.00000000      -0.05524688       0.09982290       0.05556450
Ni       7.64536654       4.46509550       0.10339241        4       1.00000000      -0.00162320       0.08162405       0.05994749
Ni      10.23718955       4.43972368       0.10177312        4       1.00000000       0.07939735       0.11696177       0.07566179
Ni       3.83837517       6.55209530       0.09114112        4       1.00000000       0.04376685       0.00686404       0.04671889
Ni       6.36583470       6.56464897       0.09913535        4       1.00000000      -0.02746568      -0.00115041      -0.00564951
Ni       8.88254044       6.52167756       0.17973229        4       1.00000000      -0.08281019      -0.03041984       0.13299703
Ni      11.51886913       6.52175302       0.06198529        4       1.00000000       0.08624279      -0.02674355      -0.06507259
Ni       1.32087841       0.72750754       2.17317767        3       1.00000000       0.02303761       0.04298685       0.10741626
Ni       3.78544970       0.76996095       2.21205197        3       1.00000000      -0.01168947       0.04292145      -0.00266938
Ni       6.35465116       0.75877345       2.24922046        3       1.00000000      -0.05375743       0.02012426       0.03765544
Pt       8.90230269       0.70550631       2.18278140        3       0.00000000       0.00461613      -0.02740426       0.14206961
Ni       2.51845297       2.95181249       2.24875587        3       1.00000000      -0.00835159       0.04009696       0.04045598
Ni       5.06600259       2.94988109       2.21406583        3       1.00000000      -0.10087558       0.05761037      -0.04318281
Ni       7.65092169       2.97157120       2.22249320        3       1.00000000       0.02290617       0.00188980       0.03064385
Ni      10.25212171       2.99450983       2.19947837        3       1.00000000       0.07955450       0.04537278       0.04958720
Ni       3.82348392       5.09898847       2.16906698        3       1.00000000       0.00783042      -0.03246563       0.00887614
Ni       6.34971284       5.11590948       2.11553166        3       1.00000000      -0.05039661      -0.05488449      -0.02061487
Ni       8.91901832       5.05557701       2.14815058        3       1.00000000       0.02469333      -0.09525865       0.03605654
Ni      11.51400663       5.06144800       2.17962006        3       1.00000000       0.09659027      -0.06107362       0.08163630
Ni       5.13622219       7.22926489       2.13297042        3       1.00000000      -0.01848510      -0.10887532       0.06234393
Ni       7.59338428       7.28730734       2.11506767        3       1.00000000      -0.04330118      -0.05846889       0.04011512
Pt      10.25322085       7.19439085       2.18983068        3       0.00000000       0.04418580      -0.14087293       0.09218159
Ni      12.76480338       7.22246756       2.12789219        3       1.00000000       0.08868906      -0.16166983       0.01229513
Pt       0.09255419       1.50364654       4.26911283        2       0.00000000       0.06325241      -0.05851499       0.01376804
Ni       2.57130992       1.51716539       4.24604487        2       1.00000000       0.06979955       0.10566833      -0.08513151
Ni       5.09751191       1.46477027       4.23661651        2       1.00000000      -0.06698572       0.00946330      -0.16103735
Ni       7.60600087       1.43966139       4.28751319        2       1.00000000      -0.00754846      -0.08129903      -0.04611367
Ni       1.31636009       3.68799961       4.30548524        2       1.00000000       0.03422833       0.00034669      -0.03779794
Ni       3.77619891       3.69536257       4.23576822        2       1.00000000      -0.03758233       0.08438914      -0.16103242
Pt       6.32114460       3.60332809       4.28176445        2       0.00000000      -0.01444247      -0.02246769      -0.08056924
Ni       8.95909129       3.69150939       4.24619593        2       1.00000000       0.05286663       0.03923019      -0.15343139
Ni       2.53257520       5.76453792       4.29261919        2       1.00000000      -0.02993746      -0.01497820      -0.15032744
Ni       5.06318238       5.78553463       4.29264380        2       1.00000000      -0.02737176      -0.09913467      -0.13151645
Pt       7.62396071       5.81762618       4.23249405        2       0.00000000       0.00064686      -0.00794540      -0.01590307
Ni      10.26305578       5.77838460       4.30867611        2       1.00000000      -0.00040449      -0.02592169      -0.00528302
Pt       3.81916332       7.89927621       4.24611142        2       0.00000000       0.02299104      -0.02691287       0.04066365
Ni       6.36326872       8.00275783       4.22745684        2       1.00000000      -0.04491334      -0.00619588      -0.09807702
Pt       8.89723920       8.07336113       4.20346494        2       0.00000000      -0.08499039      -0.01670371      -0.05131947
Ni      11.49236638       7.99107871       4.24779262        2       1.00000000       0.02853229      -0.08661152      -0.08790728
Pt       0.00537690      -0.08790471       6.52037412        1       0.00000000      -0.07238721      -0.02647728       0.16761410
Pt       2.52091660      -0.00799165       6.49282451        1       0.00000000       0.06801249       0.04855706       0.14568643
Pt       5.12708120       0.00240536       6.34946595        1       0.00000000      -0.05134397       0.05133532       0.02939085
Pt       7.63691810      -0.06438393       6.47940715        1       0.00000000       0.03959305      -0.02806202       0.14592090
Ni       1.28372566       2.24697131       6.43117926        1       1.00000000       0.03576492       0.07069130       0.01016604
Pt       3.81491776       2.31519046       6.32062219        1       0.00000000       0.00940418       0.07609914      -0.04556511
Ni       6.36485084       2.22142771       6.35255157        1       1.00000000      -0.03161860      -0.01443543      -0.07599659
Pt       8.90047651       2.29727952       6.34055765        1       0.00000000      -0.06490351       0.06699257       0.03595205
Ni       2.52815173       4.41976935       6.39455250        1       1.00000000       0.00021924       0.06186001      -0.07153977
Ni       5.10228145       4.42787582       6.42243722        1       1.00000000      -0.02786698       0.07177148      -0.02244391
Ni       7.57773436       4.37638027       6.43824200        1       1.00000000      -0.16806525       0.00930047      -0.01964299
Ni      10.28021855       4.36850440       6.40001631        1       1.00000000       0.13438845      -0.01580818      -0.08249907
Ni       3.82168736       6.44989880       6.42208384        1       1.00000000      -0.02862937      -0.09681781      -0.01957691
Ni       6.34183689       6.48815551       6.42657209        1       1.00000000      -0.01752769      -0.01088606      -0.08308366
Pt       8.95354345       6.43476819       6.49367153        1       0.00000000       0.01887817      -0.06786792       0.15686757
Ni      11.51468220       6.48899583       6.38790914        1       1.00000000       0.01276811      -0.00164547      -0.14549999
