64
Lattice="10.257191975270636 -0.02443026193049595 0.025178161299779345 5.1074387601824025 8.86200194145699 0.015017834534023247 0.0 0.0 21.601275221063943" Properties=species:S:1:pos:R:3:tags:I:1:initial_magmoms:R:1:forces:R:3 unique_id=a1a3eade2f3f43fa97ff174a3604e548 energy=-374.35690923213343 stress="0.004759303511787161 1.2988655261384322e-05 0.00018835681289459654 1.2988655261384322e-05 0.0046359654212627666 -0.00018923080326525802 0.00018835681289459654 -0.00018923080326525802 -0.001828494116086165" pbc="T T T"
Ni       0.04267462       0.04892091       0.13247130        1       1.00000000       0.19268064       0.16360209      -0.42857678
Ni       2.56963913       0.04785695       0.18510990        2       1.00000000       0.00071061       0.00757313      -0.09407370
Ni       5.09944483       0.00370133       0.07622613        1       1.00000000      -0.04125540       0.09840915       0.25616718
Pt       7.71112093      -0.05526633       0.01150730        0       0.00000000      -0.04332463       0.05510390      -0.43764508
Ni       1.28326704       2.23335449       0.09636177        1       1.00000000       0.05654021       0.05534374       0.53080784
Ni       3.79854872       2.21955855       0.18636435        2       1.00000000      -0.07003198       0.08555345       0.10959637
Pt       6.37962890       2.28442635       0.16227278        2       0.00000000      -0.07086002       0.07406013      -0.81454479
Ni       9.02165584       2.25162375       0.07736915        1       1.00000000       0.02432886       0.08050595       0.25231446
Ni       2.54533077       4.41369269       0.09871559        1       1.00000000      -0.06140674      -0.08124540       0.52373852
Ni       5.06044758       4.42030739       0.16123993        2       1.00000000      -0.28128650       0.01125676      -0.12547992
Ni       7.72934932       4.39247231       0.07931957        1       1.00000000       0.18065714       0.00545225       0.09061832
Ni      10.27657947       4.36952661       0.10910004        1       1.00000000       0.12038929       0.01646744       0.44288062
Ni       3.81246035       6.59526902       0.05494249        1       1.00000000      -0.07964563      -0.16591811       0.08390344
Pt       6.37002663       6.64106537       0.00000000        0       0.00000000       0.17084240       0.04736302      -0.57518586
Pt       8.99170659       6.60110523       0.12557767        1       0.00000000      -0.08967293      -0.11806095      -0.53980261
Ni      11.53519166       6.57294946       0.14759216        1       1.00000000      -0.01414057      -0.21886454      -0.11249004
Ni       1.33978233       0.78855725       2.16480371        3       1.00000000       0.10926669       0.19269695      -0.00477580
Ni       3.80507608       0.75341102       2.18514167        3       1.00000000      -0.03453392       0.00067089       0.02616873
Pt       6.33098453       0.76020623       2.28604910        4       0.00000000      -0.07175420       0.01000349       0.17967154
Pt       9.05622316       0.82977167       2.19597695        3       0.00000000       0.04170724       0.10324092       0.06180802
Ni       2.55992246       2.96987532       2.17093808        3       1.00000000      -0.08785314       0.10876171      -0.02131610
Ni       5.03999019       2.96247076       2.23418704        3       1.00000000      -0.27904044       0.00102539       0.29450694
Ni       7.74585385       2.98206264       2.21878161        3       1.00000000       0.19652027       0.06142323       0.13694079
Ni      10.28869037       2.98574169       2.20448157        3       1.00000000       0.15932808       0.12823596      -0.00497313
Ni       3.81026531       5.09370503       2.21333703        3       1.00000000      -0.08412013      -0.18986704       0.15750239
Pt       6.44100877       5.11770864       2.20374638        3       0.00000000       0.11921093      -0.04185879      -0.00623153
Ni       8.99528395       5.09497873       2.25604283        4       1.00000000       0.16373725      -0.15285882       0.17553923
Ni      11.52101620       5.08054042       2.20923875        3       1.00000000      -0.08075378      -0.17281507      -0.02034693
Pt       5.13655230       7.37222231       2.20086232        3       0.00000000      -0.01044090      -0.06010304      -0.04282076
Ni       7.69304105       7.40566950       2.23471983        3       1.00000000      -0.00377032       0.01819943       0.16200684
Pt      10.18139903       7.33033326       2.32674524        4       0.00000000      -0.14230547      -0.11894434       0.06713304
Pt      12.78821391       7.25137124       2.24780479        3       0.00000000      -0.06549222      -0.14408464       0.11567551
Ni       0.01942065       1.51609522       4.38905934        6       1.00000000       0.14987012       0.01860897      -0.11358770
Pt       2.60327818       1.49899936       4.27781040        5       0.00000000       0.03336215       0.07942187      -0.11362203
Ni       5.11573677       1.44664036       4.39197741        6       1.00000000      -0.08150776       0.02138037      -0.05211686
Pt       7.75627292       1.48393361       4.39812175        6       0.00000000       0.15255378       0.09479639       0.09746459
Pt       1.25097351       3.74859125       4.37204432        6       0.00000000       0.02219336      -0.02359553      -0.00321196
Ni       3.84238071       3.73107764       4.35069097        6       1.00000000      -0.02233349       0.05879625      -0.23246270
Pt       6.40454797       3.71998684       4.36337467        6       0.00000000      -0.05440558       0.01451969      -0.08901473
Ni       8.99149581       3.71750322       4.40536012        6       1.00000000       0.01329216       0.17037489      -0.12513883
Ni       2.56560710       5.86897668       4.38747653        6       1.00000000      -0.00234878      -0.17799238      -0.14458862
Ni       5.09320828       5.88412148       4.39280498        6       1.00000000      -0.05775846      -0.09426926      -0.25786754
Ni       7.72776233       5.87610674       4.36967349        6       1.00000000       0.14928230      -0.07668051      -0.33512936
Ni      10.24610139       5.88214203       4.38104516        6       1.00000000      -0.01482632      -0.10993353      -0.19050521
Pt       3.79666910       8.04710628       4.43107250        6       0.00000000      -0.02704490      -0.09836989      -0.03118663
Pt       6.45629107       8.06359674       4.36126869        6       0.00000000       0.16163414      -0.01798137      -0.11448607
Ni       9.00503218       8.11133470       4.39058265        6       1.00000000       0.01227390       0.12303513      -0.04337385
Ni      11.47614264       8.09352650       4.43721252        6       1.00000000      -0.14866948       0.00008633      -0.05340194
Pt      -0.03949459       0.04322272       6.58886415        9       0.00000000      -0.04438705       0.16575670       0.24050044
Pt       2.58844378      -0.01699891       6.60127522        9       0.00000000       0.01419865      -0.08639470       0.19214707
Ni       5.16218401      -0.02764381       6.51991967        8       1.00000000      -0.01546889      -0.05918270      -0.16746811
Ni       7.68679989      -0.02885097       6.46871685        8       1.00000000      -0.09979735       0.00928027       0.52313224
Ni       1.24858496       2.26338193       6.55050533        9       1.00000000      -0.04734449      -0.00900413      -0.27271587
Pt       3.81851991       2.25377225       6.57452717        9       0.00000000       0.14223480       0.19108271       0.07629695
Pt       6.45888210       2.17810781       6.53262842        8       0.00000000      -0.15582607       0.09008387       0.92164205
Ni       9.01700449       2.24618094       6.55793516        9       1.00000000       0.06135537       0.14876100      -0.17623741
Ni       2.53870370       4.44018822       6.54240975        8       1.00000000      -0.03269287       0.00411279      -0.26111947
Pt       5.10702689       4.52686637       6.57484413        9       0.00000000      -0.04090346      -0.11062262       0.15713520
Ni       7.72763098       4.40793449       6.54556979        8       1.00000000       0.03458706      -0.10704979      -0.22228732
Ni      10.25383085       4.36827186       6.55975805        9       1.00000000      -0.01886921       0.00650283      -0.29339447
Ni       3.83683624       6.64122625       6.54883533        8       1.00000000      -0.00034058       0.02228246      -0.02751815
Ni       6.40051743       6.62670164       6.44879365        7       1.00000000       0.06626007       0.00768125       0.29007674
Pt       8.96744264       6.56092044       6.43920813        7       0.00000000       0.02448173      -0.05398484       0.50854544
Pt      11.59007207       6.61247483       6.54383687        8       0.00000000      -0.09728553      -0.06183073      -0.12522264
