64
Lattice="10.239040208739496 0.0005786074177211127 -0.01936554630553378 5.120021193092313 8.858145188092205 -0.0538636907507191 -0.01581190234626594 -0.04165416857674156 8.776973011787979" Properties=species:S:1:pos:R:3:tags:I:1:initial_magmoms:R:1:forces:R:3 unique_id=6f8ceb0049bf464ea747751261f8cb83 stress="0.00015565151642217556 8.756648811295511e-07 -3.224435622465978e-06 8.756648811295511e-07 0.00016679066686949018 1.5954340335356797e-05 -3.224435622465978e-06 1.5954340335356797e-05 0.0001648403605420401" energy=-394.6486180073845 pbc="T T T"
Ni       0.00168318       0.04171719       0.16070177        4       1.00000000       0.10931198       0.18584304       0.25816449
Ni       2.57899917       0.03322941       0.21002901        4       1.00000000       0.06994336       0.09476868       0.38460702
Ni       5.10255501      -0.00584200       0.07056715        4       1.00000000      -0.07079263       0.05160439       0.05141724
Ni       7.67592677      -0.01925542       0.03779163        4       1.00000000      -0.02362253      -0.02023496       0.03951854
Ni       1.27919469       2.21982773       0.17579550        4       1.00000000      -0.00199780       0.06646484       0.23636375
Ni       3.80888939       2.20847451       0.17800215        4       1.00000000      -0.06318834      -0.02639032       0.21193618
Pt       6.39560409       2.20397126       0.16440696        4       0.00000000      -0.03000720      -0.00655958       0.33874956
Ni       8.98828671       2.24243964       0.04324730        4       1.00000000       0.09877156       0.10920424       0.01361231
Ni       2.56413549       4.41163744       0.05524727        4       1.00000000      -0.00964604      -0.14134098       0.03435183
Ni       5.06710325       4.40786138       0.14658836        4       1.00000000      -0.19993358      -0.14453380       0.36506571
Ni       7.73773339       4.40668224       0.03533723        4       1.00000000       0.23325804      -0.12903437       0.02950425
Ni      10.22775678       4.40733004       0.03020335        4       1.00000000       0.00154748      -0.11444784       0.02158918
Ni       3.80322157       6.61752578       0.00792684        4       1.00000000      -0.05769228      -0.17055400      -0.02215431
Pt       6.44315740       6.64340830      -0.04654563        4       0.00000000       0.04003012      -0.03471184      -0.28727352
Ni       8.97072777       6.62285021       0.09452748        4       1.00000000      -0.02573003      -0.16553315       0.14802337
Ni      11.51472472       6.62828130      -0.02329837        4       1.00000000      -0.06000966      -0.15376666      -0.15451916
Ni       1.31050398       0.78302360       2.15052042        3       1.00000000      -0.01801018       0.13468456       0.03481063
Ni       3.83469684       0.76870489       2.16056094        3       1.00000000       0.08973293       0.02545311       0.06291109
Ni       6.35656487       0.75966922       2.23324422        3       1.00000000      -0.08153436       0.08674870       0.19258687
Pt       8.94966839       0.84713249       2.16069733        3       0.00000000      -0.05805172       0.00548114       0.00092036
Ni       2.57672245       2.93115613       2.14938335        3       1.00000000       0.02251339       0.06307778      -0.06311615
Ni       5.05767806       2.91124292       2.19812850        3       1.00000000      -0.11580649      -0.05445116       0.16560696
Ni       7.71941334       2.95801789       2.18655513        3       1.00000000       0.15743900       0.08181710      -0.00161396
Ni      10.23410389       2.94971807       2.17221524        3       1.00000000       0.01417167       0.01050033       0.09565049
Ni       3.82008055       5.08827287       2.14933988        3       1.00000000      -0.08618227      -0.12888215       0.00720411
Pt       6.45445486       5.09575935       2.13517944        3       0.00000000       0.08168186       0.07403247      -0.13116988
Ni       8.96282752       5.11449419       2.16209916        3       1.00000000       0.08523588      -0.10992250       0.07879181
Pt      11.50247432       5.05704399       2.16335410        3       0.00000000       0.01757551      -0.01629642      -0.03240555
Pt       5.12822234       7.38634872       2.10346155        3       0.00000000       0.04999642      -0.06714310      -0.22966642
Ni       7.69162638       7.39095747       2.13492344        3       1.00000000      -0.01815761      -0.00094264       0.02978648
Pt      10.18905343       7.39081532       2.08526986        3       0.00000000      -0.04907363      -0.02640641       0.01585812
Pt      12.76362380       7.36460856       2.09338621        3       0.00000000      -0.03488830      -0.03033203      -0.08401073
Ni      -0.04510417       1.53101402       4.34609663        2       1.00000000      -0.01076313       0.16421262      -0.04505795
Pt       2.54888869       1.55497658       4.23097290        2       0.00000000      -0.01431516       0.13741715       0.06995942
Ni       5.14406730       1.44177611       4.30126534        2       1.00000000       0.05395370       0.01609891      -0.10100994
Ni       7.68739703       1.45885516       4.31919386        2       1.00000000       0.00128516       0.07186563      -0.09567043
Ni       1.24180850       3.71940329       4.34829735        2       1.00000000      -0.05816606       0.02375059      -0.01425489
Ni       3.79899859       3.68812971       4.30563646        2       1.00000000      -0.05198568       0.04851919      -0.09354037
Pt       6.44873814       3.61240763       4.28621572        2       0.00000000      -0.01925062      -0.06408874       0.12583001
Ni       8.99870110       3.67336560       4.33534749        2       1.00000000       0.12394418       0.03500269      -0.11039284
Ni       2.48888531       5.84698933       4.37740143        2       1.00000000      -0.16570305      -0.03976253      -0.06904052
Pt       5.04286013       5.85243954       4.31597704        2       0.00000000      -0.10721358      -0.11401248      -0.04626656
Ni       7.72647872       5.84042299       4.31812835        2       1.00000000       0.17824317      -0.08355594      -0.14701837
Ni      10.26260417       5.82999848       4.33018014        2       1.00000000       0.01585885      -0.04381346      -0.10732207
Pt       3.71912093       8.13021348       4.35576441        2       0.00000000       0.03929492       0.02607029       0.04153596
Pt       6.40922435       8.11064777       4.28050137        2       0.00000000      -0.03754019       0.13611928       0.02954073
Pt       9.03254782       8.08751199       4.28840858        2       0.00000000      -0.05281440      -0.01118650       0.06826131
Ni      11.50215444       8.10353606       4.34603493        2       1.00000000      -0.06966646      -0.03125933      -0.05566701
Pt      -0.09852242      -0.03242720       6.58917957        1       0.00000000      -0.16646473       0.03998382       0.12780224
Pt       2.57168807      -0.05752888       6.60415959        1       0.00000000       0.01426352       0.00355418       0.31350382
Ni       5.17022597      -0.06803321       6.49920359        1       1.00000000       0.09879946      -0.12353116      -0.10338534
Ni       7.62290807      -0.07473043       6.50265174        1       1.00000000      -0.13760149      -0.20432427      -0.09169771
Pt       1.19839461       2.29261770       6.52184515        1       0.00000000       0.05552327       0.07871089       0.18184930
Pt       3.84793932       2.20796335       6.51886535        1       0.00000000      -0.00818967       0.05150872       0.08288149
Pt       6.47913143       2.11336152       6.44101709        1       0.00000000       0.05588745      -0.04955534      -0.16447616
Ni       8.94188549       2.22716219       6.46123898        1       1.00000000       0.02591437       0.16381803      -0.25432590
Ni       2.51051264       4.47218172       6.45948816        1       1.00000000      -0.06678218       0.16472241      -0.18650051
Pt       5.10145213       4.46924468       6.55421021        1       0.00000000       0.07968088       0.19691809       0.17589541
Ni       7.71149889       4.38714985       6.46426969        1       1.00000000       0.08800248      -0.09041494      -0.20002723
Ni      10.22899141       4.41424900       6.44031192        1       1.00000000       0.06527859       0.02670584      -0.22747993
Ni       3.76005638       6.61266682       6.47648885        1       1.00000000      -0.19915879       0.01515640      -0.16421771
Ni       6.39625640       6.60085989       6.36677810        1       1.00000000       0.08274594       0.00735712      -0.57004309
Pt       9.01024044       6.51913468       6.48184359        1       0.00000000       0.07611620       0.00977323       0.08642927
Ni      11.54662850       6.60958768       6.42857551        1       1.00000000       0.04393848      -0.00995686      -0.26719510
