64
Lattice="10.277733522638973 -0.007256637155537207 0.01710898646670181 5.132582329196741 8.827637545138018 -0.02862327393957616 0.0 0.0 21.534200580694595" Properties=species:S:1:pos:R:3:tags:I:1:initial_magmoms:R:1:forces:R:3 unique_id=8011e7bbce9644fcb467e0ef6c169e95 stress="0.005556542134788397 1.9989182037717543e-05 8.320704512159417e-05 1.9989182037717543e-05 0.004982072678696875 -0.00016554889902635687 8.320704512159417e-05 -0.00016554889902635687 -0.0021765320440741923" energy=-372.95785881927725 pbc="T T T"
Ni       0.00814034       0.00864361       0.14203741        1       1.00000000       0.09552643      -0.01090842      -0.33365035
Ni       2.56674966      -0.00823661       0.17775718        2       1.00000000       0.00152269      -0.00977729      -0.20750151
Ni       5.14544014      -0.02064389       0.12592915        1       1.00000000       0.03119695       0.19029895      -0.28827104
Ni       7.71715712      -0.04796627       0.05662136        1       1.00000000      -0.07468862      -0.03460374       0.20418929
Ni       1.25111055       2.21112411       0.14524354        1       1.00000000      -0.07693420       0.05318871      -0.02000997
Pt       3.80727231       2.21169325       0.14270755        1       0.00000000       0.01958067      -0.03097331      -0.58082293
Pt       6.48199467       2.20382138       0.15458479        2       0.00000000       0.06647302      -0.05993166      -0.56539387
Ni       9.02854755       2.22693109       0.11827982        1       1.00000000       0.03704894       0.13810325      -0.08056039
Ni       2.54597832       4.43327583       0.00000000        0       1.00000000      -0.10011806      -0.05038224       0.12444616
Ni       5.14111408       4.42091310       0.02094661        0       1.00000000       0.07640941      -0.10730844       0.04040943
Ni       7.74818391       4.41419676       0.06216978        1       1.00000000       0.12202817      -0.00532273       0.31836987
Ni      10.26185482       4.39607926       0.03702654        0       1.00000000      -0.09739988      -0.04774878       0.33138995
Ni       3.82410239       6.63368629       0.01028994        0       1.00000000      -0.02072509       0.11624217       0.18461126
Pt       6.42292409       6.60914194       0.04434685        0       0.00000000       0.04166302       0.06329175      -0.04879727
Ni       8.99577001       6.59440340       0.10723659        1       1.00000000      -0.08539737      -0.13730896      -0.21144168
Ni      11.57959243       6.61310076       0.00667326        0       1.00000000       0.04940226      -0.03073744       0.20192151
Ni       1.29196565       0.74196465       2.11068495        3       1.00000000      -0.01106671       0.04792338       0.05496688
Ni       3.85755890       0.72851423       2.16252707        4       1.00000000       0.07781284      -0.02505168       0.17465978
Ni       6.42316391       0.72959496       2.21250929        4       1.00000000       0.00298816       0.06347414       0.30688470
Pt       8.98669817       0.75719243       2.14437698        3       0.00000000      -0.08432639       0.04252341       0.04418993
Ni       2.53458511       2.92583136       2.15614976        4       1.00000000      -0.09138465       0.04003808       0.04517731
Ni       5.14916723       2.91354015       2.20246074        4       1.00000000      -0.06096278      -0.10382355       0.18447207
Ni       7.74923502       2.97287310       2.17335753        4       1.00000000       0.21434557       0.12136419       0.05509756
Ni      10.26540978       2.92669683       2.16723867        4       1.00000000      -0.04957020       0.01306788       0.20535938
Pt       3.88020244       5.12734572       2.09487927        3       0.00000000       0.04192951      -0.04292989      -0.14118065
Ni       6.47140887       5.12703206       2.13265092        3       1.00000000       0.09699979      -0.03458644       0.04318723
Ni       8.95522030       5.10248189       2.15252077        4       1.00000000      -0.03109651      -0.07780581       0.12869463
Pt      11.52468206       5.07919312       2.16027107        4       0.00000000      -0.04278570      -0.06261382       0.04363828
Ni       5.14117902       7.35498181       2.10605387        3       1.00000000      -0.05150215      -0.03006764       0.03128487
Ni       7.69918662       7.33184771       2.12103280        3       1.00000000       0.04032107      -0.08932754       0.13293957
Pt      10.29437454       7.35681026       2.08734218        3       0.00000000       0.02759829      -0.05185838       0.05240260
Ni      12.84209690       7.35253209       2.11643359        3       1.00000000       0.02427508       0.00267256      -0.05752613
Ni      -0.01828127       1.51195918       4.26752627        6       1.00000000      -0.04085392       0.14279783      -0.19100452
Pt       2.56251816       1.53890368       4.17976815        5       0.00000000      -0.04431169       0.06062258       0.01591731
Ni       5.18039468       1.44512555       4.24530209        5       1.00000000       0.03153359      -0.03290879      -0.32926222
Ni       7.70733534       1.44611818       4.27643635        6       1.00000000      -0.02101653       0.03109873      -0.17923083
Ni       1.25971872       3.71353876       4.29562336        6       1.00000000      -0.07922441      -0.01108362      -0.05134356
Ni       3.83185903       3.69289293       4.27626102        6       1.00000000      -0.09024279      -0.03466502      -0.20465066
Pt       6.48170806       3.64335306       4.21100920        5       0.00000000       0.06590794      -0.04894771       0.03460108
Ni       9.03479333       3.68231271       4.27834218        6       1.00000000       0.13160532       0.04439903      -0.19698166
Ni       2.51377111       5.83887646       4.33303072        6       1.00000000      -0.15118267      -0.08330263      -0.10538240
Pt       5.10452952       5.82866527       4.33266808        6       0.00000000      -0.05831235       0.02687459      -0.08633603
Ni       7.74973321       5.81846646       4.26822597        6       1.00000000       0.13413591      -0.03589335      -0.29867335
Ni      10.30973351       5.81148276       4.31674713        6       1.00000000      -0.00500542      -0.00980763      -0.08627870
Pt       3.74455313       8.07233887       4.26247078        6       0.00000000      -0.06074270       0.00086154       0.02430061
Pt       6.41408420       8.06652425       4.19099303        5       0.00000000      -0.05833941       0.11386397      -0.12379421
Pt       9.04439154       8.03785749       4.23268234        5       0.00000000      -0.00485450       0.01090434      -0.00968720
Ni      11.57361978       8.05508596       4.28152522        6       1.00000000      -0.14793600      -0.04066009      -0.15166279
Pt      -0.05889062      -0.09703891       6.52273108        8       0.00000000       0.04581893       0.08144978       0.29770760
Pt       2.57127870      -0.06177474       6.53420058        8       0.00000000       0.06875640      -0.01643877       0.43985243
Pt       5.23862040      -0.09055069       6.48584059        8       0.00000000      -0.03948573       0.06583364       0.32172001
Ni       7.71040519      -0.08205535       6.46846271        8       1.00000000      -0.00229840       0.00381033      -0.02407950
Pt       1.27789381       2.28886341       6.46860282        8       0.00000000      -0.04432108      -0.10186491       0.12188546
Pt       3.87937171       2.28699996       6.38314816        7       0.00000000       0.14107594       0.01629507       0.59294041
Pt       6.45207320       2.21006523       6.40184180        7       0.00000000      -0.05977398      -0.04786542       0.69071086
Pt       8.98871083       2.24310723       6.43624847        7       0.00000000       0.03804110       0.03043244       0.02306986
Ni       2.57006583       4.47457841       6.40700065        7       1.00000000       0.04423153      -0.01391933      -0.28249628
Ni       5.13891989       4.44922688       6.45193116        8       1.00000000      -0.00915984      -0.02808066      -0.02685033
Ni       7.69074232       4.40624648       6.43618949        7       1.00000000      -0.09321459      -0.01295238      -0.18086897
Ni      10.31874400       4.41804136       6.42115392        7       1.00000000       0.11646495       0.01371165      -0.25317269
Ni       3.80303987       6.54727487       6.44091539        7       1.00000000      -0.05283411      -0.00858652      -0.16295532
Ni       6.41002452       6.53025371       6.37353145        7       1.00000000       0.09858094       0.00957282       0.24220748
Pt       9.01253187       6.46008613       6.46024143        8       0.00000000      -0.02364473       0.03770458       0.09015932
Ni      11.62311558       6.54303319       6.41680208        7       1.00000000      -0.01856125      -0.01237679      -0.32349764
