64
Lattice="10.429399976112736 0.0026342069539479554 0.0003883542544973908 5.216981278197311 8.990827798227146 -0.03328521881014409 0.0 0.0 21.668925450390628" Properties=species:S:1:pos:R:3:tags:I:1:initial_magmoms:R:1:forces:R:3 unique_id=b31549610cc24138b3aac99702920c23 energy=-380.50539193014777 stress="0.005607455038632424 0.00023286913947406353 0.00020622699388415992 0.00023286913947406353 0.005340012896592623 -0.00015339974448674024 0.00020622699388415992 -0.00015339974448674024 -0.001963696319440442" pbc="T T T"
Ni      -0.04592496      -0.00194856       0.13563634        1       1.00000000      -0.22046311      -0.10107694      -0.14754390
Ni       2.62106195      -0.01705233       0.12582050        1       1.00000000       0.10524854      -0.06856378      -0.25587896
Ni       5.22962208      -0.03549422       0.11457000        1       1.00000000       0.09881884       0.06401702      -0.27188558
Ni       7.84637417      -0.03961330       0.07542294        1       1.00000000       0.00887220      -0.07871972       0.52530671
Ni       1.29292940       2.25802684       0.11204894        1       1.00000000       0.06821542       0.07058059      -0.30849721
Pt       3.85299583       2.29750393       0.09794635        1       0.00000000      -0.01458350       0.12149647      -0.63715879
Pt       6.52691772       2.16786583       0.10404285        1       0.00000000      -0.11534304      -0.14683007      -0.51465791
Ni       9.14275778       2.21195816       0.10465586        1       1.00000000      -0.04542670      -0.16478303      -0.08967875
Ni       2.59313241       4.51441003       0.01556344        0       1.00000000      -0.03896856       0.02245717       0.26747584
Ni       5.21061255       4.50109854       0.10667626        1       1.00000000       0.16047475      -0.04335043      -0.14479843
Pt       7.89578792       4.51991222       0.02135547        0       0.00000000      -0.02482242       0.02610342       0.08752553
Ni      10.45857859       4.51298672       0.00000000        0       1.00000000       0.04272994       0.07413703       0.27094188
Ni       3.88251456       6.76221284       0.11263485        1       1.00000000      -0.06370845       0.15293163       0.02704861
Pt       6.49883147       6.78595072       0.14138452        1       0.00000000      -0.08073779       0.03878488      -0.40098338
Ni       9.15342353       6.75051625       0.01582280        0       1.00000000      -0.03724511      -0.01631104       0.30830819
Ni      11.75129864       6.74843372       0.00082698        0       1.00000000       0.12611637       0.05263415       0.34752542
Pt       1.27492582       0.69441962       2.11694429        2       0.00000000      -0.00158567      -0.03559017       0.06238618
Pt       3.96885658       0.75639982       2.20668355        3       0.00000000       0.14767710       0.03065793       0.09749112
Ni       6.55611313       0.71687423       2.22730190        3       1.00000000       0.15544558      -0.05573176       0.20289585
Ni       9.08299156       0.70106947       2.16279973        3       1.00000000      -0.13991715      -0.08741539      -0.01875855
Ni       2.61286898       3.01519388       2.20237014        3       1.00000000       0.03085072       0.06345477       0.22019836
Ni       5.21052248       3.00166797       2.22559636        3       1.00000000       0.04943456       0.02388994       0.29539453
Pt       7.82101818       2.96891833       2.24883488        3       0.00000000      -0.04103879      -0.03066749       0.09884849
Pt      10.41535371       3.01653343       2.12812358        2       0.00000000       0.01148840       0.14207707       0.02984170
Pt       3.93450323       5.22769557       2.13659273        2       0.00000000       0.06193595      -0.04299630       0.01103472
Ni       6.54381048       5.24955500       2.19903866        3       1.00000000       0.11509205      -0.05464573       0.23276201
Ni       9.10244937       5.26281897       2.22381346        3       1.00000000      -0.10323501       0.01396473       0.20957751
Pt      11.75272682       5.26286775       2.13893968        2       0.00000000       0.05709519       0.01601472       0.01039546
Ni       5.17862797       7.48666402       2.15752868        3       1.00000000      -0.13320952      -0.04300525       0.09272080
Ni       7.83692716       7.43622342       2.18091649        3       1.00000000       0.09686246      -0.18227706       0.15491034
Pt      10.43482998       7.45852695       2.09526916        2       0.00000000      -0.02038216      -0.03637423      -0.04922565
Ni      13.05698770       7.52166385       2.13439619        2       1.00000000      -0.01392983       0.08493659      -0.10895221
Pt      -0.07192112       1.53821117       4.35159707        5       0.00000000      -0.07662317       0.11215959      -0.11035559
Pt       2.63943477       1.54222113       4.33397293        4       0.00000000      -0.05295562       0.02217874      -0.08441134
Ni       5.24431222       1.49137033       4.36549962        5       1.00000000       0.03629709       0.00857749      -0.33587463
Ni       7.80388968       1.47782153       4.36779074        5       1.00000000      -0.06166986      -0.05739116      -0.24655877
Pt       1.30310766       3.84765358       4.42225719        5       0.00000000      -0.05339378       0.07821964      -0.00673059
Ni       3.91409547       3.74632724       4.36113446        5       1.00000000       0.00986953       0.00850959      -0.28015921
Pt       6.54268033       3.72284375       4.34836722        4       0.00000000      -0.04127701       0.00596732      -0.01750449
Ni       9.12081007       3.79983848       4.40841537        5       1.00000000       0.03500279       0.13285178      -0.17361194
Ni       2.58757427       5.96952329       4.39939073        5       1.00000000       0.02245066       0.06252627      -0.12477914
Pt       5.19187782       5.93784128       4.30976603        4       0.00000000      -0.06159167      -0.01125961      -0.11762700
Ni       7.88561490       5.92495869       4.36118581        5       1.00000000       0.09121724      -0.11375610      -0.26925002
Ni      10.40538497       5.95755939       4.42616616        5       1.00000000      -0.02988567       0.03668274      -0.07266499
Pt       3.86783312       8.22302940       4.28393704        4       0.00000000      -0.01027514       0.04757654      -0.15357122
Pt       6.53476363       8.18510084       4.29246605        4       0.00000000      -0.01236062       0.02596575      -0.14797803
Pt       9.14693698       8.13478133       4.36121170        5       0.00000000      -0.05057082      -0.04003385      -0.03884903
Pt      11.74879899       8.21169328       4.34843306        4       0.00000000      -0.01310934      -0.06342941      -0.04929010
Pt      -0.05281469      -0.02395340       6.66892545        8       0.00000000       0.07220281       0.04023509       0.18894339
Pt       2.63339041      -0.04729432       6.66698986        8       0.00000000      -0.03855492       0.01511735       0.38939001
Pt       5.27247677      -0.12357761       6.65736377        8       0.00000000      -0.03183168       0.03753963       0.19187878
Ni       7.81344942      -0.02711531       6.59970277        7       1.00000000       0.03454878       0.04979728      -0.22071873
Pt       1.28860399       2.32789238       6.66094681        8       0.00000000      -0.03088176      -0.03132694       0.24773722
Pt       3.91614489       2.26253614       6.51734527        6       0.00000000       0.18007413      -0.07462790       0.69370345
Pt       6.54800526       2.19094553       6.50886892        6       0.00000000      -0.05371428      -0.09585107       0.64400305
Pt       9.10445716       2.31389816       6.61105047        7       0.00000000      -0.03054883       0.20675128       0.06395477
Ni       2.56559891       4.51502519       6.57552369        7       1.00000000      -0.01955797       0.07848604      -0.15896854
Pt       5.19925602       4.48527344       6.61262406        7       0.00000000      -0.00070803      -0.03128052       0.24576775
Ni       7.87918145       4.50006070       6.48454920        6       1.00000000       0.08777733       0.06473569       0.02341441
Ni      10.41399283       4.55327333       6.56456345        7       1.00000000      -0.10140486       0.08821287      -0.35059440
Pt       3.77587342       6.71266678       6.62051340        7       0.00000000       0.02782808      -0.05617831      -0.05311423
Pt       6.59718318       6.66184572       6.53123889        6       0.00000000       0.01687289      -0.06208585       0.38859138
Ni       9.16937619       6.65272821       6.55635348        7       1.00000000       0.02341543      -0.10795056      -0.29710684
Ni      11.70488963       6.67000774       6.56555650        7       1.00000000      -0.10840298      -0.18671915      -0.37223533
