64
Lattice="10.305153171049264 -0.01423139643348054 -0.0509500527311996 5.1402518346819095 8.891088687437101 -0.027406237931518727 -0.04160054385311184 -0.0018207637255561772 8.873915313443579" Properties=species:S:1:pos:R:3:tags:I:1:initial_magmoms:R:1:forces:R:3 unique_id=35bf6aa96c3446859c1a3c8e2e1a001e stress="-0.00046394264292640847 2.0154218466652115e-07 4.1861412796360006e-06 2.0154218466652115e-07 -0.0004598936368068185 5.760128211653644e-06 4.1861412796360006e-06 5.760128211653644e-06 -0.0003629293944689485" energy=-398.7939285970197 pbc="T T T"
Ni       0.03984944       0.02157364       0.15158787        4       1.00000000       0.11683201       0.12890095       0.16658781
Ni       2.57234804      -0.00263714       0.18590683        4       1.00000000      -0.00308270      -0.02102882       0.30446518
Ni       5.10249318      -0.04626485       0.05209284        4       1.00000000      -0.15553586      -0.06186685       0.10322371
Pt       7.72109022      -0.09276885       0.07039595        4       0.00000000       0.00936357      -0.04127650       0.20848000
Ni       1.28714913       2.24088189       0.10017641        4       1.00000000      -0.02072393       0.12730139       0.19742860
Pt       3.77668255       2.23076416       0.18524237        4       0.00000000      -0.05120879       0.02814828       0.27792191
Pt       6.42068686       2.30847482       0.12993242        4       0.00000000      -0.03106977       0.15590052       0.45044163
Pt       9.09946999       2.30656794      -0.00639424        4       0.00000000       0.06793481       0.11940991      -0.16884643
Ni       2.53173566       4.46842137       0.09215013        4       1.00000000      -0.14842972       0.04019083       0.20577861
Ni       5.09720997       4.46371663       0.13439076        4       1.00000000      -0.23453125       0.05796663       0.26576169
Ni       7.76579597       4.46883423       0.03908463        4       1.00000000       0.22054565       0.11831907       0.07209401
Ni      10.33216293       4.47552105       0.04400415        4       1.00000000       0.09346551       0.15279190       0.16094309
Ni       3.83714906       6.60583269       0.03834240        4       1.00000000      -0.08444217      -0.21511391       0.04737139
Pt       6.46806117       6.66822632      -0.03014635        4       0.00000000       0.00510096       0.03103279      -0.31393134
Ni       9.02049196       6.64059736       0.09164832        4       1.00000000      -0.00012730      -0.09109140       0.14763263
Ni      11.55472116       6.59730765       0.00218898        4       1.00000000      -0.11115051      -0.12506344       0.02208469
Ni       1.32891918       0.77920709       2.17199229        3       1.00000000       0.05239365       0.09852366      -0.11105060
Ni       3.79541100       0.71611302       2.20719008        3       1.00000000      -0.04626585      -0.07782131       0.07575839
Pt       6.36703842       0.73503892       2.21471825        3       0.00000000       0.01036485      -0.01960749      -0.05682650
Pt       9.10297642       0.81689959       2.19792890        3       0.00000000       0.10157889       0.09329422      -0.11519827
Ni       2.52902271       3.00326596       2.22644177        3       1.00000000      -0.09240081       0.16413132       0.01311677
Ni       5.07388232       2.99818526       2.24047239        3       1.00000000      -0.14578586      -0.01739002       0.14074585
Ni       7.76868634       3.00312272       2.21138958        3       1.00000000       0.19173522       0.02397438       0.04833936
Ni      10.33569333       3.01485226       2.18710837        3       1.00000000       0.05909410       0.07414399       0.01317438
Ni       3.82161645       5.10890355       2.21047706        3       1.00000000      -0.05077674      -0.16370822       0.07504154
Pt       6.47580924       5.14841266       2.17621521        3       0.00000000       0.12181497       0.01704399      -0.08040770
Ni       9.02204490       5.13248075       2.18623332        3       1.00000000       0.10692388      -0.15511602       0.06254162
Ni      11.55731058       5.10628586       2.14390485        3       1.00000000      -0.10196253      -0.12248856      -0.06711611
Pt       5.15827423       7.38255417       2.16575007        3       0.00000000      -0.02848479      -0.11781121      -0.19108841
Ni       7.72665696       7.41982763       2.18681303        3       1.00000000      -0.03945629      -0.06024183      -0.00230861
Pt      10.19578584       7.32822221       2.19581843        3       0.00000000      -0.07871569      -0.14403721       0.02279290
Pt      12.82020317       7.24334142       2.18577817        3       0.00000000      -0.05363323      -0.21110307      -0.06392906
Ni      -0.00534248       1.52116864       4.43234143        2       1.00000000       0.06721255       0.02951753      -0.01408954
Pt       2.50040952       1.50288921       4.29210131        2       0.00000000       0.05301883       0.04206054       0.07167172
Pt       5.09388846       1.42985905       4.36674959        2       0.00000000      -0.04319865       0.04265940       0.14405277
Pt       7.79051225       1.52542503       4.35926702        2       0.00000000       0.00964078      -0.00634649       0.10029337
Pt       1.22153418       3.78170058       4.40366634        2       0.00000000      -0.00855265       0.03518528      -0.00068475
Ni       3.81827047       3.76664119       4.35392235        2       1.00000000      -0.05853976       0.08676911      -0.09828969
Pt       6.43244714       3.77928129       4.35393653        2       0.00000000      -0.04049927       0.05554016       0.04460131
Ni       9.01709976       3.75440713       4.37074066        2       1.00000000       0.02471810       0.20259350      -0.10637754
Ni       2.53235435       5.89512173       4.43877801        2       1.00000000      -0.03997295      -0.05834757       0.03777492
Ni       5.08890086       5.90053246       4.38598756        2       1.00000000      -0.07107040      -0.11313018      -0.18334280
Ni       7.76427005       5.91003465       4.37073255        2       1.00000000       0.24114979      -0.05594131      -0.16652501
Ni      10.26736838       5.92185052       4.36353522        2       1.00000000      -0.01625508      -0.02530737      -0.08770792
Pt       3.82341809       8.05321443       4.39020972        2       0.00000000      -0.02001101       0.04918431       0.07291939
Pt       6.47077592       8.06960094       4.34582734        2       0.00000000       0.08421996      -0.02333407      -0.02006170
Ni       9.01049125       8.08929508       4.35526181        2       1.00000000       0.01304001      -0.07163924      -0.02627475
Ni      11.50889790       8.06153031       4.36717594        2       1.00000000      -0.08731998      -0.17258125      -0.04331563
Pt      -0.03174300       0.02658010       6.62805812        1       0.00000000      -0.00967224       0.02862290       0.06340743
Pt       2.58297052      -0.02826230       6.63356935        1       0.00000000       0.08019703       0.01107926       0.19145201
Ni       5.12736424      -0.04944084       6.54752480        1       1.00000000      -0.02793324      -0.07792944      -0.14471388
Pt       7.63565073      -0.10287703       6.48761438        1       0.00000000      -0.10229807      -0.08166849      -0.29998856
Ni       1.21702207       2.27211357       6.57774574        1       1.00000000      -0.04349921       0.08120801      -0.08451940
Pt       3.77077522       2.28521202       6.54015797        1       0.00000000      -0.16100681       0.15298390      -0.15653442
Pt       6.45564253       2.25123314       6.53900232        1       0.00000000       0.09268966       0.02545739      -0.13421631
Ni       9.03789477       2.27354631       6.45183112        1       1.00000000       0.14456498       0.16324689      -0.30375175
Ni       2.49191453       4.49745585       6.56808961        1       1.00000000      -0.11187301       0.14816768      -0.04898582
Pt       5.08954548       4.55507273       6.57772135        1       0.00000000      -0.00521679       0.16492576       0.14700828
Ni       7.73944593       4.44837060       6.53859635        1       1.00000000       0.13302724      -0.00060559      -0.12559160
Ni      10.28653857       4.41169926       6.52610089        1       1.00000000       0.06882668      -0.07663852      -0.04602853
Ni       3.79532213       6.64154728       6.55810293        1       1.00000000      -0.09964933       0.01295501      -0.12365187
Ni       6.41120840       6.64613393       6.45204901        1       1.00000000       0.10740637      -0.02266771      -0.45739361
Pt       9.03847685       6.58158018       6.51754569        1       0.00000000       0.12674101      -0.09173741       0.09799904
Ni      11.56256097       6.60095237       6.50101329        1       1.00000000       0.02075115      -0.24058994      -0.21015784
