64
Lattice="10.140331669599828 -0.02122677990773753 0.009182625036455259 5.051782904159272 8.790406185225763 0.022782259932954324 0.0 0.0 21.46030489916791" Properties=species:S:1:pos:R:3:tags:I:1:initial_magmoms:R:1:forces:R:3 unique_id=f3a5384e6051406e8265382cbc0c5411 energy=-369.9409256396168 stress="0.0017368915395173674 0.00013389136811250578 0.00014386605782095864 0.00013389136811250578 0.0016745435337865364 -5.390625289579756e-05 0.00014386605782095864 -5.390625289579756e-05 -0.005271661026518068" pbc="T T T"
Ni       0.02773192       0.02527920       0.09245635        1       1.00000000       0.10288891       0.05959359      -0.78243352
Ni       2.50073240      -0.01459827       0.15337797        2       1.00000000      -0.00457948      -0.05861864      -0.29059103
Ni       5.09396755      -0.03062974       0.06517109        1       1.00000000      -0.02835967      -0.00225799       0.17576791
Ni       7.60426518      -0.04726124       0.00180876        0       1.00000000       0.02131089      -0.02434460      -0.05860332
Ni       1.21709359       2.22143017       0.06106905        1       1.00000000       0.05276227      -0.00819455       0.21494656
Pt       3.73155190       2.20276661       0.16149607        2       0.00000000       0.04566788       0.01825988      -0.84395543
Pt       6.39458318       2.18433778       0.03883496        0       0.00000000      -0.12758141       0.06873107      -0.14213179
Ni       8.92148801       2.23301353       0.01369186        0       1.00000000      -0.00765859       0.04504558       0.06097144
Ni       2.48578479       4.43045528       0.06659434        1       1.00000000       0.03330038      -0.00877274       0.25662154
Ni       5.03091477       4.42115380       0.13785046        1       1.00000000      -0.16387308      -0.07301691      -0.49115514
Ni       7.64233974       4.37052519       0.03087962        0       1.00000000       0.13818434      -0.00320567      -0.00372855
Ni      10.15556739       4.34997521       0.06778105        1       1.00000000      -0.01986902       0.12440605       0.22458232
Ni       3.77930016       6.57021458       0.01853186        0       1.00000000      -0.00261573      -0.05559806       0.07453370
Ni       6.31048112       6.59314936       0.00000000        0       1.00000000       0.07940414       0.03308906      -0.02538817
Pt       8.86835867       6.57352754       0.14326543        1       0.00000000      -0.01232654      -0.02967157      -0.51520357
Ni      11.40471164       6.55300726       0.01576462        0       1.00000000      -0.09999664      -0.09062545       0.12356166
Ni       1.30205567       0.77292539       2.08246639        3       1.00000000       0.07365010       0.13486510       0.07680115
Ni       3.80618845       0.66629355       2.11969261        3       1.00000000       0.06082660      -0.12598512       0.08253183
Ni       6.29679563       0.70803435       2.11352900        3       1.00000000      -0.07089377       0.00337700       0.04636688
Pt       8.88851388       0.80972420       2.07110909        3       0.00000000      -0.07823768      -0.02566240      -0.00531980
Ni       2.48855094       2.98216513       2.14552359        3       1.00000000      -0.04902703       0.07700650       0.09301768
Ni       5.04588915       2.92736899       2.16559439        4       1.00000000      -0.00361122       0.01872037       0.20759034
Ni       7.64593808       2.95449501       2.13840590        3       1.00000000       0.03301510       0.08341976       0.09602348
Ni      10.15589826       2.96553996       2.11698216        3       1.00000000       0.01230958       0.04215408       0.05640872
Ni       3.75475416       5.07634524       2.14591987        3       1.00000000      -0.02933767      -0.05288623       0.11680424
Pt       6.39218168       5.11103970       2.09069724        3       0.00000000       0.13631259      -0.00798617      -0.00633736
Ni       8.92350700       5.09619377       2.19444676        4       1.00000000       0.08558547      -0.03316424       0.13436029
Ni      11.36156767       5.08666063       2.11252602        3       1.00000000      -0.07372617       0.01703278       0.01667722
Pt       5.10782112       7.32355707       2.11285236        3       0.00000000      -0.02269885      -0.04006643       0.03818322
Ni       7.63673345       7.35503172       2.20601271        4       1.00000000       0.01099952       0.04424516       0.26104129
Ni      10.09062994       7.31601775       2.20927510        4       1.00000000      -0.02479846       0.01102514       0.17242790
Pt      12.57183734       7.25021985       2.11963248        3       0.00000000       0.02727297       0.00704340      -0.00560454
Ni       0.00148729       1.49780360       4.27221023        6       1.00000000      -0.01651216       0.00489626      -0.10641258
Pt       2.47288397       1.43070311       4.16752585        5       0.00000000      -0.07917171      -0.08317891      -0.13460166
Pt       5.06782233       1.38688647       4.21192119        5       0.00000000      -0.01762831      -0.14007422      -0.12310940
Pt       7.66333313       1.47016600       4.31855282        6       0.00000000       0.05485008      -0.01490738      -0.03841472
Pt       1.22611248       3.73630720       4.26492574        6       0.00000000       0.01758031      -0.03355156       0.01827460
Ni       3.78287889       3.73124987       4.22576859        5       1.00000000      -0.01758832       0.03369551      -0.19826211
Pt       6.35562269       3.72142447       4.28848721        6       0.00000000      -0.00593984       0.05139276      -0.07555604
Ni       8.88840175       3.71614308       4.28408074        6       1.00000000       0.00054942       0.12038406      -0.06964852
Ni       2.51159931       5.84896520       4.30618731        6       1.00000000      -0.00906778      -0.04454644      -0.07453803
Ni       5.05898452       5.86651991       4.28165065        6       1.00000000       0.04808944      -0.01649770      -0.11972763
Ni       7.62333748       5.89084104       4.25197586        6       1.00000000       0.00175767       0.02944736      -0.13691669
Ni      10.13932236       5.87724846       4.22301598        5       1.00000000       0.03325131      -0.01081776      -0.20141308
Pt       3.77844836       7.99101413       4.32354448        6       0.00000000      -0.02651359      -0.06841842      -0.06396030
Ni       6.34946582       8.00055051       4.27421305        6       1.00000000       0.06761604      -0.10319836      -0.09651192
Ni       8.86511776       7.99684087       4.23316878        5       1.00000000      -0.05396768      -0.00059286      -0.15344453
Ni      11.35390493       7.97547607       4.31675637        6       1.00000000      -0.06645368      -0.07928752      -0.06770592
Pt      -0.05691881       0.03926376       6.45040958        9       0.00000000       0.09509718       0.11587105       0.35991668
Pt       2.55360383      -0.03250053       6.43266345        8       0.00000000       0.03763009      -0.13494694       0.24378328
Ni       5.13920333      -0.02965676       6.38652056        8       1.00000000      -0.05342995      -0.08357945      -0.09986540
Ni       7.54959647      -0.02956334       6.40902847        8       1.00000000      -0.01768517       0.00168210       0.03591871
Ni       1.21805970       2.25802128       6.40699193        8       1.00000000       0.00142176      -0.06711088      -0.08402387
Pt       3.78813154       2.25075248       6.35364597        8       0.00000000       0.05863732       0.27912069       0.95386931
Ni       6.37780857       2.18407989       6.34640232        7       1.00000000      -0.12289376       0.06089153       0.55320174
Ni       8.87974889       2.25165369       6.40650924        8       1.00000000       0.04435073       0.05797263      -0.01951255
Ni       2.48235051       4.46285151       6.40099816        8       1.00000000       0.07297433       0.00383271      -0.15895594
Pt       5.06476901       4.50072780       6.46030490        9       0.00000000      -0.19059940      -0.16390440       0.33125580
Ni       7.63932173       4.36520066       6.40489568        8       1.00000000       0.09688222       0.00160403      -0.00187912
Ni      10.15135381       4.35829937       6.41751021        8       1.00000000      -0.04915469       0.05683035      -0.16639414
Ni       3.73371366       6.59595638       6.41093798        8       1.00000000      -0.05198030       0.00211749       0.05538828
Ni       6.32977371       6.59429880       6.36119877        8       1.00000000       0.08874973       0.08019745      -0.05205637
Pt       8.92759868       6.50854716       6.30529898        7       0.00000000       0.04009279       0.04494783       0.55150535
Ni      11.44325127       6.57951390       6.37676738        8       1.00000000      -0.07524380      -0.04822877      -0.21897037
