64
Lattice="10.381534813090427 0.0007667246442602496 0.08098654302575091 5.191431409564843 9.046073264950271 0.061944089804542864 0.06612523548168163 0.02022402543471784 8.952272417842702" Properties=species:S:1:pos:R:3:tags:I:1:initial_magmoms:R:1:forces:R:3 unique_id=7ce5181230da4d439b3b59dd704d87f0 stress="-0.0006046707777756441 2.324088843872526e-07 -1.681026546127051e-05 2.324088843872526e-07 -0.0006190045246652204 -2.5989586136792075e-06 -1.681026546127051e-05 -2.5989586136792075e-06 -0.0004971786266456391" energy=-404.72714924436224 pbc="T T T"
Pt      -0.08885354       0.01435439       0.01971703        4       0.00000000      -0.16377239       0.04800831      -0.14752599
Ni       2.64712391      -0.00294087       0.07054176        4       1.00000000       0.13454197      -0.03982294       0.09553063
Ni       5.21922774      -0.00501063       0.09922295        4       1.00000000       0.19763743      -0.06077955       0.00724445
Ni       7.74937018       0.00764353       0.23203715        4       1.00000000      -0.16438595       0.01738227       0.22076062
Pt       1.29578695       2.27363826       0.00047713        4       0.00000000       0.04108660       0.04476041      -0.22551349
Ni       3.93108939       2.23773089       0.17789163        4       1.00000000       0.11494725       0.02981988       0.28452005
Ni       6.51022446       2.21793099       0.21913076        4       1.00000000       0.06250817      -0.24026134       0.26367002
Ni       9.04917048       2.28054524       0.14866914        4       1.00000000      -0.13795282       0.05096499       0.14893357
Pt       2.54439877       4.60659862       0.14760669        4       0.00000000      -0.03204665       0.14960658       0.18664848
Pt       5.25762771       4.44115457       0.20238026        4       0.00000000       0.13616277      -0.16464943       0.19002904
Ni       7.83954692       4.51078955       0.21976624        4       1.00000000       0.18456564      -0.01554196       0.20597665
Ni      10.34162138       4.56258378       0.16496313        4       1.00000000      -0.12127872       0.16917548       0.10898036
Ni       3.86490887       6.80879542       0.19347222        4       1.00000000      -0.05791616       0.06400535       0.20622397
Pt       6.55683293       6.76274901       0.19077691        4       0.00000000       0.12545271       0.00033057       0.32539584
Ni       9.13970332       6.77713844       0.15049863        4       1.00000000       0.22037873      -0.01531305       0.13174787
Ni      11.67507535       6.81395968       0.24975017        4       1.00000000       0.06936843       0.13929285       0.14836613
Pt       1.29033097       0.75834035       2.24907905        3       0.00000000      -0.03835570       0.07438737      -0.23170265
Pt       4.01405851       0.75650745       2.20005980        3       0.00000000       0.09141175      -0.07424164      -0.01383638
Ni       6.56293616       0.74328095       2.28413613        3       1.00000000       0.13874437      -0.10371886       0.01927425
Ni       9.02064161       0.75753837       2.32961933        3       1.00000000      -0.15926151       0.07457996       0.04605684
Pt       2.64925672       3.03880135       2.30239436        3       0.00000000      -0.00662105       0.05193467      -0.12881055
Ni       5.24281033       3.01656144       2.32035656        3       1.00000000      -0.00382204       0.03887293       0.13445686
Pt       7.73892203       3.01095326       2.32706871        3       0.00000000      -0.01867046      -0.04699068       0.06594345
Pt      10.32910369       3.09371950       2.30473964        3       0.00000000      -0.02730846      -0.03755274      -0.20924362
Pt       3.90450041       5.29180020       2.31892592        3       0.00000000       0.02269167      -0.03506193      -0.11582135
Ni       6.54663837       5.24038457       2.33915392        3       1.00000000       0.09518370      -0.04674322       0.04036021
Ni       9.10102717       5.27780277       2.33450454        3       1.00000000       0.00833219      -0.00920295       0.05038880
Ni      11.66037280       5.30982963       2.35227940        3       1.00000000      -0.05488859      -0.01158432       0.01259863
Pt       5.11186177       7.57437041       2.32417376        3       0.00000000      -0.02157402       0.09679231      -0.08157643
Pt       7.86280221       7.45574209       2.35042614        3       0.00000000      -0.02893521      -0.07597991       0.02781577
Pt      10.49597404       7.49965736       2.32597929        3       0.00000000       0.09685317      -0.01999329       0.12728163
Ni      12.97500082       7.59618382       2.34571055        3       1.00000000       0.01094501       0.15544270      -0.02818963
Pt      -0.10465020       1.53204153       4.51369886        2       0.00000000      -0.15442014       0.04231799      -0.20162075
Pt       2.63461824       1.53226181       4.51124439        2       0.00000000       0.08223735       0.05964111       0.02086577
Pt       5.32342885       1.53506013       4.44021179        2       0.00000000       0.06944870       0.05240146       0.01529686
Ni       7.81963292       1.51541031       4.48542800        2       1.00000000      -0.08882368      -0.01074778      -0.11605495
Pt       1.22700087       3.83313595       4.46995839        2       0.00000000      -0.07821976       0.10859337      -0.04065538
Ni       3.94986622       3.76450557       4.48042829        2       1.00000000       0.01922134      -0.04524598      -0.00158594
Ni       6.57082662       3.77485981       4.47760293        2       1.00000000       0.11998286      -0.00449580      -0.04093935
Ni       9.07194991       3.80884512       4.52602266        2       1.00000000      -0.19567350       0.04316355      -0.17207851
Pt       2.56559077       6.13078671       4.42464805        2       0.00000000      -0.12878302       0.11083848       0.03800090
Pt       5.27528958       5.98517074       4.45231481        2       0.00000000       0.08043158      -0.05986304       0.10785683
Ni       7.86847634       5.97854905       4.50726250        2       1.00000000       0.10970686      -0.17165599      -0.13063350
Ni      10.36816340       6.01885151       4.54705408        2       1.00000000      -0.18307902      -0.07700321      -0.08378783
Ni       3.87682697       8.33277606       4.48176826        2       1.00000000      -0.16087072       0.06828083      -0.11733775
Pt       6.49922050       8.31341933       4.54097697        2       0.00000000      -0.03537106      -0.08213280       0.06405921
Pt       9.18726037       8.22278700       4.63332371        2       0.00000000       0.07211630       0.00008082       0.06312120
Ni      11.74325256       8.32882024       4.54665825        2       1.00000000       0.09334472       0.17571369      -0.10181580
Ni       0.06109338       0.05565448       6.57530949        1       1.00000000       0.03740720       0.02580225      -0.26048552
Ni       2.64497480       0.00970428       6.68257164        1       1.00000000      -0.06457101      -0.03826544      -0.09561187
Ni       5.20745025      -0.00313910       6.69937255        1       1.00000000      -0.02719860       0.01701387      -0.08139645
Pt       7.85434393       0.04768696       6.68314460        1       0.00000000       0.01174224       0.01760538       0.07837064
Ni       1.28264259       2.24851649       6.57750485        1       1.00000000      -0.19817380      -0.05285997      -0.33820719
Pt       3.90065614       2.17930734       6.74423465        1       0.00000000      -0.10121292      -0.14647168       0.13789566
Pt       6.57882545       2.25694368       6.72685076        1       0.00000000       0.04843471      -0.03750735       0.13035051
Ni       9.16333220       2.28307089       6.73433361        1       1.00000000       0.04060467       0.02883115      -0.01278000
Pt       2.57661189       4.50392668       6.61769317        1       0.00000000      -0.09830572      -0.07578579      -0.34324018
Pt       5.25184920       4.50498488       6.62668289        1       0.00000000      -0.01264295      -0.03300878      -0.17837581
Pt       7.95403523       4.53767293       6.68994502        1       0.00000000       0.08151486      -0.03083363       0.07451462
Ni      10.40641328       4.52161627       6.73592630        1       1.00000000       0.02639120      -0.07672758      -0.09845441
Pt       3.94893234       6.84757478       6.72001142        1       0.00000000       0.03325961      -0.03042174       0.04606007
Pt       6.62629652       6.84200730       6.67254994        1       0.00000000       0.03646053       0.02151921      -0.27976382
Ni       9.13416574       6.80498802       6.74165584        1       1.00000000      -0.04555985      -0.01376731      -0.02973816
Pt      11.59645134       6.81689825       6.77075199        1       0.00000000      -0.10342078       0.00707188       0.08218683
