64
Lattice="10.451537462775757 0.005862148455046367 0.05002612334197975 5.230845500870706 9.09246337556328 -0.014197928652274755 0.0 0.0 21.707612502283638" Properties=species:S:1:pos:R:3:tags:I:1:initial_magmoms:R:1:forces:R:3 unique_id=a4482f0960044ab0a108a3ab87a66d5f energy=-384.84380177748386 stress="0.004563083077116212 -7.174888384080103e-05 0.0004114729577423538 -7.174888384080103e-05 0.004520100415789315 -0.0003266103284725641 0.0004114729577423538 -0.0003266103284725641 -0.0031512141304280046" pbc="T T T"
Ni      -0.05181459      -0.02657362       0.08224637        1       1.00000000      -0.19631095      -0.06372083      -0.04319439
Ni       2.63891926      -0.04068857       0.00000000        0       1.00000000       0.10090043      -0.05724676       0.34390507
Ni       5.25164627      -0.04443049       0.08661763        1       1.00000000       0.14936292       0.05081139      -0.10888130
Ni       7.87170418      -0.03243979       0.07003539        1       1.00000000       0.01092547      -0.08735011       0.62830292
Pt       1.24620874       2.22628207       0.01788625        0       0.00000000       0.06240701      -0.00532340      -1.10293476
Pt       3.95941986       2.23531961       0.04515463        0       0.00000000       0.12370680       0.08593516      -1.00250553
Pt       6.59028528       2.19406155       0.08222436        1       0.00000000      -0.06744484      -0.18763864      -0.16403909
Ni       9.13964521       2.24082189       0.02858292        0       1.00000000       0.01882832      -0.15429679       0.35701149
Pt       2.61844528       4.62529138       0.01191275        0       0.00000000       0.03187898       0.00062356      -1.15473822
Ni       5.25780028       4.55048031       0.07574612        1       1.00000000       0.19391224      -0.08625855      -0.03649650
Pt       7.90676267       4.56315059       0.08817928        1       0.00000000      -0.02334091       0.07574208      -0.03586529
Ni      10.44439557       4.57909966       0.01197051        0       1.00000000       0.05374487       0.09373551       0.28684142
Ni       3.92078009       6.87745406       0.08111870        1       1.00000000      -0.06454379       0.17767536       0.03271372
Pt       6.53039980       6.86607686       0.12472404        1       0.00000000      -0.03722439      -0.02537407      -0.21717407
Ni       9.17341967       6.83214866       0.01183810        0       1.00000000      -0.02077471      -0.03406293       0.46295585
Ni      11.76620177       6.86113933       0.08709132        1       1.00000000       0.17384757       0.08909499      -0.01414244
Pt       1.27055696       0.63665029       2.13300265        2       0.00000000       0.01347437      -0.15901769       0.16568016
Pt       3.99663820       0.72781724       2.20616638        3       0.00000000       0.03001805      -0.07781454       0.23004079
Ni       6.58430165       0.73494833       2.21930649        3       1.00000000       0.08774493      -0.07797880       0.16252584
Ni       9.10094402       0.71940203       2.17807350        3       1.00000000      -0.14204986       0.00567679      -0.04916242
Pt       2.63709095       3.03181043       2.19921832        3       0.00000000      -0.06668174       0.04126040       0.42714034
Ni       5.27654033       3.02356589       2.21294747        3       1.00000000       0.03617258       0.04037747       0.28694542
Pt       7.78385424       3.01316458       2.32326132        4       0.00000000      -0.05974543      -0.04761984       0.18590332
Pt      10.36008664       3.04192416       2.19389409        3       0.00000000      -0.24539319       0.06682472       0.05806923
Pt       4.02888422       5.36934492       2.12480313        2       0.00000000       0.17017360       0.07185680       0.13503284
Ni       6.59306761       5.30645930       2.20609831        3       1.00000000       0.13536248      -0.02914391       0.31117132
Ni       9.11665319       5.33168092       2.24583100        3       1.00000000      -0.11787587       0.08198910       0.23645433
Pt      11.71055511       5.35233423       2.19667124        3       0.00000000      -0.12710687      -0.00562667       0.18633861
Ni       5.21193287       7.58046921       2.14557585        2       1.00000000      -0.11049050       0.06341433       0.19371634
Ni       7.86196760       7.51299516       2.19345149        3       1.00000000       0.08904134      -0.14205042       0.20729231
Pt      10.44991056       7.56114256       2.11958114        2       0.00000000      -0.08543248       0.03478772       0.09585481
Ni      13.09875981       7.63580843       2.15653538        3       1.00000000      -0.00343346       0.11291879       0.00205503
Pt      -0.10995091       1.54448180       4.37742696        6       0.00000000      -0.21586427       0.03142416      -0.21996017
Pt       2.64846981       1.46450386       4.40228053        6       0.00000000      -0.06165690      -0.06906770      -0.22516949
Ni       5.30489247       1.50964831       4.38223771        6       1.00000000       0.06968958       0.02857225      -0.37562347
Ni       7.83079543       1.53416868       4.40731568        6       1.00000000      -0.05839700       0.03728451      -0.18663195
Pt       1.21477824       3.83051405       4.39963184        6       0.00000000      -0.12887941       0.11490345      -0.25638520
Pt       4.04574806       3.73257131       4.34795111        5       0.00000000       0.11140165       0.02340193      -0.27753838
Ni       6.60673093       3.75270981       4.40612989        6       1.00000000       0.05220370       0.02905166      -0.22318744
Ni       9.11913357       3.81147121       4.41396532        6       1.00000000      -0.11498177       0.02422089      -0.25706129
Pt       2.60513526       6.07862577       4.34546986        5       0.00000000       0.02760614       0.04141997      -0.23406312
Pt       5.35541398       6.00611807       4.33548059        5       0.00000000       0.07550973      -0.10093791      -0.19742060
Ni       7.91698694       5.99040015       4.36994227        6       1.00000000       0.11247840      -0.12287710      -0.34413665
Ni      10.40477054       6.02741640       4.45132104        7       1.00000000      -0.09553069      -0.01986913      -0.09652815
Pt       3.91844365       8.35045087       4.29451975        5       0.00000000       0.01366323       0.00661185      -0.20740187
Pt       6.57166032       8.28603277       4.35385548        6       0.00000000      -0.07621044       0.10331020      -0.17533079
Pt       9.17641216       8.22109320       4.43064680        6       0.00000000       0.01228363      -0.08457859      -0.06467521
Pt      11.77365958       8.40475580       4.37190565        6       0.00000000      -0.07610266       0.08908977      -0.13052473
Pt      -0.01957704       0.01664688       6.70024549       10       0.00000000       0.05655588      -0.00542041      -0.02245084
Ni       2.64534845      -0.03745114       6.64592680        9       1.00000000      -0.08517754       0.09582726      -0.15401481
Pt       5.22015223      -0.05443271       6.70761250       10       0.00000000       0.02641060       0.14763091       0.00640758
Ni       7.86336845      -0.00712615       6.66361262       10       1.00000000      -0.03360640      -0.05080805      -0.36155595
Pt       1.26083803       2.26236955       6.57105760        9       0.00000000       0.00115921       0.00167751       0.94737428
Pt       3.95270220       2.20691672       6.57059932        9       0.00000000       0.15110693      -0.01058727       0.91658287
Pt       6.64634193       2.20397029       6.52781825        8       0.00000000      -0.12105800       0.06818088       0.25900609
Ni       9.16859654       2.25924080       6.65487720       10       1.00000000      -0.00128571       0.02785098      -0.27172657
Pt       2.60505152       4.52538944       6.56077197        9       0.00000000       0.09771528      -0.06817895       0.96394314
Pt       5.30427898       4.52224887       6.65763438       10       0.00000000       0.25652924      -0.04509026       0.21590464
Pt       7.98471768       4.52755125       6.52647239        8       0.00000000      -0.15287239      -0.00018172       0.11445217
Ni      10.45068499       4.53834000       6.64324687        9       1.00000000       0.02335869       0.02529871      -0.21142934
Pt       3.92339576       6.84085594       6.68166921       10       0.00000000       0.09282941      -0.01869374       0.04472105
Pt       6.66251248       6.83403185       6.59852889        9       0.00000000      -0.01078780      -0.07581941       0.32783126
Ni       9.18246202       6.78732125       6.62611360        9       1.00000000       0.05788337      -0.02997163      -0.24025289
Pt      11.70096339       6.78487658       6.69688185       10       0.00000000      -0.11962666      -0.04587527      -0.12997130
