64
Lattice="10.298530587729955 -0.025358436891610988 0.0030519315508718663 5.1273042433165825 8.909174279133373 -0.008471779295023915 0.0 0.0 21.570867770423348" Properties=species:S:1:pos:R:3:tags:I:1:initial_magmoms:R:1:forces:R:3 unique_id=db96036df15f4eb8b72624d604f65ebe stress="0.005138613985692398 -2.0590390110421856e-05 0.00010211926835236136 -2.0590390110421856e-05 0.005297969977234654 -0.00020132233885112265 0.00010211926835236136 -0.00020132233885112265 -0.0016680358628333065" energy=-375.3064420141004 pbc="T T T"
Ni       0.02014498       0.03283108       0.14965909        1       1.00000000       0.06920845       0.04368969      -0.03653545
Ni       2.56406955      -0.00099181       0.15719747        2       1.00000000      -0.09254414       0.01282885      -0.08605177
Ni       5.11837551      -0.02508300       0.10608769        1       1.00000000      -0.06161407       0.18094543      -0.47326735
Pt       7.78095839      -0.09512631       0.02762932        0       0.00000000       0.12621389       0.00699690      -0.14614284
Ni       1.24216865       2.23039978       0.05693121        1       1.00000000      -0.07191743       0.00278579       0.49099691
Pt       3.76952842       2.23188348       0.05999335        1       0.00000000      -0.01514941       0.01724895       0.02277694
Pt       6.42419012       2.24738111       0.09709929        1       0.00000000      -0.02080652       0.08907246      -0.86027178
Ni       9.05707043       2.20630364       0.13936854        1       1.00000000       0.02067963       0.00574476       0.04363757
Ni       2.55895986       4.46951303       0.01273212        0       1.00000000       0.06668140      -0.02908132       0.23402467
Ni       5.09786847       4.46977192       0.12496863        1       1.00000000      -0.04982198       0.05360865       0.04295939
Pt       7.79626169       4.47086298       0.05246665        1       0.00000000       0.05570224       0.05623031      -0.01259054
Ni      10.31617332       4.42131525       0.01825334        0       1.00000000       0.05840516      -0.08730371       0.27316196
Ni       3.82710107       6.64447655       0.04833025        0       1.00000000      -0.01431666      -0.11906290       0.40954197
Pt       6.38677058       6.71737773       0.13401408        1       0.00000000      -0.01041615       0.04250613      -0.48812911
Ni       9.00924190       6.67778610       0.01077547        0       1.00000000      -0.13519086       0.01124362       0.06796147
Ni      11.57449617       6.62948294       0.00000000        0       1.00000000       0.10117660      -0.06615247       0.12386544
Ni       1.26834675       0.75918949       2.11759759        3       1.00000000      -0.04826143       0.12323982       0.00422212
Ni       3.81932544       0.75137297       2.14747558        3       1.00000000      -0.08854337       0.04397258       0.15577141
Pt       6.42183004       0.74806686       2.20269195        4       0.00000000      -0.04820483       0.12827701       0.02366672
Ni       9.07075794       0.73469300       2.14224934        3       1.00000000       0.10919515       0.05827751       0.13102588
Ni       2.56866367       2.95609345       2.15548518        4       1.00000000      -0.01786656      -0.01237185       0.11218023
Ni       5.09508579       3.00881424       2.18609320        4       1.00000000      -0.19501431       0.09970928       0.15859030
Ni       7.77000289       2.99268468       2.16923641        4       1.00000000       0.14696503       0.08004105       0.11185333
Ni      10.28160698       2.90887487       2.14357313        3       1.00000000       0.06751781      -0.07343467       0.09510652
Ni       3.88383651       5.19433669       2.15888055        4       1.00000000       0.09522073       0.00419984       0.09867616
Ni       6.40779530       5.19441165       2.17566446        4       1.00000000      -0.06131895       0.07777277       0.12559148
Ni       8.97347851       5.14965320       2.18520082        4       1.00000000      -0.06312362      -0.15409522       0.21016837
Pt      11.62038962       5.12304260       2.08960766        3       0.00000000       0.04917120      -0.14217238      -0.01077842
Ni       5.09928324       7.40855384       2.14448246        3       1.00000000      -0.15383939      -0.10581318      -0.01981548
Ni       7.68710827       7.41075134       2.14760515        3       1.00000000      -0.02340261      -0.06945317       0.04556919
Pt      10.22699917       7.36799466       2.05728033        3       0.00000000       0.02260088      -0.16644255      -0.08156027
Ni      12.90715312       7.36327524       2.14223369        3       1.00000000       0.10061090      -0.13159929       0.03440492
Ni       0.01233354       1.49971433       4.28395779        6       1.00000000       0.12503172      -0.06029501      -0.31002205
Pt       2.59986586       1.52936663       4.26596702        6       0.00000000      -0.02318824      -0.02867679      -0.11812149
Ni       5.12530217       1.50740472       4.30591255        6       1.00000000       0.01411459       0.11744893      -0.22830977
Pt       7.80493703       1.51037868       4.26996843        6       0.00000000       0.20617935      -0.01116645      -0.05728560
Pt       1.28198060       3.70392982       4.36155210        7       0.00000000      -0.02907377      -0.06614225      -0.04732702
Ni       3.85665744       3.73714897       4.29222158        6       1.00000000       0.02969005       0.08289693      -0.28904327
Pt       6.41017735       3.77341113       4.22079465        5       0.00000000      -0.02064113       0.01323469      -0.15203993
Ni       8.99825222       3.70409497       4.29826996        6       1.00000000      -0.02285078      -0.01257293      -0.29065428
Ni       2.60463560       5.89164259       4.34385763        6       1.00000000       0.10924428      -0.19420347      -0.08598273
Ni       5.09715318       5.90151052       4.27070696        6       1.00000000      -0.09236174      -0.04516729      -0.34171172
Ni       7.71170445       5.89032551       4.28681042        6       1.00000000      -0.04849614       0.00967722      -0.34425951
Pt      10.24049046       5.85632217       4.38446053        7       0.00000000      -0.02609288      -0.04388016      -0.07404138
Pt       3.85386954       8.08874173       4.26024332        6       0.00000000       0.07719329      -0.08343622      -0.08610377
Pt       6.39773684       8.13020141       4.18683657        5       0.00000000      -0.05332769       0.02023953      -0.22402782
Pt       8.97341336       8.14053380       4.27287930        6       0.00000000      -0.05766643       0.01001370      -0.07234997
Pt      11.59296427       8.09475028       4.33653806        6       0.00000000       0.03054163      -0.03825307      -0.09868272
Pt      -0.03977981      -0.00273378       6.53910002        9       0.00000000       0.03190521       0.10628732       0.13236669
Pt       2.58262899       0.03595721       6.57086777       10       0.00000000      -0.03314050      -0.01088946       0.33633227
Pt       5.18383185      -0.08205490       6.55282166       10       0.00000000       0.02346755       0.07510914       0.54253813
Ni       7.73442579      -0.06133351       6.42915187        8       1.00000000       0.03510230       0.07101169       0.32752057
Ni       1.30899373       2.27400221       6.49786683        9       1.00000000       0.02855449       0.03459487      -0.12108192
Ni       3.82998238       2.24535164       6.41205618        8       1.00000000       0.02749006      -0.02218486       0.08067698
Pt       6.41855970       2.22312413       6.42071390        8       0.00000000      -0.08200099       0.02674894       0.85689417
Pt       9.07581215       2.29815500       6.51470900        9       0.00000000       0.04215782       0.09174883       0.14758979
Ni       2.52922233       4.46542626       6.48239817        9       1.00000000      -0.10590713       0.08714175      -0.24771685
Pt       5.02286281       4.45522945       6.48776509        9       0.00000000      -0.11158297       0.03165084       0.03528707
Ni       7.75800629       4.45943336       6.39987740        8       1.00000000       0.04682709       0.06599125      -0.01115785
Ni      10.31279051       4.46105432       6.50557119        9       1.00000000       0.07420850       0.04916664      -0.05421415
Ni       3.78451517       6.65884929       6.47161492        9       1.00000000      -0.08583961      -0.04078560      -0.28642038
Pt       6.45429259       6.61639404       6.41356434        8       0.00000000      -0.07176347      -0.04326314       0.44805137
Ni       9.02352824       6.60999772       6.49396825        9       1.00000000      -0.05217661      -0.03803802      -0.02689734
Ni      11.60286933       6.60573126       6.49853494        9       1.00000000       0.09640536      -0.13541624      -0.14041544
