64
Lattice="10.02505168197122 0.013661319999809428 0.021142263603063472 5.024356891154667 8.707774055498806 0.01878044411587964 0.017262585944973683 0.007739813875138208 8.579284260772173" Properties=species:S:1:pos:R:3:tags:I:1:initial_magmoms:R:1:forces:R:3 unique_id=55dc7f06f1bf4c55a8d419c5835011fe stress="-0.0008990655341709203 -1.7572062428023997e-06 1.1613769633688806e-05 -1.7572062428023997e-06 -0.0008989620053851677 5.978478546189648e-07 1.1613769633688806e-05 5.978478546189648e-07 -0.0007798720197289694" energy=-386.0523721323091 pbc="T T T"
Ni       0.03189400      -0.06393067       0.10905220        4       1.00000000       0.07377623      -0.19193665       0.14399332
Ni       2.53031549      -0.05360273       0.12263630        4       1.00000000       0.03637347      -0.09755921       0.15120372
Ni       4.97600196      -0.02637481       0.12347786        4       1.00000000       0.02152691      -0.04714101       0.12483664
Pt       7.55460044      -0.04737739       0.09769774        4       0.00000000       0.06433004      -0.06431715      -0.12634873
Pt       1.25637679       2.10031072       0.01701705        4       0.00000000       0.03905012      -0.11254381      -0.33621462
Ni       3.78498015       2.16911993       0.19894852        4       1.00000000       0.04231546       0.00451872       0.40232843
Pt       6.25606710       2.23390441       0.09545626        4       0.00000000      -0.00281692       0.08094324      -0.13282003
Ni       8.77369325       2.18732128       0.12682577        4       1.00000000      -0.01794159       0.00190806       0.18238118
Ni       2.56450676       4.40510859       0.09554800        4       1.00000000       0.03287623       0.06824833       0.04048050
Ni       5.01190110       4.40963905       0.12762308        4       1.00000000       0.02023679       0.05119312       0.16044594
Ni       7.49978681       4.41093335       0.13128811        4       1.00000000      -0.03883606       0.15142923       0.14841762
Pt      10.01193706       4.41498679       0.10401498        4       0.00000000      -0.00794559       0.04867474      -0.16392610
Ni       3.80588860       6.48944375       0.12120569        4       1.00000000       0.06852781      -0.01593601       0.09579541
Ni       6.27758484       6.53339020       0.13860238        4       1.00000000       0.03215191      -0.00599988       0.13948548
Ni       8.75887880       6.57775528       0.24916027        4       1.00000000      -0.01335005       0.02201396       0.38092807
Ni      11.29724810       6.54158841       0.13892043        4       1.00000000       0.04407644       0.00379082       0.13636982
Ni       1.23377591       0.69596186       2.15733338        3       1.00000000      -0.05484225       0.05474308      -0.07271391
Ni       3.78799092       0.70885072       2.13610558        3       1.00000000       0.04101674       0.00972907       0.04804271
Ni       6.26963045       0.72252980       2.22908296        3       1.00000000       0.09439365      -0.01650478       0.00314132
Ni       8.78481045       0.74561941       2.21925811        3       1.00000000      -0.03761280      -0.02287733       0.04509464
Pt       2.48914769       2.91311989       2.17356969        3       0.00000000      -0.18567237      -0.01298217      -0.11360950
Ni       5.05961308       2.92075437       2.19800220        3       1.00000000       0.09866311       0.01765596       0.07111098
Ni       7.54604116       2.91748163       2.21775015        3       1.00000000      -0.00470750      -0.01212418       0.05564125
Ni       9.97899249       2.90711304       2.23688237        3       1.00000000      -0.05276868       0.00374388      -0.03129828
Ni       3.77413483       5.12497053       2.12753926        3       1.00000000      -0.05301060       0.00649497       0.05127824
Ni       6.27496087       5.07650126       2.12806402        3       1.00000000      -0.02907831      -0.01832341       0.04882203
Ni       8.78390624       5.08205999       2.18902302        3       1.00000000       0.10458244      -0.08993779       0.03250142
Ni      11.28644196       5.14371220       2.22346585        3       1.00000000      -0.02320405       0.04660814       0.05052695
Ni       5.00863643       7.26563321       2.12977062        3       1.00000000      -0.07714442       0.02487681       0.01664362
Ni       7.52151004       7.26468055       2.13976929        3       1.00000000      -0.09606066       0.00963823       0.15439211
Ni      10.07146477       7.25757908       2.16434116        3       1.00000000       0.14141153      -0.01238301       0.08850420
Ni      12.54490699       7.25102999       2.23777620        3       1.00000000       0.04030487       0.03999076       0.07880338
Ni      -0.04423455       1.50282042       4.26357716        2       1.00000000      -0.08105746      -0.04040263      -0.17355921
Ni       2.48285056       1.47838027       4.27259127        2       1.00000000       0.01269648       0.02740037      -0.06617594
Ni       5.10472610       1.46577926       4.25192336        2       1.00000000       0.06891363      -0.01256088      -0.08619497
Ni       7.54381446       1.46292057       4.27210774        2       1.00000000       0.04204918      -0.00306037      -0.18381487
Ni       1.21235328       3.64258735       4.28227798        2       1.00000000      -0.04216615       0.05394480      -0.18602653
Pt       3.75973587       3.62348448       4.28237814        2       0.00000000      -0.00238712      -0.05785191       0.19346156
Ni       6.31280351       3.56957902       4.27906467        2       1.00000000       0.05774957       0.02194360      -0.12060952
Ni       8.80629812       3.57670021       4.28834618        2       1.00000000      -0.07521222      -0.00765376      -0.08629300
Ni       2.45824583       5.84417326       4.27894691        2       1.00000000      -0.00998848       0.01586777      -0.07906737
Pt       4.96885175       5.84291406       4.27593987        2       0.00000000      -0.08446576       0.03442786      -0.01738206
Pt       7.57353984       5.72697813       4.24065319        2       0.00000000       0.06846951      -0.03231835       0.13329721
Ni      10.11199425       5.78939557       4.27232747        2       1.00000000      -0.02866046       0.03399022      -0.05543752
Ni       3.71306316       8.02890033       4.27554293        2       1.00000000      -0.00435436       0.08365450      -0.13348859
Pt       6.23755839       8.07462767       4.28422631        2       0.00000000      -0.04173370       0.11541777       0.04362902
Pt       8.87856509       8.04422551       4.24288009        2       0.00000000       0.08998583       0.00692843       0.10855770
Ni      11.35614351       7.99845459       4.29295787        2       1.00000000       0.02189972       0.02660382      -0.12583322
Ni      -0.03538851       0.02775579       6.36682680        1       1.00000000      -0.19349282       0.08143568      -0.02099948
Ni       2.47146128       0.01575722       6.38642908        1       1.00000000      -0.12727864      -0.03570230       0.01383542
Ni       5.09346408       0.01549436       6.36901160        1       1.00000000       0.23396793      -0.04153255      -0.07824628
Ni       7.53204520       0.02188285       6.26078364        1       1.00000000       0.02659028       0.06530558      -0.20868765
Ni       1.21374742       2.18568105       6.22534274        1       1.00000000      -0.09941024       0.01019910      -0.45500656
Pt       3.77233741       2.14793290       6.42871113        1       0.00000000      -0.00273130      -0.05646459       0.17712133
Ni       6.32423699       2.18101948       6.26097018        1       1.00000000       0.08475502      -0.07330468      -0.25275135
Ni       8.77807460       2.18624355       6.33786354        1       1.00000000      -0.04843794      -0.05229115      -0.07107103
Ni       2.48677733       4.40474457       6.36094902        1       1.00000000      -0.09586150       0.05180977      -0.07814845
Ni       5.04874040       4.38451880       6.39785426        1       1.00000000       0.03383518       0.00780083       0.02840296
Ni       7.52030208       4.30296373       6.37879408        1       1.00000000       0.01029844      -0.15686670      -0.04886486
Ni      10.05429659       4.32923660       6.26864283        1       1.00000000      -0.03695131      -0.08278509      -0.25955968
Ni       3.74640035       6.55642417       6.38433962        1       1.00000000      -0.09604029       0.09628635      -0.01990846
Ni       6.24507138       6.54084773       6.41949085        1       1.00000000      -0.06461715       0.00580459       0.05509279
Pt       8.81842565       6.52677909       6.46885352        1       0.00000000       0.03606621      -0.06255894       0.27767712
Ni      11.34360840       6.55228445       6.36027645        1       1.00000000       0.04694799       0.05089814      -0.09818631
