64
Lattice="10.415079090318235 -0.015887196239716433 0.06049888271964102 5.193780829620612 8.922380483893326 0.03696122379694671 0.0 0.0 21.565501563296657" Properties=species:S:1:pos:R:3:tags:I:1:initial_magmoms:R:1:forces:R:3 unique_id=459766e4bb814473a8fcc4d483bc3f87 energy=-380.34684818512534 stress="0.004636036745695368 -0.00017039615864316118 0.0006058279368809274 -0.00017039615864316118 0.004031421463860251 0.00026958958512708473 0.0006058279368809274 0.00026958958512708473 -0.004293653523944851" pbc="T T T"
Ni      -0.02022430      -0.01046808       0.08663232        1       1.00000000      -0.04366519       0.05057171      -0.02075533
Ni       2.63636077      -0.01320870       0.00686228        0       1.00000000       0.03437050       0.04199535       0.35234428
Ni       5.21295679      -0.03016089       0.06199702        1       1.00000000       0.01364215       0.04934293      -0.40226870
Ni       7.82100506      -0.07313019       0.13038587        1       1.00000000      -0.00708070      -0.02542596      -0.04628224
Pt       1.30658109       2.23640968       0.06730202        1       0.00000000       0.00100011      -0.00615367      -0.26985618
Pt       3.88897037       2.17214146       0.00000000        0       0.00000000       0.00376135       0.06686820       0.04478342
Pt       6.51568180       2.12865152       0.01982221        0       0.00000000       0.06649513       0.02729190      -0.04673047
Pt       9.13747503       2.16961943       0.11410446        1       0.00000000       0.04000712      -0.03148469      -0.36466653
Ni       2.58711499       4.50509462       0.02041913        0       1.00000000      -0.00823699      -0.02104686      -0.16296963
Pt       5.17026426       4.49132407       0.05156255        1       0.00000000       0.24444270      -0.05874288      -0.89423420
Pt       7.85572077       4.49475825       0.05211297        1       0.00000000      -0.22582365      -0.07931940      -0.78856302
Ni      10.44226144       4.49768525       0.01468777        0       1.00000000       0.03722216      -0.02756718       0.13646186
Ni       3.85353463       6.74732048       0.00755483        0       1.00000000       0.00554910       0.04700165       0.35503691
Pt       6.50807453       6.80161430       0.11813481        1       0.00000000      -0.01484805      -0.08277223      -0.51143561
Ni       9.14154041       6.72613949       0.00594696        0       1.00000000      -0.04530884       0.03318756       0.19632204
Ni      11.73430966       6.69057894       0.00980783        0       1.00000000       0.12073272       0.05476991       0.32349427
Ni       1.31320294       0.75636623       2.10554064        2       1.00000000      -0.00609158       0.02212426       0.12091130
Ni       3.86762975       0.75705210       2.12133945        2       1.00000000      -0.12864975       0.04441398       0.12509755
Ni       6.56550760       0.74964521       2.14615013        2       1.00000000       0.10367439       0.06789628       0.16676396
Ni       9.12853573       0.72843814       2.16840695        3       1.00000000       0.04617819       0.05665321       0.18025540
Ni       2.61650854       2.92891516       2.17946573        3       1.00000000       0.05343894      -0.07605841       0.28556175
Ni       5.20802209       2.94749194       2.14681184        2       1.00000000      -0.02035262      -0.00871008       0.16542611
Ni       7.82827689       2.90454308       2.17859243        3       1.00000000       0.03094576      -0.13569923       0.18901456
Ni      10.42387495       2.91315365       2.23977964        3       1.00000000      -0.00189136      -0.08680164       0.28300081
Pt       3.89040980       5.21915253       2.15722297        3       0.00000000      -0.01537814       0.04391703       0.12150276
Ni       6.51744246       5.21961274       2.15183685        3       1.00000000      -0.01801562       0.05087986       0.22935504
Pt       9.07958541       5.16924296       2.21629022        3       0.00000000       0.06729263      -0.05354916       0.14079456
Pt      11.72305601       5.13946688       2.14709192        2       0.00000000      -0.09292923      -0.08913064       0.09741695
Ni       5.18411358       7.48790824       2.11480795        2       1.00000000      -0.09484093       0.08141854       0.14779039
Ni       7.81010925       7.47486689       2.14767092        2       1.00000000       0.03159344       0.11977344       0.11485374
Pt      10.42176038       7.48198507       2.07154460        2       0.00000000       0.03405974      -0.03497570       0.07775740
Ni      13.04358916       7.45701421       2.13472785        2       1.00000000       0.02420839       0.00993238       0.09095930
Ni       0.03070518       1.55120636       4.19164745        4       1.00000000      -0.00064166       0.00423861      -0.32292325
Ni       2.61746399       1.54170299       4.22538507        4       1.00000000      -0.00788009       0.05181517      -0.27562414
Pt       5.18597642       1.53278153       4.24185352        4       0.00000000       0.00132620       0.05971355      -0.16593612
Ni       7.85688972       1.49834754       4.25737852        5       1.00000000       0.02772531       0.00685408      -0.30636156
Ni       1.33464709       3.67822888       4.22918852        4       1.00000000       0.00196270      -0.09414214      -0.28181893
Ni       3.84887275       3.69706855       4.26555772        5       1.00000000      -0.13386237      -0.03521570      -0.25997041
Pt       6.60333201       3.69554743       4.19452943        4       0.00000000       0.09702525      -0.06263147      -0.34482810
Ni       9.17443712       3.65050181       4.26602178        5       1.00000000       0.12701567      -0.17897314      -0.28642225
Ni       2.61397618       5.92903514       4.29978891        5       1.00000000       0.03460689      -0.02708310      -0.09244986
Pt       5.21071185       5.94564028       4.26896414        5       0.00000000      -0.11121951       0.08726991      -0.10449753
Ni       7.82592207       5.94847962       4.28271858        5       1.00000000      -0.04584693       0.05134402      -0.25712700
Pt      10.43998076       5.84700575       4.43644994        6       0.00000000      -0.02878197      -0.08608136       0.07503101
Pt       3.91014754       8.23662421       4.21218292        4       0.00000000       0.05650924       0.08599854      -0.02832378
Pt       6.52539078       8.27578741       4.20563344        4       0.00000000      -0.10306748       0.28214699      -0.11122085
Pt       9.07841632       8.17109727       4.31547898        5       0.00000000      -0.00268630      -0.01212416      -0.07516648
Pt      11.75018517       8.16571658       4.29583834        5       0.00000000      -0.06601111      -0.01535366      -0.08904287
Pt       0.04050276      -0.02197284       6.50440940        9       0.00000000      -0.07262634       0.22187079       0.14419895
Ni       2.64885112       0.00230925       6.45900283        9       1.00000000      -0.05746990       0.04728001      -0.14092766
Pt       5.16617280      -0.01780444       6.55153628       10       0.00000000       0.09036751       0.09338908       0.20481868
Pt       7.80095211      -0.06526784       6.56550156       10       0.00000000      -0.09702494       0.18558789       0.12974911
Pt       1.38653305       2.22862040       6.33053196        7       0.00000000      -0.03767456      -0.01013329       0.26187132
Ni       3.91820695       2.21127901       6.37422335        8       1.00000000      -0.08994334       0.00686354       0.04023159
Ni       6.52829020       2.20424119       6.39690603        8       1.00000000       0.04954186      -0.12277815       0.02992100
Pt       9.14143570       2.23311488       6.37756575        8       0.00000000       0.00527626      -0.19244747       0.35532045
Pt       2.57883888       4.53069448       6.43557432        8       0.00000000       0.07319629      -0.17444658      -0.08657589
Pt       5.20174732       4.38244126       6.39842802        8       0.00000000       0.00327043      -0.03595055       0.74726114
Pt       7.91099634       4.48100418       6.38215284        8       0.00000000      -0.02236252       0.07635678       0.62885640
Ni      10.45323147       4.46464450       6.50873036        9       1.00000000       0.00859026      -0.15185637      -0.03568157
Ni       3.90082870       6.68484586       6.46795565        9       1.00000000       0.01913838      -0.02348989      -0.18492111
Pt       6.59220040       6.71115256       6.43517329        8       0.00000000       0.13393513      -0.22590562       0.54708030
Ni       9.16916013       6.67631520       6.51236005        9       1.00000000      -0.02897529       0.00196323      -0.04093962
Ni      11.71503783       6.65761748       6.52462961        9       1.00000000      -0.05891490       0.13532000      -0.11072340
