64
Lattice="10.081612969246187 0.01908623815160835 -0.0032948340120007276 5.0573356517250705 8.74839051929604 -0.009370509361748054 -0.0026902207055229444 -0.007281401301972232 8.652487687557189" Properties=species:S:1:pos:R:3:tags:I:1:initial_magmoms:R:1:forces:R:3 unique_id=9f2a4edd52aa4f6a89630b6f120a0c0c stress="-0.006019644133437141 1.594426083676234e-05 1.0807007600643764e-05 1.594426083676234e-05 -0.005947906008647863 -7.1449865819452e-07 1.0807007600643764e-05 -7.1449865819452e-07 -0.005107573078933177" energy=-388.771986318289 pbc="T T T"
Ni       0.02765197      -0.04877162       0.09299135        4       1.00000000       0.01963383      -0.04915988      -0.00195415
Ni       2.47288834       0.00952186       0.15427372        4       1.00000000      -0.01578771       0.07765357      -0.04245969
Pt       5.06641420      -0.05666361       0.20829500        4       0.00000000      -0.03345610      -0.04687650      -0.08787957
Ni       7.58024370      -0.04040195       0.16535702        4       1.00000000       0.00618115      -0.09967359       0.04475262
Ni       1.25645930       2.20978236       0.12625153        4       1.00000000      -0.02179742       0.10619326       0.09623414
Pt       3.75099176       2.26053292       0.19584338        4       0.00000000      -0.01726375       0.04085256      -0.12833440
Ni       6.30886455       2.24317886       0.12762818        4       1.00000000      -0.01507062       0.06220801       0.11716194
Pt       8.83011179       2.25296043       0.16019043        4       0.00000000      -0.01024752       0.05703354      -0.13722893
Ni       2.50342862       4.42275371       0.10926953        4       1.00000000      -0.00253135       0.04430289       0.04897041
Ni       5.06712753       4.42929368       0.10869844        4       1.00000000      -0.03690736       0.06962057       0.02316389
Ni       7.53973729       4.42337519       0.11761062        4       1.00000000      -0.01504547       0.05222858       0.11263564
Ni      10.12381260       4.42671345       0.11394679        4       1.00000000       0.05248908       0.02228280       0.04426515
Ni       3.79333299       6.54153912       0.10216010        4       1.00000000      -0.01638977      -0.02374595       0.01940524
Ni       6.27982403       6.54453059       0.07348643        4       1.00000000      -0.04064085      -0.00322219      -0.06142107
Ni       8.84592767       6.50115184       0.19336335        4       1.00000000       0.08976779      -0.09085521       0.16700815
Ni      11.38354709       6.52023201       0.11594793        4       1.00000000       0.03087336      -0.03156929       0.06080194
Ni       1.28093030       0.77169766       2.14726043        3       1.00000000      -0.02678859       0.07585124      -0.00720664
Ni       3.74099329       0.74371114       2.19746536        3       1.00000000      -0.06637652       0.01673837       0.00123402
Ni       6.31558333       0.73440388       2.18462966        3       1.00000000       0.03383768      -0.01352561       0.02922838
Pt       8.80929857       0.66693957       2.19935933        3       0.00000000       0.06032431      -0.08938193       0.07953660
Ni       2.49065298       2.96437768       2.24068222        3       1.00000000      -0.00647067       0.07620206       0.05478910
Ni       5.05076263       2.97787379       2.16376270        3       1.00000000      -0.01962439       0.09299652       0.02827519
Ni       7.54581789       2.96542712       2.19494926        3       1.00000000       0.01485314       0.00577247       0.10287782
Ni      10.13309386       2.99467347       2.19187023        3       1.00000000       0.04806202       0.04333358       0.04941448
Ni       3.77210294       5.10537484       2.17160762        3       1.00000000      -0.03838705      -0.02252144      -0.01292650
Ni       6.27338644       5.09739137       2.12266041        3       1.00000000      -0.02278636       0.03485463       0.04447118
Ni       8.87148509       5.07044992       2.15686915        3       1.00000000       0.02387777      -0.03687126       0.08573220
Ni      11.36317245       5.11585866       2.18268696        3       1.00000000       0.02388742      -0.02190032       0.07226818
Ni       5.02423482       7.22371130       2.16630599        3       1.00000000      -0.05292677      -0.11409011       0.00855690
Pt       7.55543774       7.30904238       2.13348566        3       0.00000000      -0.06305681      -0.00690922       0.04148818
Ni      10.14255604       7.23797536       2.23820069        3       1.00000000       0.00704344      -0.08235153       0.10758938
Ni      12.59725156       7.22794337       2.17558273        3       1.00000000       0.01521620      -0.10618426       0.02393947
Pt       0.07092683       1.46080426       4.27504088        2       0.00000000       0.05914934      -0.00607101      -0.03932857
Ni       2.52338159       1.47975329       4.23131343        2       1.00000000       0.01906639       0.01343357      -0.10382567
Pt       5.02974142       1.42808873       4.17678898        2       0.00000000       0.03173801      -0.00369596      -0.12182410
Ni       7.55977188       1.43661895       4.27321405        2       1.00000000       0.00390455      -0.06140008      -0.04144030
Ni       1.29502217       3.69310775       4.29029678        2       1.00000000       0.05411603       0.04588569      -0.04538502
Ni       3.72604512       3.72962639       4.23382437        2       1.00000000      -0.00112972       0.07274715      -0.12139815
Pt       6.28565142       3.65767382       4.28811750        2       0.00000000      -0.01159306      -0.00945020      -0.00831728
Ni       8.88568415       3.69638304       4.23559111        2       1.00000000       0.06798655       0.04618101      -0.11933362
Ni       2.53284985       5.82255945       4.27849308        2       1.00000000       0.00768090       0.00886159      -0.11694882
Ni       4.98274916       5.85477145       4.28262919        2       1.00000000      -0.00236007      -0.04404976      -0.14273583
Pt       7.57942824       5.85111249       4.27636805        2       0.00000000       0.04002035      -0.00014315       0.03712342
Ni      10.16329296       5.82264401       4.25798618        2       1.00000000       0.03308597      -0.00569959      -0.01448124
Ni       3.79851477       7.93518525       4.27586393        2       1.00000000      -0.01102837      -0.07225938      -0.04876635
Ni       6.26572940       7.99490371       4.26602351        2       1.00000000      -0.07080785      -0.02892557      -0.11465913
Ni       8.83960411       8.01036645       4.24430428        2       1.00000000       0.00155318      -0.04741230      -0.03364150
Ni      11.39598793       7.94760440       4.21750137        2       1.00000000       0.06330210      -0.03076564      -0.05692775
Ni      -0.00915864      -0.05794926       6.39357961        1       1.00000000      -0.04252849      -0.06505224      -0.07849356
Pt       2.41581315      -0.00273528       6.39411407        1       0.00000000       0.00808588       0.01033471      -0.03702048
Pt       5.06451808      -0.01703183       6.33682596        1       0.00000000      -0.04497757      -0.06221661       0.09797045
Pt       7.62518885      -0.06731477       6.39950695        1       0.00000000       0.04064328      -0.03104300       0.07570630
Ni       1.25457311       2.24509538       6.40453403        1       1.00000000       0.02910583       0.08239376       0.02351655
Pt       3.75292314       2.32175563       6.32697463        1       0.00000000      -0.03074861       0.05359018       0.02631032
Ni       6.30372552       2.22754044       6.41436452        1       1.00000000      -0.03242399      -0.03546485       0.03059035
Pt       8.82373094       2.28261574       6.32760590        1       0.00000000      -0.07491038       0.08261356       0.11561391
Ni       2.50606054       4.44203057       6.36798314        1       1.00000000       0.04902583       0.07941901      -0.07762910
Ni       5.04270162       4.44500280       6.40660479        1       1.00000000      -0.05622706       0.06005911      -0.01719104
Ni       7.50618063       4.38646194       6.42951970        1       1.00000000      -0.14745081       0.00264225       0.07186120
Ni      10.16744839       4.38192303       6.37449096        1       1.00000000       0.12068765      -0.00079002      -0.08400101
Ni       3.81387912       6.49451121       6.37303416        1       1.00000000      -0.00940656      -0.05752162      -0.07904702
Ni       6.23372341       6.53430744       6.39463504        1       1.00000000      -0.06480291       0.01633193      -0.10254440
Pt       8.85933756       6.45415624       6.47129392        1       0.00000000       0.03773201      -0.05391135       0.22789656
Ni      11.40739446       6.50009759       6.36713795        1       1.00000000       0.02901946       0.00209250      -0.08603832
