64
Lattice="10.392241681752855 0.006239844759107206 0.018923843129539906 5.201524704953485 8.926246540862074 0.0003699735420524495 0.015451253213281968 -0.00857197080141235 8.875902576063451" Properties=species:S:1:pos:R:3:tags:I:1:initial_magmoms:R:1:forces:R:3 unique_id=1579b552e02f4e13b0aa6f8433c3698d stress="0.00039956171652343747 -2.0977171073691663e-06 2.834618106612301e-06 -2.0977171073691663e-06 0.0004060322759154647 1.8151025772946754e-05 2.834618106612301e-06 1.8151025772946754e-05 0.00036514994845172205" energy=-401.46871820596687 pbc="T T T"
Ni       0.00973808       0.00337035       0.17848841        4       1.00000000       0.04798165       0.04755173       0.33820855
Ni       2.59735198       0.00976918       0.20196500        4       1.00000000       0.02177039       0.03142487       0.43884928
Ni       5.19527379      -0.01878243       0.16146182        4       1.00000000      -0.03707368       0.06906017       0.23144564
Ni       7.79368383      -0.05185031       0.19237597        4       1.00000000       0.00651646      -0.13086800       0.39945918
Ni       1.30720307       2.23223717       0.10724824        4       1.00000000       0.04213518      -0.00053137       0.26076994
Pt       3.81482509       2.18906258       0.18978933        4       0.00000000      -0.04305343       0.00968955       0.08409239
Pt       6.49960739       2.14915787       0.12226146        4       0.00000000       0.07287218      -0.12038476      -0.04237096
Pt       9.18974805       2.23375964       0.13433442        4       0.00000000       0.14276870      -0.00788715       0.05531701
Ni       2.56411947       4.48112322       0.12739590        4       1.00000000      -0.01573669      -0.01488412       0.12723911
Pt       5.16357106       4.48622492       0.15000136        4       0.00000000      -0.03461344       0.00876772       0.26616876
Pt       7.84959542       4.50547395       0.04703301        4       0.00000000       0.12360573       0.07913415      -0.18202555
Ni      10.44499376       4.49259105       0.07737842        4       1.00000000       0.13693883       0.06887723       0.10410628
Ni       3.85700706       6.73645510       0.09573378        4       1.00000000      -0.08068508       0.09152718       0.21693945
Pt       6.50540881       6.79651904       0.20148511        4       0.00000000       0.00165021       0.03564503       0.15069982
Ni       9.13115625       6.72973285       0.07950236        4       1.00000000       0.04504809       0.07196799       0.07480509
Ni      11.71110318       6.70590648       0.08062097        4       1.00000000       0.11443075      -0.01544018       0.06243864
Ni       1.33140886       0.77495914       2.20918993        3       1.00000000       0.05307644       0.19673277      -0.05397069
Ni       3.87351806       0.76918965       2.26212762        3       1.00000000      -0.07356769       0.13947959       0.15507891
Ni       6.49390575       0.77267538       2.26231543        3       1.00000000      -0.02105472       0.11105299       0.14809421
Pt       9.10362719       0.74902328       2.27070560        3       0.00000000       0.02323759       0.22412207      -0.02680505
Ni       2.58103286       2.92441122       2.28414101        3       1.00000000      -0.05726547      -0.11123891       0.20051540
Ni       5.19863198       2.93145894       2.29105050        3       1.00000000      -0.14093365      -0.11997613       0.03657543
Ni       7.78301149       2.95710022       2.27340573        3       1.00000000       0.06609826      -0.09085748      -0.13820489
Ni      10.43936050       2.94977221       2.28672475        3       1.00000000       0.09661929      -0.10605019       0.14783111
Pt       3.88388292       5.20642179       2.26900099        3       0.00000000      -0.05225797      -0.12843078      -0.11394723
Ni       6.51266810       5.20542614       2.26047313        3       1.00000000       0.01608533       0.00470838      -0.06716951
Pt       9.05632706       5.17760600       2.28929596        3       0.00000000      -0.15153519      -0.10260210      -0.06322282
Pt      11.69936832       5.15580710       2.22266079        3       0.00000000      -0.08426406      -0.09035218       0.08964108
Ni       5.20268851       7.45324773       2.22037244        3       1.00000000      -0.08979584       0.01039249      -0.01263902
Ni       7.79595962       7.47467326       2.23611337        3       1.00000000       0.06342661       0.05334533       0.01102821
Pt      10.40034865       7.49428704       2.14950499        3       0.00000000       0.01125710      -0.05639571      -0.05160658
Ni      13.00568031       7.44611566       2.20964343        3       1.00000000      -0.02167928      -0.04372218      -0.02271025
Ni       0.03953910       1.55492678       4.38384690        2       1.00000000       0.10128060       0.16162727      -0.15569612
Ni       2.58544402       1.54908837       4.36268648        2       1.00000000      -0.04171345       0.12408378      -0.21115490
Ni       5.19927420       1.51556911       4.37198845        2       1.00000000      -0.07415187       0.03188583      -0.21806183
Ni       7.80813205       1.51071934       4.40040840        2       1.00000000       0.06970627      -0.06462401      -0.13280349
Ni       1.31408999       3.65510905       4.40469938        2       1.00000000       0.00846485      -0.14323108      -0.15284580
Ni       3.86312178       3.68297566       4.36955629        2       1.00000000      -0.10077230      -0.10491430      -0.17960573
Pt       6.56045401       3.65017335       4.34694971        2       0.00000000      -0.03598977      -0.00652310      -0.08718575
Ni       9.11754655       3.69831267       4.39777488        2       1.00000000       0.08684554      -0.16020122      -0.28439573
Ni       2.59890130       5.91696506       4.42627638        2       1.00000000      -0.04063416      -0.05199068      -0.03807832
Pt       5.20245113       5.92227910       4.36004465        2       0.00000000       0.17802672      -0.03927837       0.11319541
Ni       7.81973981       5.91726426       4.41905014        2       1.00000000       0.00237210       0.01354759      -0.09685210
Pt      10.41067595       5.86135482       4.52070301        2       0.00000000       0.06597170      -0.02879291       0.06468812
Pt       3.90036915       8.18938184       4.38115066        2       0.00000000      -0.04322652      -0.01652862       0.14767657
Pt       6.51617120       8.25264600       4.28816906        2       0.00000000       0.01237095       0.17328514       0.00280129
Pt       9.09057934       8.21960997       4.36651092        2       0.00000000      -0.07451264       0.09137114       0.06074984
Pt      11.71382395       8.20954781       4.36128592        2       0.00000000       0.05092445       0.05913809      -0.00473735
Pt       0.00928237       0.01245612       6.63558520        1       0.00000000       0.01954838       0.03174303       0.16405389
Pt       2.60395339       0.00256147       6.65035826        1       0.00000000      -0.02000562       0.01371800       0.20294551
Pt       5.21705945      -0.05182760       6.64866365        1       0.00000000      -0.02269121      -0.07680595       0.07428008
Pt       7.79321019      -0.03065102       6.66696373        1       0.00000000      -0.05349435      -0.02113012       0.22328164
Ni       1.28945134       2.25711880       6.55441939        1       1.00000000      -0.07331822       0.06770709      -0.25212048
Pt       3.89098967       2.23394639       6.47868679        1       0.00000000      -0.07936851      -0.02877661      -0.18960969
Ni       6.52721170       2.22665404       6.51607080        1       1.00000000       0.02460015      -0.07275062      -0.27834119
Pt       9.11187581       2.32227133       6.47594700        1       0.00000000      -0.04136926       0.03884735      -0.28031985
Pt       2.51423673       4.49702921       6.56276228        1       0.00000000      -0.11540642       0.01156570      -0.00160577
Pt       5.22282457       4.42912774       6.53707005        1       0.00000000       0.02044516      -0.00260059      -0.32315982
Ni       7.84429184       4.46351321       6.49332465        1       1.00000000       0.07500771       0.04211754      -0.47260821
Ni      10.38865213       4.47006134       6.60418364        1       1.00000000      -0.10204280      -0.00853949      -0.04687742
Ni       3.88272144       6.67482123       6.59184471        1       1.00000000      -0.02594661      -0.04359334      -0.13364935
Pt       6.56644851       6.64481487       6.54656194        1       0.00000000       0.05739622      -0.01823112      -0.14213164
Ni       9.13414145       6.63186544       6.60380975        1       1.00000000       0.03007067      -0.13079972      -0.09790859
Ni      11.69485159       6.66632100       6.61503900        1       1.00000000      -0.04039035       0.04481625      -0.09855423
