64
Lattice="10.177930789034571 0.009836271925918813 -0.033550487386113374 5.097483855883659 8.793213635811297 -0.0759762834764402 -0.027393858239220217 -0.05581527557883349 8.714759513224903" Properties=species:S:1:pos:R:3:tags:I:1:initial_magmoms:R:1:forces:R:3 unique_id=8c4ce08709194877bdff4c5a0d29bf1c stress="9.40725788687799e-05 -3.0351767644955077e-06 1.4685703056081357e-05 -3.0351767644955077e-06 0.0001097038494464811 8.33822834918803e-06 1.4685703056081357e-05 8.33822834918803e-06 0.00011237727733499209" energy=-392.24644579481935 pbc="T T T"
Ni       0.03863732      -0.04997469       0.18017541        4       1.00000000       0.08550025      -0.08298582       0.24741575
Ni       2.50974614      -0.04198723       0.10824526        4       1.00000000      -0.07726527      -0.08322325       0.15926174
Ni       5.07838044      -0.03947144       0.15998708        4       1.00000000      -0.08058747      -0.06438082       0.27665204
Ni       7.62287382      -0.06412371       0.15557496        4       1.00000000      -0.05312083      -0.11367827       0.32095016
Ni       1.27150420       2.20147601       0.09124868        4       1.00000000       0.00356369      -0.00431310       0.22231213
Pt       3.72551222       2.16514897       0.15993108        4       0.00000000      -0.13074727      -0.03567190       0.24277612
Pt       6.36865062       2.16276020       0.06527044        4       0.00000000       0.00623285      -0.04797992      -0.03889166
Pt       8.98397890       2.24929868       0.07771755        4       0.00000000       0.05039176       0.05879391       0.18786227
Ni       2.49413008       4.43124388       0.06671429        4       1.00000000      -0.07264454       0.04333296       0.15763819
Pt       5.07500909       4.49433486       0.04676377        4       0.00000000      -0.10212642       0.11574759      -0.08102528
Ni       7.64606577       4.44842845       0.02137404        4       1.00000000      -0.04886866       0.09707481       0.10302358
Ni      10.22763417       4.43727987       0.01647745        4       1.00000000       0.12946233       0.13687943       0.08343764
Ni       3.79062448       6.62415279       0.05294486        4       1.00000000      -0.08011750       0.07277435       0.16807935
Ni       6.38143760       6.63740649       0.04406807        4       1.00000000       0.00169491       0.03490511       0.12907953
Ni       8.88929422       6.59796840       0.07943946        4       1.00000000      -0.08218541       0.01705176       0.21109804
Ni      11.48070314       6.57801729      -0.00264163        4       1.00000000       0.04747759      -0.07989129       0.01347210
Ni       1.30330769       0.72716092       2.18772999        3       1.00000000       0.05117731       0.03752449       0.06521270
Ni       3.75485379       0.71442692       2.17878391        3       1.00000000      -0.19173451      -0.04876277      -0.04535910
Ni       6.36381158       0.72747553       2.17312860        3       1.00000000       0.08908067      -0.02509719       0.04212424
Pt       8.92174266       0.72325665       2.17539531        3       0.00000000       0.12076197       0.15879213      -0.09400325
Ni       2.50212341       2.94097663       2.22417731        3       1.00000000       0.00702443       0.02632726       0.11158649
Ni       5.06439023       2.95131137       2.18217571        3       1.00000000      -0.13199562       0.16433322      -0.07089681
Ni       7.61378418       2.92577515       2.18002600        3       1.00000000       0.05218099      -0.07093642      -0.08233770
Ni      10.25253891       2.93363609       2.19344047        3       1.00000000       0.15242201      -0.01617154       0.10318903
Ni       3.77036649       5.11724703       2.15780288        3       1.00000000      -0.11629526      -0.04269043       0.02743106
Ni       6.35452460       5.14725036       2.12873738        3       1.00000000       0.02754746       0.05537095      -0.06020545
Pt       8.89527300       5.07871375       2.14184467        3       0.00000000       0.04164522      -0.06427064       0.00509690
Ni      11.49440887       5.09145860       2.12675313        3       1.00000000       0.05184444      -0.08309523       0.11742597
Ni       5.11840613       7.28321679       2.08572008        3       1.00000000       0.00835287      -0.08083676      -0.01169304
Ni       7.57379672       7.33654303       2.08464751        3       1.00000000      -0.09098325      -0.02314586       0.00861084
Pt      10.23916942       7.31954501       2.08527574        3       0.00000000       0.12114992      -0.10327377       0.08639828
Ni      12.73932581       7.26715584       2.07504150        3       1.00000000       0.09450824      -0.17040290       0.05890649
Ni       0.04948760       1.47812139       4.29175294        2       1.00000000       0.08940823       0.05543842      -0.07269194
Ni       2.45906792       1.46963746       4.27075612        2       1.00000000      -0.03566392       0.08508114      -0.12768591
Pt       5.08038874       1.44311634       4.20262379        2       0.00000000      -0.12667402       0.02653463       0.04630198
Ni       7.63375307       1.45058102       4.26805628        2       1.00000000       0.04209407      -0.04295365      -0.06702713
Ni       1.26710479       3.63977381       4.30584006        2       1.00000000       0.03255063       0.03035954      -0.06190054
Ni       3.73187926       3.66965277       4.25050543        2       1.00000000      -0.11661645       0.01758246      -0.17930427
Pt       6.42705773       3.65037831       4.26853506        2       0.00000000       0.05657356      -0.06359159      -0.09597174
Ni       8.95909197       3.67303572       4.24677211        2       1.00000000       0.20874653      -0.01169009      -0.08104828
Ni       2.48748218       5.78946473       4.28841848        2       1.00000000      -0.06664541      -0.06310680      -0.13602428
Pt       5.07548614       5.83289178       4.25971339        2       0.00000000       0.00461743      -0.05514746      -0.12192494
Ni       7.62985799       5.82603792       4.26046627        2       1.00000000       0.00703329       0.02594458      -0.09048321
Ni      10.21670303       5.79229741       4.27937929        2       1.00000000       0.08497321      -0.04717794      -0.01913744
Pt       3.78658900       8.02132235       4.22452930        2       0.00000000      -0.08012823       0.01831329       0.16071283
Ni       6.35911029       8.05612679       4.21858144        2       1.00000000      -0.13627240       0.05908790      -0.19734160
Pt       8.82228590       8.00829203       4.20075505        2       0.00000000      -0.07427671      -0.07070580       0.08994382
Ni      11.44394582       7.98624875       4.22286487        2       1.00000000      -0.02060281      -0.09666727       0.05383303
Pt       0.08089747      -0.06476890       6.49612447        1       0.00000000       0.14985057      -0.00690013       0.13248950
Ni       2.52047744      -0.03777927       6.45307795        1       1.00000000       0.04189538       0.02730357      -0.11453792
Pt       5.04946569      -0.04592909       6.50063212        1       0.00000000       0.02661867       0.03208246       0.08594819
Pt       7.61639511      -0.07437872       6.47810375        1       0.00000000      -0.01504891      -0.03363271       0.17665372
Ni       1.25872531       2.20334331       6.40945723        1       1.00000000      -0.00302657       0.15687385      -0.19058900
Pt       3.73358809       2.24556962       6.36223390        1       0.00000000      -0.03564074       0.18753467      -0.26592101
Ni       6.34382314       2.20395467       6.35747272        1       1.00000000      -0.03323955       0.02454096      -0.24499573
Pt       8.91141743       2.25781818       6.29613719        1       0.00000000       0.02283425       0.11468674      -0.40061973
Ni       2.49656138       4.40380833       6.39188777        1       1.00000000      -0.03878634       0.13489879      -0.17758124
Ni       5.07567532       4.39183702       6.34583255        1       1.00000000      -0.03040598       0.04431299      -0.23478267
Ni       7.58764632       4.37199579       6.40414138        1       1.00000000      -0.10793110      -0.03507785      -0.09783743
Ni      10.22413785       4.37398452       6.36643398        1       1.00000000       0.21206468       0.00055938      -0.19990024
Ni       3.79363930       6.49249021       6.41769961        1       1.00000000      -0.00083399      -0.11267619      -0.04277907
Ni       6.34821676       6.52169973       6.40158522        1       1.00000000       0.00016457      -0.07545203      -0.09611359
Pt       8.86528003       6.46457252       6.41980256        1       0.00000000       0.04361914      -0.09356836       0.09608078
Ni      11.46119054       6.49418074       6.35753742        1       1.00000000       0.01540203      -0.01088755      -0.19039329
