64
Lattice="10.439625335490012 0.03390981628745313 0.05262954270767262 5.2491794300875965 9.101982389189926 0.0247310247685407 0.04297184167660474 -0.0014931706001914474 9.028922888027301" Properties=species:S:1:pos:R:3:tags:I:1:initial_magmoms:R:1:forces:R:3 unique_id=c2c2c9b2f0df47fbb8f29a1bf3e671d3 stress="0.000547085177811768 7.77360428955612e-06 -1.561966549413735e-05 7.77360428955612e-06 0.000548165398633664 4.968348759403579e-06 -1.561966549413735e-05 4.968348759403579e-06 0.0004783760492118039" energy=-407.14795152196234 pbc="T T T"
Pt      -0.06319445       0.04789985       0.02037968        4       0.00000000      -0.12048808       0.09661601      -0.13100537
Ni       2.64301366      -0.01153519       0.06705233        4       1.00000000       0.11293098      -0.05526796       0.17356083
Ni       5.25928962      -0.01319258       0.17354897        4       1.00000000       0.18238311      -0.07167367       0.30087024
Ni       7.78992469       0.06055150       0.13793218        4       1.00000000      -0.17573792       0.15084942       0.25453508
Pt       1.26657672       2.29232842      -0.00448009        4       0.00000000      -0.06349484       0.04059627      -0.19212359
Pt       3.99066307       2.21968599       0.12959157        4       0.00000000       0.10398689      -0.11200461       0.29837922
Ni       6.58309064       2.25051048       0.17927173        4       1.00000000       0.11936952      -0.17475593       0.17802893
Ni       9.10180905       2.31500520       0.11745065        4       1.00000000      -0.17033518       0.07530485       0.17968564
Pt       2.53863109       4.59372023       0.14085037        4       0.00000000      -0.06708368       0.03402751       0.19029044
Pt       5.33220343       4.50560186       0.17996030        4       0.00000000       0.17298499      -0.09343065       0.18199351
Ni       7.90303330       4.54819630       0.18493356        4       1.00000000       0.20840751      -0.04313674       0.20803427
Ni      10.40524236       4.61055848       0.12589734        4       1.00000000      -0.19225207       0.15113722       0.14134733
Pt       3.84949494       6.88462852       0.14881948        4       0.00000000      -0.09205841       0.04413437       0.14865569
Pt       6.64188515       6.81464078       0.14847665        4       0.00000000       0.11590538      -0.00122163       0.25850397
Ni       9.20338988       6.82479401       0.11097036        4       1.00000000       0.16198376      -0.07453859       0.11227939
Ni      11.73224103       6.87224730       0.19729165        4       1.00000000      -0.04573996       0.04346274       0.10599277
Pt       1.30158375       0.76606393       2.26988604        3       0.00000000      -0.04350403       0.06507668      -0.17678271
Pt       4.04452324       0.75489270       2.31598467        3       0.00000000       0.15869572       0.00502982       0.08519228
Ni       6.58256442       0.78710093       2.28316977        3       1.00000000       0.14306176       0.00555251      -0.01534942
Ni       9.08003576       0.79621603       2.29816527        3       1.00000000      -0.14050986       0.08894865      -0.03971660
Pt       2.64796606       3.06227858       2.33787923        3       0.00000000       0.02215475       0.00605372      -0.12580049
Ni       5.28234513       3.03049391       2.35203022        3       1.00000000      -0.00217583      -0.05526127       0.20877895
Pt       7.78282257       3.04426334       2.31783300        3       0.00000000      -0.02791808      -0.03535646       0.06384899
Pt      10.38348285       3.13597053       2.29493637        3       0.00000000      -0.06109380      -0.02618391      -0.16164929
Pt       3.95488629       5.29121541       2.33334266        3       0.00000000       0.05711538      -0.04465781      -0.13665028
Ni       6.59909926       5.27898939       2.32512350        3       1.00000000       0.15585857      -0.08170286       0.06279896
Ni       9.15952163       5.32018795       2.31494819        3       1.00000000      -0.02265763      -0.04385808       0.07071811
Ni      11.73308059       5.35782935       2.32543305        3       1.00000000      -0.04480454      -0.07287330       0.03140263
Pt       5.21355879       7.60051539       2.31179999        3       0.00000000       0.01428197       0.02530976      -0.20569052
Pt       7.92638200       7.50391740       2.32585822        3       0.00000000      -0.02872743      -0.09057252       0.02219808
Pt      10.55022741       7.53580450       2.25541848        3       0.00000000       0.04203528      -0.11447709       0.11458433
Ni      13.05822850       7.65855460       2.32414776        3       1.00000000       0.03245109       0.14695131      -0.01089512
Pt      -0.07759417       1.58252625       4.56634837        2       0.00000000      -0.23444778       0.12992011      -0.16959769
Pt       2.65746357       1.53971663       4.51788919        2       0.00000000       0.05274560       0.05438317       0.08965799
Ni       5.29085877       1.58139229       4.49280273        2       1.00000000       0.10790447       0.18584746      -0.08605617
Ni       7.82805800       1.58415300       4.51413615        2       1.00000000      -0.12615416       0.16615998      -0.16633554
Pt       1.23733969       3.83473821       4.50279783        2       0.00000000      -0.09597730       0.18366785      -0.02669546
Ni       3.99260054       3.76686743       4.49341407        2       1.00000000       0.09384438      -0.05589157      -0.02507160
Ni       6.58934109       3.76425841       4.48861764        2       1.00000000       0.07748828      -0.10669342      -0.07372595
Ni       9.12329667       3.84930996       4.53440560        2       1.00000000      -0.22595500       0.10145834      -0.16611092
Pt       2.59635276       6.06915101       4.43792153        2       0.00000000      -0.10458910       0.08144958      -0.00223521
Pt       5.34428423       5.98809858       4.46165941        2       0.00000000       0.15092353      -0.07638860       0.11771150
Ni       7.92254908       6.01417391       4.51550171        2       1.00000000       0.11887057      -0.23449392      -0.12880368
Ni      10.42500123       6.06252570       4.55026408        2       1.00000000      -0.18180065      -0.05292808      -0.05338738
Pt       3.92080065       8.41153233       4.48957084        2       0.00000000      -0.09102722       0.05036044      -0.07477670
Pt       6.57869264       8.35899301       4.54942247        2       0.00000000      -0.07817690      -0.03845162       0.04614372
Pt       9.19918248       8.28031410       4.58680897        2       0.00000000      -0.01792108      -0.08610194       0.17511439
Pt      11.78325903       8.44835501       4.50101219        2       0.00000000      -0.10081917       0.21000944       0.04381765
Ni       0.02591497       0.05384239       6.64023981        1       1.00000000      -0.01478872       0.10868570      -0.23791484
Ni       2.61718768       0.01453461       6.73063334        1       1.00000000      -0.11671879       0.08966389      -0.10297923
Pt       5.21851861      -0.00401316       6.79450932        1       0.00000000      -0.02518568      -0.06219949       0.19738999
Ni       7.88396511       0.05391475       6.75537748        1       1.00000000       0.06421211       0.01380726      -0.09304650
Ni       1.28948584       2.25164971       6.63127043        1       1.00000000      -0.12246727      -0.04614066      -0.29104512
Pt       3.92573758       2.24832051       6.65982476        1       0.00000000      -0.05265873      -0.02919089      -0.25351200
Pt       6.65281518       2.24352665       6.70609964        1       0.00000000       0.13892344      -0.06324163       0.04384957
Ni       9.19659675       2.28772289       6.76727912        1       1.00000000       0.07699433      -0.02232972       0.02119753
Pt       2.59230008       4.51329275       6.66640251        1       0.00000000      -0.03204082      -0.04733116      -0.25949658
Pt       5.29289927       4.53160565       6.65933080        1       0.00000000       0.10897441      -0.00407321      -0.12227453
Pt       7.99077951       4.56336217       6.70972828        1       0.00000000       0.09018457      -0.06867276       0.06310217
Ni      10.46338155       4.55771240       6.75449096        1       1.00000000       0.01684852      -0.10688601      -0.10611520
Pt       3.95937305       6.90374052       6.68306873        1       0.00000000       0.02502771       0.03709877      -0.24527247
Pt       6.66042729       6.88102904       6.69407042        1       0.00000000       0.07034195       0.04049359      -0.24490740
Ni       9.18550891       6.82924691       6.75515280        1       1.00000000       0.00848653      -0.07057730      -0.08213693
Pt      11.71537619       6.82797765       6.79577265        1       0.00000000      -0.08606736      -0.06949137       0.01749635
