64
Lattice="10.324895044536566 -0.012372204957729428 0.005502903918473877 5.151732878474063 8.883483851703897 -0.019153726743432235 0.0 0.0 21.57532457216384" Properties=species:S:1:pos:R:3:tags:I:1:initial_magmoms:R:1:forces:R:3 unique_id=d6173c91702c4f35bd67a2ee1ec33ba9 stress="0.005282507540042814 -5.4155812272612425e-05 0.0002124691486976826 -5.4155812272612425e-05 0.00542207548396415 -2.1077162488677375e-05 0.0002124691486976826 -2.1077162488677375e-05 -0.002048423352869925" energy=-375.73970533105916 pbc="T T T"
Ni      -0.00297166       0.01696833       0.13687139        1       1.00000000       0.10627141      -0.00956695      -0.21075433
Ni       2.58019475       0.00098175       0.16721752        2       1.00000000      -0.03827817       0.01807980      -0.10039042
Ni       5.16001132      -0.01992268       0.12116717        1       1.00000000       0.01282052       0.18323662      -0.36303391
Ni       7.75602762      -0.05622600       0.04495185        0       1.00000000      -0.06359281      -0.06870751       0.27817682
Ni       1.25674014       2.22376056       0.13824324        1       1.00000000      -0.09221398       0.02542885       0.08974997
Pt       3.80670429       2.22052705       0.06431963        1       0.00000000      -0.00300938      -0.02148132      -0.02295317
Pt       6.47781503       2.15914803       0.14502110        1       0.00000000       0.04580081      -0.06676225      -0.50077060
Ni       9.07134272       2.20948406       0.10160593        1       1.00000000       0.07363727       0.10319474      -0.06101916
Ni       2.55758409       4.45745235       0.00115857        0       1.00000000      -0.07475046      -0.04227286       0.14864578
Ni       5.15049383       4.44248760       0.10431033        1       1.00000000       0.17571107      -0.08659058      -0.33356214
Pt       7.81625427       4.44535151       0.05386860        1       0.00000000       0.01542085      -0.01645162      -0.02013962
Ni      10.34444709       4.42568728       0.02239258        0       1.00000000       0.03842259      -0.10038590       0.22101077
Ni       3.82623420       6.68241713       0.02414970        0       1.00000000      -0.01623898       0.10732860       0.28157870
Pt       6.42203413       6.70704483       0.13766747        1       0.00000000      -0.00739368       0.01901113      -0.62105176
Ni       9.04878661       6.66733340       0.01931119        0       1.00000000      -0.08546757      -0.00435119       0.13096213
Ni      11.62720603       6.65623436       0.00000000        0       1.00000000       0.08714507       0.00475276       0.22201588
Ni       1.30110111       0.75558679       2.12110733        3       1.00000000      -0.00284531       0.09015087       0.03298237
Ni       3.86245205       0.75455795       2.15864587        4       1.00000000       0.02589722       0.06667455       0.19191632
Ni       6.45018336       0.73855091       2.20156981        4       1.00000000       0.00582563       0.08825548       0.22950226
Pt       9.03384852       0.76225906       2.14044656        3       0.00000000      -0.07810012       0.07524448       0.07401780
Ni       2.55976531       2.93264818       2.15927850        4       1.00000000      -0.05111558      -0.01234942       0.08145703
Ni       5.15287853       2.92548354       2.19343108        4       1.00000000      -0.09907250      -0.12040216       0.21446541
Ni       7.77093499       2.96501393       2.19283422        4       1.00000000       0.16801218       0.07241829       0.15929488
Ni      10.31864956       2.93692315       2.16912788        4       1.00000000      -0.01453522      -0.01470684       0.16233507
Pt       3.87764651       5.15782264       2.10369973        3       0.00000000      -0.00249583      -0.04730542      -0.05614757
Ni       6.48453133       5.16225435       2.16729014        4       1.00000000       0.11541496      -0.04977778       0.15501597
Ni       9.00479426       5.14703070       2.18660768        4       1.00000000      -0.07468840      -0.10981962       0.24122084
Pt      11.58909125       5.10285248       2.12193243        3       0.00000000      -0.05462938      -0.08036495       0.00828299
Ni       5.14243050       7.41578821       2.13744060        3       1.00000000      -0.11651507       0.02615972       0.05345857
Ni       7.73714520       7.39522367       2.14759709        3       1.00000000       0.04065102      -0.04162449       0.10396092
Pt      10.29830963       7.40530547       2.05825901        3       0.00000000      -0.00655140      -0.11899061      -0.08924575
Ni      12.90465376       7.39529698       2.11123016        3       1.00000000       0.00037403       0.03283578      -0.06459298
Ni      -0.01269871       1.53768837       4.29644850        6       1.00000000       0.03878431       0.17555535      -0.22051532
Pt       2.59597985       1.57306882       4.23878495        5       0.00000000      -0.02810681       0.02455997      -0.06389538
Ni       5.15880120       1.49222367       4.28659824        6       1.00000000      -0.02306290       0.06565638      -0.33109232
Ni       7.76636170       1.48168315       4.29457041        6       1.00000000       0.08149980       0.02402939      -0.26923946
Ni       1.28848782       3.70103397       4.31571641        6       1.00000000      -0.01342047      -0.06604111      -0.17774601
Ni       3.84273687       3.69236400       4.32001516        6       1.00000000       0.00894669       0.03730798      -0.18594231
Pt       6.50287311       3.65725358       4.22072224        5       0.00000000       0.01239231      -0.04019043      -0.08599931
Ni       9.04655143       3.65939891       4.29646729        6       1.00000000       0.07195342      -0.15510480      -0.31338209
Ni       2.56000493       5.86354091       4.36266596        7       1.00000000      -0.01687121      -0.15411624      -0.04801050
Pt       5.12406297       5.87343699       4.27065658        6       0.00000000       0.00754357      -0.02908676      -0.07873703
Ni       7.76621188       5.86282150       4.29230495        6       1.00000000       0.01045828      -0.05397723      -0.32265139
Pt      10.31281153       5.80663628       4.38739587        7       0.00000000       0.00609751       0.00098071      -0.03877505
Pt       3.83491733       8.14800816       4.29692478        6       0.00000000      -0.01948208       0.06926585       0.04299043
Pt       6.43832047       8.16356439       4.19658660        5       0.00000000      -0.04706360       0.19400382      -0.16723211
Pt       9.02274482       8.11641462       4.26579757        6       0.00000000      -0.11513133       0.02450334      -0.05351027
Pt      11.62993742       8.14695574       4.29443854        6       0.00000000       0.00091352       0.03073428      -0.07879234
Pt      -0.05501176      -0.03624513       6.56070384       10       0.00000000       0.18912668       0.14263591       0.30858377
Pt       2.61167977      -0.00307546       6.57532457       10       0.00000000      -0.06611244       0.02709672       0.37629873
Pt       5.20864148      -0.09245735       6.56318042       10       0.00000000       0.01406460      -0.03277417       0.44752904
Ni       7.74231755      -0.06588377       6.51225940        9       1.00000000      -0.03912716       0.00722813      -0.05633531
Pt       1.31887741       2.32525279       6.51013969        9       0.00000000      -0.11531036      -0.00658497      -0.02118604
Ni       3.86818386       2.22270021       6.41042801        8       1.00000000       0.06772177      -0.08470587       0.09029165
Pt       6.45011943       2.17846043       6.42133584        8       0.00000000      -0.06509217      -0.05969749       0.56688777
Pt       9.02928708       2.26375648       6.46578327        9       0.00000000       0.06403302       0.05128132       0.04850523
Ni       2.55275161       4.48047278       6.45900559        9       1.00000000      -0.09762595       0.13953315      -0.26923254
Pt       5.05507288       4.40546473       6.51840155        9       0.00000000      -0.05808739      -0.06105169       0.22986621
Ni       7.78362660       4.44049256       6.40030480        8       1.00000000       0.01778945       0.03776644      -0.00803658
Ni      10.32626700       4.46305313       6.49339069        9       1.00000000       0.02742799       0.00108240      -0.10308780
Ni       3.79235293       6.63482907       6.48417875        9       1.00000000      -0.04172232      -0.02646259      -0.21188808
Pt       6.49802392       6.58513141       6.44073404        8       0.00000000       0.06346624      -0.07702748       0.64051957
Ni       9.06072701       6.58368419       6.48890058        9       1.00000000      -0.02099718      -0.02260241      -0.05838633
Ni      11.64549442       6.59190064       6.49315403        9       1.00000000       0.05508345      -0.08465809      -0.22418789
