64
Lattice="9.91534906750514 0.012595832941163676 0.008169962385945275 4.9685828450615 8.61358451405626 0.006622797634072561 0.0 0.0 21.277432728038416" Properties=species:S:1:pos:R:3:tags:I:1:initial_magmoms:R:1:forces:R:3 unique_id=6730d3014f4e445d903f529aa8be95f3 energy=-359.46444983669284 stress="0.002976388714210597 0.00021433272802191147 1.0578232081141081e-05 0.00021433272802191147 0.0033412758938473255 -1.3709244427090605e-05 1.0578232081141081e-05 -1.3709244427090605e-05 -0.0025425843539715895" pbc="T T T"
Ni      -0.03931840       0.05571004       0.08930721        1       1.00000000       0.01758080      -0.10222416       0.11094645
Ni       2.48020014       0.00089123       0.10089451        1       1.00000000      -0.03477702       0.06401008      -0.03776486
Ni       4.99781878      -0.04908972       0.10189764        1       1.00000000       0.04554124       0.08342471       0.03587199
Ni       7.43811886       0.00033094       0.09634419        1       1.00000000       0.00077733      -0.02464163       0.17576708
Ni       1.17572735       2.15124453       0.09641494        1       1.00000000       0.07006324      -0.05118331      -0.03973267
Pt       3.66572374       2.08329583       0.00000000        0       0.00000000      -0.07714248      -0.00565854      -0.45062792
Ni       6.24610006       2.07576347       0.07486857        1       1.00000000       0.00956378      -0.00197104      -0.01077041
Ni       8.71021093       2.10107108       0.09556317        1       1.00000000      -0.09679682       0.09438739       0.11197470
Ni       2.41084897       4.34079181       0.09948124        1       1.00000000       0.15247996      -0.03321130      -0.02798145
Pt       4.90366372       4.34516640       0.01051515        0       0.00000000       0.04015470       0.11932007      -0.51778093
Pt       7.54014344       4.26983673       0.05706136        1       0.00000000      -0.04510572       0.05658071      -0.17580432
Ni       9.99041553       4.32065083       0.10828756        1       1.00000000      -0.14449041       0.01189498       0.04522758
Ni       3.64762686       6.52296046       0.09638786        1       1.00000000       0.04125502       0.02356910       0.09022584
Pt       6.20761247       6.56453574       0.04975719        0       0.00000000      -0.03972478      -0.12144328      -0.24156338
Ni       8.76148061       6.49939172       0.10815352        1       1.00000000      -0.03762402      -0.09229224       0.04705336
Ni      11.16676799       6.47468689       0.09851594        1       1.00000000       0.04110047       0.04186828       0.18249261
Ni       1.22470938       0.71584847       2.12964036        2       1.00000000      -0.01484245      -0.02945910       0.02933097
Ni       3.70427529       0.67381987       2.13309697        2       1.00000000      -0.01072216       0.05040951      -0.02689327
Ni       6.23527934       0.67170710       2.13811715        2       1.00000000       0.01509960       0.00794914       0.11062259
Ni       8.67819913       0.71946775       2.14389553        2       1.00000000       0.00388424      -0.02913736       0.10912583
Ni       2.43861774       2.87337516       2.11696210        2       1.00000000       0.03659673      -0.03113407      -0.06400041
Pt       4.98484301       2.85531724       2.20923834        3       0.00000000       0.04445530       0.03241176      -0.14927843
Ni       7.49852732       2.84119196       2.17832387        3       1.00000000       0.00582537       0.02877473       0.02679481
Ni       9.90170936       2.87033060       2.11171947        2       1.00000000      -0.04217227      -0.02792609       0.02701564
Ni       3.68258657       5.07980356       2.16812604        3       1.00000000       0.07687315      -0.01628826      -0.01875191
Ni       6.22874264       5.06914587       2.19883829        3       1.00000000      -0.00728152       0.01147094       0.03475510
Ni       8.72040917       5.04753403       2.18078254        3       1.00000000      -0.04670896      -0.04056101       0.02269788
Ni      11.15761971       5.06638398       2.11841011        2       1.00000000       0.02256293       0.04414244       0.07578238
Ni       4.93438860       7.20690340       2.17810556        3       1.00000000       0.03881018      -0.03206349      -0.02381606
Ni       7.45691459       7.18650005       2.15375415        3       1.00000000      -0.11743057      -0.07255052      -0.03146643
Ni       9.95733026       7.17245126       2.11754421        2       1.00000000       0.04485676      -0.01072203       0.10363406
Ni      12.39973510       7.19712601       2.14685760        2       1.00000000       0.03035459       0.01268897       0.11214407
Ni      -0.02473908       1.39872645       4.19660756        4       1.00000000      -0.02829342      -0.00515719      -0.08306248
Ni       2.46681693       1.42968776       4.18950778        4       1.00000000      -0.05735468      -0.01949765      -0.14759832
Ni       5.00519944       1.43607292       4.24556231        4       1.00000000       0.09312872      -0.01892063      -0.08099044
Ni       7.45127715       1.43694479       4.20739321        4       1.00000000       0.03208559      -0.03227775      -0.04874774
Pt       1.23703220       3.59104887       4.19427110        4       0.00000000      -0.00869643      -0.02732472       0.10414403
Ni       3.73432386       3.62053622       4.22175278        4       1.00000000      -0.02577261       0.07482899      -0.10677617
Ni       6.23294371       3.59953431       4.22741688        4       1.00000000      -0.00022660      -0.02346903      -0.16280963
Ni       8.65241358       3.58648122       4.19763822        4       1.00000000       0.01619352      -0.03606172      -0.04191469
Ni       2.51047988       5.78504141       4.20375027        4       1.00000000       0.00066023       0.02699392      -0.04579015
Ni       4.95912665       5.76185834       4.18413619        4       1.00000000      -0.01680194       0.02778614      -0.14281051
Ni       7.43168176       5.71935290       4.19237904        4       1.00000000       0.00294206      -0.00121777      -0.11476933
Ni       9.92848671       5.75279547       4.21214601        4       1.00000000       0.00995904      -0.00031035      -0.03425143
Ni       3.72846865       7.89845761       4.20350373        4       1.00000000      -0.00848871       0.01179384      -0.06940177
Ni       6.16217786       7.90578489       4.19422413        4       1.00000000      -0.02926704       0.02638964      -0.09826880
Pt       8.69217786       7.89558289       4.21250180        4       0.00000000       0.00285581       0.00084145       0.15000879
Ni      11.21746646       7.90611741       4.21199807        4       1.00000000       0.04270270      -0.00845285      -0.00998141
Ni      -0.00590688       0.00151214       6.23033946        6       1.00000000      -0.01285793      -0.02592534      -0.12519846
Ni       2.45565901       0.01521325       6.26292720        7       1.00000000      -0.06066491       0.01374862       0.00383881
Ni       4.98872426       0.02010396       6.27353619        7       1.00000000       0.04122418       0.02288558       0.02794891
Ni       7.44700395       0.01435603       6.24253340        6       1.00000000       0.01682714      -0.00874866      -0.16216400
Ni       1.23723936       2.13189989       6.26661254        7       1.00000000      -0.01355366      -0.04227057      -0.02024076
Ni       3.72501975       2.16180214       6.12297023        5       1.00000000      -0.05558296      -0.00859901       0.58169244
Ni       6.21375995       2.16126706       6.22683674        6       1.00000000       0.02739646       0.04823763      -0.01464733
Ni       8.67847877       2.15902672       6.23828968        6       1.00000000       0.00702167       0.02850187      -0.14344858
Ni       2.50631124       4.32799059       6.26389929        7       1.00000000       0.05670203       0.01238251      -0.01756966
Ni       4.97095480       4.31926320       6.12238709        5       1.00000000       0.01649868       0.05873690       0.55152051
Ni       7.44362324       4.31190750       6.14971532        5       1.00000000       0.01164236       0.00839980       0.44663276
Ni       9.90386734       4.32762061       6.27743273        7       1.00000000      -0.07132406      -0.00074246       0.01550157
Ni       3.73073434       6.47007857       6.22874944        6       1.00000000       0.03853672       0.00986688      -0.14103005
Ni       6.20242081       6.46758928       6.13617296        5       1.00000000      -0.00578018       0.00327312       0.35828146
Ni       8.68703456       6.44614750       6.27190904        7       1.00000000      -0.04820551      -0.08418340       0.06334206
Ni      11.17150881       6.47614447       6.24894320        6       1.00000000       0.00347757       0.00805685      -0.12667012
