64
Lattice="10.118465526223433 0.010422950355878651 0.001580451329602556 5.068259302902343 8.766922365857065 -0.01968925524854083 0.0 0.0 21.45440199694094" Properties=species:S:1:pos:R:3:tags:I:1:initial_magmoms:R:1:forces:R:3 unique_id=cd52b98a18c348e6badb55114dd8014b stress="0.003927043747440923 7.229452459960578e-05 0.00010638291504802979 7.229452459960578e-05 0.0036703750837402856 -0.00016894852537751226 0.00010638291504802979 -0.00016894852537751226 -0.0022926663300387043" energy=-368.30205068801814 pbc="T T T"
Ni       0.03596263      -0.03756229       0.15786287        2       1.00000000       0.11866313       0.01824102      -0.35633081
Ni       2.51379868      -0.02911384       0.16423018        2       1.00000000       0.03073065      -0.00628591      -0.08711216
Ni       5.07323594      -0.00764403       0.05525898        1       1.00000000      -0.06706938       0.02592053       0.08603932
Ni       7.56377243       0.00121057       0.12842149        1       1.00000000      -0.02056659       0.12303943      -0.56028011
Ni       1.27140755       2.19707224       0.08103564        1       1.00000000       0.01172746      -0.02314574       0.29517937
Pt       3.79524859       2.19440260       0.15020871        2       0.00000000      -0.03699522      -0.01159280      -0.64762451
Ni       6.32087453       2.20549721       0.07595200        1       1.00000000       0.00843515       0.02816652       0.15212759
Pt       8.85639657       2.25599463       0.07575363        1       0.00000000       0.00784838       0.06395215      -0.77785630
Ni       2.53279420       4.40367340       0.02621973        0       1.00000000       0.09864161      -0.01994635       0.16844883
Ni       5.06707910       4.40702751       0.03623809        0       1.00000000      -0.11449178      -0.05063506       0.12097643
Ni       7.58144729       4.42016954       0.04055564        0       1.00000000       0.11159777       0.04593415       0.04694479
Ni      10.13159214       4.41945164       0.03304470        0       1.00000000      -0.07892880       0.06404552       0.10003359
Ni       3.82903365       6.55035607       0.02312571        0       1.00000000       0.11250506      -0.04797563       0.10169292
Ni       6.32545880       6.59169066       0.03769339        0       1.00000000       0.02702488       0.11898491       0.17653420
Ni       8.83210755       6.56332124       0.10876299        1       1.00000000      -0.14560958      -0.05538815      -0.21256823
Ni      11.38448398       6.57185421       0.00000000        0       1.00000000      -0.05919896      -0.02524570       0.04580481
Ni       1.31322865       0.73299239       2.16827134        4       1.00000000       0.03332465       0.10322659       0.15769944
Ni       3.74510451       0.73176401       2.17562118        4       1.00000000      -0.12935983      -0.03936367       0.13898204
Ni       6.30837500       0.78010705       2.11982556        3       1.00000000      -0.03274925       0.08693047      -0.03583623
Pt       8.89997323       0.77825485       2.20120561        4       0.00000000       0.02374050       0.04512190       0.02212563
Ni       2.52729218       2.88384191       2.20900365        4       1.00000000       0.00927804      -0.10813815       0.23012476
Ni       5.06491748       2.92800915       2.16430922        4       1.00000000      -0.00706196       0.06322218       0.05699910
Ni       7.57828676       2.94258685       2.17243957        4       1.00000000       0.02046590       0.01133793       0.10244020
Ni      10.14369495       2.92277286       2.19735113        4       1.00000000       0.05282738      -0.08548784       0.18718810
Ni       3.81736743       5.06185970       2.14287161        3       1.00000000      -0.02076712      -0.16576739       0.05805080
Pt       6.33242325       5.14459155       2.10991633        3       0.00000000       0.00380042       0.04754350       0.00421400
Ni       8.84321307       5.08277375       2.14841105        3       1.00000000       0.00272331      -0.11011578       0.08206114
Pt      11.38154792       5.02707060       2.16302222        4       0.00000000      -0.01086406      -0.14262400       0.06935293
Ni       5.11900915       7.30435503       2.12215972        3       1.00000000       0.00980373       0.06140284       0.11514338
Ni       7.55772527       7.33750798       2.14862611        3       1.00000000      -0.05922760       0.06186433       0.17937529
Pt      10.04894273       7.33717183       2.15161372        4       0.00000000      -0.06566966       0.01037004       0.07057298
Pt      12.67490871       7.26695019       2.09680558        3       0.00000000       0.11154284      -0.02385657       0.04388488
Ni       0.06658883       1.49033632       4.26067002        6       1.00000000       0.16237410       0.00497318      -0.07649535
Ni       2.47988582       1.46639552       4.22937442        5       1.00000000      -0.02120366      -0.03736347      -0.14527451
Pt       5.05217966       1.39712597       4.21162384        5       0.00000000      -0.06406494      -0.11484204       0.08770667
Ni       7.59250016       1.46394132       4.25826327        6       1.00000000       0.02003968      -0.05730779      -0.18141696
Ni       1.27182655       3.63092196       4.31020170        6       1.00000000       0.03703239      -0.07589050      -0.01674952
Ni       3.75079152       3.69911870       4.24224402        5       1.00000000      -0.04082911       0.01870053      -0.19254536
Pt       6.35147665       3.68023412       4.31715616        6       0.00000000       0.01786451      -0.02332173       0.11285302
Ni       8.90699635       3.70274799       4.22353876        5       1.00000000       0.09296622       0.08853559      -0.21173414
Ni       2.52254600       5.78428458       4.32100600        6       1.00000000      -0.05242432      -0.08050339      -0.05063394
Ni       5.06253899       5.82807181       4.30255104        6       1.00000000       0.06649736      -0.04829961      -0.07588473
Ni       7.61000685       5.86980372       4.26496830        6       1.00000000       0.05619270       0.09296496      -0.15553316
Ni      10.13728700       5.81152729       4.28233574        6       1.00000000      -0.00482435      -0.07622123      -0.06653249
Pt       3.82730752       7.96621183       4.27146030        6       0.00000000       0.04570406      -0.01566923       0.16748414
Ni       6.37606928       8.01033416       4.21374165        5       1.00000000       0.06356850      -0.00164927      -0.15172519
Ni       8.83618695       8.00170664       4.25111774        6       1.00000000      -0.15059497      -0.02189622      -0.13256067
Ni      11.35963196       7.97641016       4.27911298        6       1.00000000      -0.03012972      -0.17191985      -0.03529643
Pt       0.01367767      -0.05055511       6.45440200        9       0.00000000      -0.08539107       0.09631748       0.40500498
Pt       2.56118826      -0.01123303       6.39423355        8       0.00000000       0.00315490       0.05674618       0.10140196
Ni       5.05901800      -0.02393961       6.39726554        8       1.00000000      -0.08704984      -0.00080264      -0.04245936
Pt       7.49270785      -0.04124974       6.44381037        8       0.00000000       0.06555321       0.10767664       0.36785069
Ni       1.27099391       2.23783539       6.36701149        8       1.00000000       0.04724705       0.02878465      -0.15888607
Pt       3.79667138       2.28397010       6.34179556        7       0.00000000      -0.11808830       0.19328600       0.60136956
Ni       6.31826979       2.21309384       6.41321809        8       1.00000000      -0.00240669       0.07675310       0.02692474
Pt       8.85887459       2.28078070       6.27692924        7       0.00000000      -0.02669819      -0.06721969       0.73153659
Ni       2.50867461       4.41981973       6.36220613        8       1.00000000       0.04557622      -0.02445823      -0.23786163
Ni       5.06589656       4.43056000       6.39679273        8       1.00000000      -0.10448328       0.01877791      -0.08044705
Ni       7.56368914       4.40070094       6.40244953        8       1.00000000       0.02083936       0.00740850       0.01679622
Ni      10.18489469       4.38585140       6.36362601        8       1.00000000       0.04857928      -0.02341656      -0.23484487
Ni       3.79499508       6.47850177       6.38368154        8       1.00000000      -0.04254239      -0.03315686      -0.11601545
Ni       6.31158147       6.50103504       6.36878632        8       1.00000000       0.03521525       0.07642277      -0.22143330
Pt       8.90160557       6.49127793       6.38229855        8       0.00000000       0.00916153      -0.03196085      -0.02816681
Ni      11.40814094       6.51494680       6.36180555        8       1.00000000       0.04704344      -0.02518361      -0.14081972
