64
Lattice="10.170356868579935 0.0036885085972681525 -0.013355615670471385 5.088372776437276 8.792759444753573 -0.02493047650550521 -0.010904814531124577 -0.01720878105533184 8.716916862171294" Properties=species:S:1:pos:R:3:tags:I:1:initial_magmoms:R:1:forces:R:3 unique_id=43fd974b2484402695a13d361100096b stress="-0.001023651445690596 2.5324544962363455e-07 1.3675786172149087e-06 2.5324544962363455e-07 -0.00102849602767794 -2.4437617432951097e-06 1.3675786172149087e-06 -2.4437617432951097e-06 -0.0008880646014445687" energy=-392.02215160122597 pbc="T T T"
Ni       0.03958826      -0.03710193       0.17682575        4       1.00000000       0.14337056      -0.03681444       0.25066256
Ni       2.52719337      -0.02839887       0.19488163        4       1.00000000       0.01074526      -0.05019336       0.25463576
Ni       5.09793683      -0.00827962       0.07415561        4       1.00000000      -0.01311994      -0.01770491       0.05724351
Ni       7.59566639      -0.00328615       0.14966958        4       1.00000000      -0.03086612       0.11098215       0.27556552
Ni       1.27416869       2.20261808       0.10361310        4       1.00000000       0.00580226       0.02526731       0.25086782
Pt       3.81366101       2.20027532       0.17346659        4       0.00000000      -0.01173244      -0.03777318       0.28836649
Ni       6.35181466       2.20759400       0.08854897        4       1.00000000      -0.01556041       0.08406762       0.20173113
Pt       8.89953077       2.25746352       0.00826803        4       0.00000000       0.00925002      -0.00694587      -0.17439291
Ni       2.54438872       4.41254968       0.05184132        4       1.00000000       0.04552565       0.00867950       0.03934139
Ni       5.08835782       4.41736336       0.05459388        4       1.00000000      -0.01900298       0.00937208       0.05855079
Ni       7.61934455       4.42286600       0.05408815        4       1.00000000      -0.03145115       0.10512959       0.05761821
Ni      10.17331218       4.42006385       0.03975855        4       1.00000000      -0.04258454       0.10667584       0.01111233
Ni       3.84267517       6.56917763       0.04704088        4       1.00000000       0.12125830      -0.09236572       0.02238487
Ni       6.35317481       6.60774897       0.05656513        4       1.00000000      -0.00103430       0.05962221      -0.04503358
Ni       8.87248501       6.58091396       0.12317853        4       1.00000000      -0.15180461      -0.06003538       0.19014921
Ni      11.43694537       6.58894483       0.00892151        4       1.00000000      -0.07112925      -0.01739813      -0.11262914
Ni       1.31993492       0.74981692       2.16592589        3       1.00000000       0.08753015       0.13082586       0.05098062
Ni       3.76619113       0.73221638       2.19565155        3       1.00000000      -0.13711684      -0.01481707       0.02665515
Ni       6.32644184       0.77391920       2.13580580        3       1.00000000      -0.01336049       0.07054138      -0.08113257
Pt       8.96077448       0.76741374       2.16661366        3       0.00000000       0.07414972       0.07102687      -0.08561078
Ni       2.54277707       2.89721746       2.21602936        3       1.00000000       0.06152282      -0.06065379       0.12317329
Ni       5.08512373       2.93463438       2.18989143        3       1.00000000      -0.02256898       0.06489424       0.01271651
Ni       7.62034021       2.95386670       2.16354670        3       1.00000000       0.04089920       0.04400552      -0.01180575
Ni      10.17620687       2.92877052       2.17933040        3       1.00000000      -0.03286953      -0.02809562       0.04679156
Ni       3.83107048       5.07987641       2.16997928        3       1.00000000      -0.00313386      -0.14137744       0.01681133
Pt       6.35828069       5.15057225       2.12526657        3       0.00000000      -0.00040950       0.04438823       0.02692586
Ni       8.88104895       5.09681234       2.16778975        3       1.00000000      -0.01595700      -0.09420157       0.05134225
Pt      11.42940380       5.05847987       2.12714740        3       0.00000000      -0.02440846      -0.08147968      -0.05745667
Ni       5.12085067       7.31115314       2.12258050        3       1.00000000      -0.01025668      -0.04211218      -0.04109321
Ni       7.60919511       7.34096070       2.13156935        3       1.00000000      -0.01694977      -0.03338607      -0.05199745
Pt      10.09468240       7.35904691       2.16816172        3       0.00000000      -0.04917187       0.00533872       0.00615450
Pt      12.73069806       7.28839412       2.10528530        3       0.00000000       0.06693142      -0.04960954       0.00123416
Ni       0.02799007       1.48192393       4.33971265        2       1.00000000       0.09138520      -0.07047558      -0.02781738
Ni       2.51589930       1.46520475       4.28114835        2       1.00000000       0.01596236      -0.02341859      -0.05425771
Pt       5.03242061       1.40714948       4.24862561        2       0.00000000      -0.13546245       0.01631320       0.04468791
Pt       7.65093729       1.50010651       4.32001566        2       0.00000000      -0.00321365      -0.06269576       0.02028477
Pt       1.26550374       3.64362345       4.37106119        2       0.00000000       0.01036428      -0.05281509      -0.00254814
Ni       3.79350053       3.71480916       4.28903336        2       1.00000000      -0.01744157       0.07923758      -0.17292574
Pt       6.34051929       3.73262415       4.36259638        2       0.00000000      -0.02134955       0.03398653       0.01883263
Ni       8.91604240       3.71034527       4.31908458        2       1.00000000       0.00667220       0.15631462      -0.16469415
Ni       2.53362376       5.81965524       4.36498031        2       1.00000000      -0.04637618      -0.07295248      -0.07475244
Ni       5.05461611       5.82910237       4.34336772        2       1.00000000      -0.05686656      -0.01116654      -0.08895673
Ni       7.66746166       5.84816154       4.30641111        2       1.00000000       0.15635672      -0.00369013      -0.13615854
Ni      10.16386141       5.85510772       4.31313874        2       1.00000000       0.01065714      -0.05427390      -0.11191514
Pt       3.80299615       7.96080781       4.31988593        2       0.00000000      -0.04072100      -0.01231428       0.14159100
Pt       6.41596089       8.02262587       4.21962891        2       0.00000000       0.03865997      -0.01408957       0.08216648
Ni       8.91593272       8.01861587       4.29914500        2       1.00000000      -0.00667297      -0.12148838       0.04083308
Ni      11.40005141       7.99292711       4.32135331        2       1.00000000      -0.00665672      -0.13097352      -0.02012974
Pt      -0.01885014       0.00283213       6.52814248        1       0.00000000      -0.02254697      -0.00629150       0.15885358
Pt       2.57294505      -0.00454907       6.50171402        1       0.00000000       0.00860110       0.02748609       0.15332604
Ni       5.08445508      -0.02499137       6.45102648        1       1.00000000      -0.07876723      -0.00754967      -0.19572071
Pt       7.53102008      -0.03730169       6.52620018        1       0.00000000      -0.10797978      -0.04132934       0.14179519
Ni       1.23750165       2.23082948       6.46203632        1       1.00000000      -0.01264687       0.02019175       0.01338225
Pt       3.81283886       2.29302448       6.40411431        1       0.00000000       0.02332545       0.22196856      -0.32768675
Ni       6.36255824       2.22726317       6.47603499        1       1.00000000       0.01472618       0.10771091      -0.01074169
Ni       8.90745031       2.26133187       6.35363987        1       1.00000000       0.07525178       0.16288999      -0.41100714
Ni       2.52734027       4.44296090       6.44973663        1       1.00000000      -0.02080554       0.16988577      -0.07609125
Ni       5.08330174       4.44318831       6.45576093        1       1.00000000      -0.00361641       0.19776275      -0.04529573
Ni       7.62113579       4.37015511       6.45414103        1       1.00000000       0.03685537      -0.04914600      -0.05093454
Ni      10.17802660       4.36430216       6.43851277        1       1.00000000       0.05053703      -0.07379642      -0.08065675
Ni       3.80508532       6.50739936       6.44707737        1       1.00000000      -0.01069821      -0.10489659      -0.08841958
Ni       6.32969374       6.51937761       6.43887900        1       1.00000000       0.02484559      -0.06400299      -0.19504551
Pt       8.93378698       6.50475788       6.43413441        1       0.00000000       0.04706278      -0.11813045       0.11881848
Ni      11.45241606       6.53574373       6.41108506        1       1.00000000       0.02806185      -0.17410416      -0.25867878
