64
Lattice="10.182298273783827 -0.005848452802639968 0.007365847978660105 5.086084228191992 8.775804380797034 -0.031360060754006526 0.006014189690209283 -0.033038842860040114 8.722156114059457" Properties=species:S:1:pos:R:3:tags:I:1:initial_magmoms:R:1:forces:R:3 unique_id=3630ec1ddeb34f47a56fb0d8ba651d6c stress="-0.00020272777205998516 -2.974516122377779e-06 4.364385739866173e-06 -2.974516122377779e-06 -0.00020759055732844783 2.6273108181332555e-06 4.364385739866173e-06 2.6273108181332555e-06 -0.00015800636429322973" energy=-391.98460710097055 pbc="T T T"
Ni       0.01071524       0.01854643       0.17616989        4       1.00000000       0.04819268       0.05250489       0.33863639
Ni       2.50293954       0.01181090       0.22065455        4       1.00000000      -0.08391405       0.05780230       0.37869043
Pt       5.06668327      -0.06299974       0.12226564        4       0.00000000      -0.03714897      -0.11789431       0.33353152
Ni       7.68867828      -0.05659535       0.08449970        4       1.00000000       0.06747618      -0.07692310       0.11884078
Ni       1.22684290       2.19974461       0.10670215        4       1.00000000      -0.08485235       0.02265006       0.18813964
Pt       3.73006382       2.25021547       0.08164971        4       0.00000000      -0.10902543       0.07085803      -0.11847962
Pt       6.40400598       2.20581167       0.02862539        4       0.00000000       0.08455348      -0.00776480      -0.10672461
Ni       8.96855614       2.18445732       0.15219659        4       1.00000000       0.07779360       0.02116826       0.20719242
Ni       2.53664525       4.42321167       0.04652867        4       1.00000000       0.03709389       0.06101018      -0.02150349
Ni       5.04633420       4.42407771       0.08899423        4       1.00000000      -0.04234204       0.06000562       0.14777525
Pt       7.71705694       4.40966396       0.07278666        4       0.00000000       0.08805086      -0.03604413      -0.06286315
Ni      10.22860275       4.36859756       0.06426440        4       1.00000000       0.14125548      -0.04731300       0.05388362
Ni       3.77833302       6.56996011       0.07872193        4       1.00000000      -0.03704858      -0.03765862       0.11080590
Pt       6.31499671       6.62167853       0.06310608        4       0.00000000      -0.06428271       0.01333091      -0.23179928
Ni       8.91704412       6.55108512       0.04402153        4       1.00000000       0.02637853      -0.01488358       0.00375117
Ni      11.49359151       6.53276644       0.04609283        4       1.00000000       0.04867714      -0.05392525       0.03409684
Ni       1.30007235       0.72601110       2.18446056        3       1.00000000      -0.01796780       0.01574295       0.14764679
Ni       3.76762096       0.74802704       2.20913615        3       1.00000000       0.04340185       0.01286031       0.04132060
Pt       6.36448094       0.78554880       2.27244881        3       0.00000000      -0.10344433       0.09047312      -0.09681058
Pt       8.98107441       0.74313271       2.19330706        3       0.00000000      -0.01521278       0.05541273       0.07016557
Ni       2.54246681       2.90872082       2.20498404        3       1.00000000       0.06429163      -0.03714893       0.00954688
Ni       5.05312376       2.97966863       2.21242040        3       1.00000000      -0.09919903       0.06797192      -0.05473316
Ni       7.67437940       2.97075611       2.23029424        3       1.00000000       0.05166893       0.05345326      -0.01303471
Ni      10.19289935       2.91658757       2.20374274        3       1.00000000       0.06070406       0.00076314       0.14302418
Ni       3.85583656       5.10831707       2.18303775        3       1.00000000       0.07219309       0.00521902       0.07850764
Ni       6.34423905       5.11931081       2.20722732        3       1.00000000       0.00913809       0.05658121      -0.08498781
Ni       8.87958705       5.06154830       2.23630381        3       1.00000000      -0.04117080      -0.11967478       0.16093709
Pt      11.50586414       5.02702913       2.19715727        3       0.00000000       0.11191119      -0.05646750       0.07910121
Ni       5.10263591       7.26355482       2.18829831        3       1.00000000       0.05364569      -0.11566416      -0.01241687
Ni       7.57072854       7.28968689       2.18197415        3       1.00000000      -0.12279648      -0.12182273       0.02627699
Pt      10.12914012       7.19759789       2.16826451        3       0.00000000      -0.06728271      -0.02574341      -0.16329534
Ni      12.77537783       7.25816974       2.12909728        3       1.00000000       0.05640809      -0.06782497      -0.04149783
Ni       0.00417576       1.49836641       4.31935246        2       1.00000000      -0.03015493       0.08682077       0.08721538
Pt       2.50685608       1.52726093       4.29023142        2       0.00000000      -0.07438084      -0.00507645       0.13385446
Ni       5.07412005       1.49580543       4.33362912        2       1.00000000      -0.11561282       0.04783131      -0.07900584
Ni       7.66152319       1.47544696       4.35209993        2       1.00000000       0.09133532       0.00629068       0.03912980
Ni       1.24970575       3.67636707       4.35986383        2       1.00000000      -0.04457153      -0.00479725       0.05865825
Ni       3.80740503       3.69448074       4.32970447        2       1.00000000      -0.04581992       0.07290177      -0.11758846
Pt       6.35523242       3.66787352       4.30573394        2       0.00000000       0.00249894      -0.04792315      -0.08440884
Ni       8.94196652       3.66567943       4.29961727        2       1.00000000       0.01947548      -0.01850374      -0.07818742
Ni       2.56622153       5.75292960       4.35177003        2       1.00000000       0.07712107      -0.13162566      -0.01519977
Ni       5.09302242       5.80989592       4.31440212        2       1.00000000       0.00612843      -0.06652360      -0.12121135
Ni       7.62572638       5.80343164       4.31354793        2       1.00000000      -0.00168544      -0.01729969      -0.17633824
Ni      10.17149350       5.74882492       4.37133145        2       1.00000000      -0.04408375      -0.06983174       0.00072137
Pt       3.87611097       7.96477008       4.28155496        2       0.00000000       0.06598510      -0.07256909       0.16396900
Ni       6.35109356       7.98544888       4.26588679        2       1.00000000      -0.01750098      -0.00893884      -0.04994009
Pt       8.83572453       7.96316227       4.27291858        2       0.00000000      -0.02807593       0.02420779       0.10608223
Pt      11.50475241       7.94757832       4.31738109        2       0.00000000      -0.03240804      -0.15320422       0.08661622
Pt      -0.02747313      -0.06025837       6.52440163        1       0.00000000      -0.07679850      -0.05932744       0.10719825
Pt       2.53672084      -0.03077132       6.54202648        1       0.00000000      -0.02925613       0.02454588       0.25894862
Pt       5.13828448       0.00844301       6.41786277        1       0.00000000       0.11708951       0.07706945      -0.33644735
Ni       7.64139787      -0.04867315       6.48239072        1       1.00000000       0.01660671      -0.02912606      -0.09166694
Ni       1.28309882       2.25134293       6.45240448        1       1.00000000      -0.00292817       0.15737967      -0.02511117
Ni       3.82493221       2.25282917       6.36833063        1       1.00000000       0.00781229       0.20343071      -0.21697652
Ni       6.34949267       2.21070744       6.35161906        1       1.00000000      -0.03530008       0.16568145      -0.29796764
Pt       8.89330495       2.24568787       6.44944471        1       0.00000000      -0.01789160       0.16004282       0.08062716
Ni       2.54534008       4.37537195       6.41866967        1       1.00000000       0.00387747      -0.02432409      -0.12996013
Ni       5.06478350       4.38057636       6.43538373        1       1.00000000      -0.06618917       0.06423870      -0.06464309
Ni       7.63264494       4.41405977       6.36330665        1       1.00000000      -0.01738414       0.12749794      -0.21890957
Ni      10.21184343       4.40151608       6.42295123        1       1.00000000       0.05370867       0.07455878      -0.08783759
Ni       3.79007681       6.48983171       6.43636960        1       1.00000000      -0.03130364      -0.15319634      -0.06465436
Ni       6.35550410       6.49157878       6.33365677        1       1.00000000      -0.03255999      -0.04799654      -0.31642104
Ni       8.91686653       6.48180596       6.42766591        1       1.00000000       0.02799978      -0.06048229      -0.15485143
Ni      11.47729244       6.49215742       6.44550166        1       1.00000000       0.03712044      -0.10280615      -0.05941835
