64
Lattice="10.15594891476601 0.004663699834212297 0.005535416753826431 5.082013339915118 8.75200529992904 -0.01626744728060743 0.0 0.0 21.4405616293221" Properties=species:S:1:pos:R:3:tags:I:1:initial_magmoms:R:1:forces:R:3 unique_id=d7ba303b5e3c4bf9829aa9428c74ccbc stress="0.0018650608796121834 -9.437693447798198e-05 5.81056461843501e-05 -9.437693447798198e-05 0.001310212329240626 0.00013625666629468185 5.81056461843501e-05 0.00013625666629468185 -0.00512729413093607" energy=-368.79888644233756 pbc="T T T"
Ni       0.04317734      -0.04869156       0.13070271        1       1.00000000       0.07125618      -0.01565769      -0.43377489
Ni       2.49354386      -0.02693071       0.14507992        1       1.00000000       0.06901075       0.02618020      -0.27767701
Pt       5.10618855      -0.01042877       0.08913799        1       0.00000000      -0.10471272       0.21987656      -1.08529066
Ni       7.63240227      -0.04529928       0.11470500        1       1.00000000      -0.05894946      -0.07537421      -0.47838243
Ni       1.26501612       2.20458872       0.05393304        1       1.00000000      -0.03801290       0.03824120       0.24594263
Pt       3.77075126       2.26771609       0.10658575        1       0.00000000       0.04058412      -0.05745315      -0.58910924
Ni       6.35432546       2.24606075       0.05511157        1       1.00000000      -0.04454640       0.01868556       0.16983362
Pt       8.88922174       2.25885353       0.07120469        1       0.00000000       0.03147130       0.18496070      -0.98177071
Ni       2.51872422       4.42274136       0.02900107        0       1.00000000       0.05362291       0.01923252       0.37336682
Ni       5.10256292       4.43033763       0.03418954        0       1.00000000      -0.08511434       0.03665686       0.28606498
Ni       7.58341354       4.42360069       0.04116227        0       1.00000000       0.05293389       0.01101469       0.21987451
Ni      10.19046198       4.41845701       0.03771188        0       1.00000000      -0.02364611       0.02083709       0.33903088
Ni       3.82372734       6.54014394       0.02817586        0       1.00000000       0.04642348       0.00129866       0.29962407
Ni       6.33917972       6.55192407       0.03572313        0       1.00000000      -0.01189301       0.04598208       0.26352679
Ni       8.84734559       6.51131310       0.11901549        1       1.00000000      -0.07299882       0.00037162      -0.43289455
Ni      11.47331805       6.51147172       0.00000000        0       1.00000000       0.04490269       0.06667821       0.18809030
Ni       1.31751555       0.72979538       2.09592475        3       1.00000000       0.03324684       0.08715191       0.13168192
Ni       3.77759554       0.77322345       2.13406788        3       1.00000000      -0.04604052       0.06257567       0.19302396
Ni       6.33523481       0.77816227       2.16378660        4       1.00000000      -0.05116228       0.09661175       0.17331450
Pt       8.86966002       0.70511345       2.11127686        3       0.00000000       0.01503137      -0.12301868       0.17780419
Ni       2.51498519       2.94826592       2.16669231        4       1.00000000      -0.00884604       0.03415578       0.07568546
Ni       5.07756205       2.94121383       2.12289385        3       1.00000000      -0.02309966       0.03352875       0.04950911
Ni       7.58856729       2.95811307       2.12627572        3       1.00000000      -0.06968612      -0.00026620       0.11971569
Ni      10.20721582       2.98274631       2.11804442        3       1.00000000       0.07882125       0.03169333       0.09535199
Ni       3.81099516       5.09016014       2.09727011        3       1.00000000       0.01248743      -0.08018519       0.03006862
Ni       6.32488026       5.10452207       2.04876518        2       1.00000000      -0.04543516      -0.04204936       0.01844659
Ni       8.88181453       5.04226067       2.07924719        3       1.00000000      -0.00050482      -0.12624672       0.01712235
Ni      11.47079029       5.04969296       2.11373894        3       1.00000000       0.09022335      -0.08248279       0.12525297
Ni       5.11324847       7.22233308       2.06912829        3       1.00000000      -0.03717610      -0.07731888       0.09394173
Ni       7.56243112       7.27837720       2.05100905        3       1.00000000      -0.02641439      -0.01929033       0.07199045
Pt      10.21403387       7.19108841       2.11975536        3       0.00000000       0.05228456      -0.22030523       0.10727760
Ni      12.71823243       7.20833187       2.06619384        3       1.00000000       0.10372149      -0.13266888       0.07153247
Pt       0.09148942       1.50981504       4.19014619        6       0.00000000       0.12461740      -0.10431325      -0.02226203
Ni       2.56679967       1.52210351       4.16990467        6       1.00000000       0.07409530       0.07434348      -0.23881751
Ni       5.08259853       1.46506165       4.15964753        6       1.00000000      -0.01687729      -0.03150284      -0.28945147
Ni       7.57821713       1.43749690       4.21788516        6       1.00000000      -0.07814497      -0.11626170      -0.16200002
Ni       1.31049570       3.68993068       4.22956048        6       1.00000000       0.05051840       0.00074549      -0.10842171
Ni       3.76088322       3.69521172       4.16209027        6       1.00000000      -0.05125076       0.08125980      -0.21758241
Pt       6.30035286       3.59225985       4.22468156        6       0.00000000      -0.00521504      -0.06958392      -0.00190808
Ni       8.92861160       3.68646064       4.17411166        6       1.00000000       0.06046537       0.04485279      -0.23618681
Ni       2.52109228       5.76322469       4.22150350        6       1.00000000      -0.03723346      -0.02736215      -0.17150971
Ni       5.04185865       5.78029697       4.22378897        6       1.00000000      -0.00655538      -0.09012736      -0.16127112
Pt       7.59519964       5.81062939       4.16439179        6       0.00000000      -0.04184869      -0.01935392      -0.03869611
Ni      10.22582878       5.77220292       4.24066315        6       1.00000000      -0.00517011       0.01599027      -0.07123013
Pt       3.80085284       7.89588809       4.18353338        6       0.00000000       0.04288983       0.00958358       0.00125352
Ni       6.33730576       7.99718717       4.16321773        6       1.00000000      -0.03327207      -0.01773815      -0.20254749
Pt       8.86488179       8.06579234       4.14113007        5       0.00000000      -0.07610169       0.02683992      -0.15975622
Ni      11.44781605       7.97932187       4.18820733        6       1.00000000      -0.00242835      -0.11684798      -0.18265694
Pt       0.00887446      -0.07828393       6.44056163        9       0.00000000      -0.19054913       0.08173885       0.37290768
Pt       2.51647968      -0.00088235       6.41460961        9       0.00000000       0.21206977       0.08002134       0.29747534
Pt       5.11365582       0.01173813       6.27301567        8       0.00000000      -0.08922847       0.08555657       1.13443692
Pt       7.61391140      -0.05973607       6.40920316        9       0.00000000       0.11623695       0.16135362       0.39459127
Ni       1.28090768       2.25477368       6.35363758        9       1.00000000       0.02997939       0.03124016      -0.04233503
Pt       3.80744129       2.32063676       6.24603227        7       0.00000000      -0.03364344      -0.12084593       0.54550625
Ni       6.34556739       2.23304616       6.36301465        9       1.00000000       0.00981520      -0.02727811       0.07545256
Pt       8.87123140       2.29774777       6.26779539        8       0.00000000      -0.15039752      -0.11472737       1.01428639
Ni       2.51893475       4.42272422       6.32122574        8       1.00000000       0.05370569      -0.03194273      -0.32833705
Ni       5.08561163       4.42859154       6.35791488        9       1.00000000      -0.07603556       0.02581682      -0.19919689
Ni       7.55005316       4.37328271       6.37627741        9       1.00000000      -0.02207584      -0.00766695      -0.07768492
Ni      10.24601562       4.36554273       6.32975892        8       1.00000000       0.01796169       0.00145079      -0.22176119
Ni       3.80512259       6.44892686       6.35284600        9       1.00000000       0.01681271      -0.01265749      -0.19842557
Ni       6.31632692       6.48567505       6.35740436        9       1.00000000      -0.00766276       0.06485891      -0.17172453
Pt       8.92084338       6.42978106       6.42887630        9       0.00000000       0.09097011       0.07354995       0.19796869
Ni      11.47423561       6.48165467       6.32162312        8       1.00000000      -0.02423007       0.06559164      -0.18829042
