64
Lattice="10.454484640619668 0.0008664043707546471 0.05990459727045894 5.227992648504851 9.102853198219288 0.009251090598702253 0.04891189885318197 -0.019517286108509235 9.042698078891785" Properties=species:S:1:pos:R:3:tags:I:1:initial_magmoms:R:1:forces:R:3 unique_id=53a36d7515e945f0bff4cba11f23e100 stress="-0.005066072193341965 -4.421539266711126e-05 -4.009549938686591e-06 -4.421539266711126e-05 -0.0051432176589665465 6.689522072366498e-06 -4.009549938686591e-06 6.689522072366498e-06 -0.004159704690079924" energy=-409.5114783436897 pbc="T T T"
Pt      -0.08106195       0.02408652       0.15360271        4       0.00000000      -0.14382521      -0.01780717      -0.07018113
Ni       2.63983645      -0.02062864       0.08887926        4       1.00000000       0.09307258      -0.07755526       0.10255553
Ni       5.24646347      -0.04737175       0.17437055        4       1.00000000       0.10164629      -0.07928240       0.17046665
Ni       7.83658455      -0.04072970       0.15682708        4       1.00000000      -0.08337118      -0.17920564       0.19381733
Ni       1.28737201       2.26701624       0.14777968        4       1.00000000       0.01307782      -0.06218381       0.15739732
Pt       3.90416096       2.19777919       0.13001390        4       0.00000000       0.04695140      -0.05814026      -0.08709660
Pt       6.59947126       2.16575588       0.17834934        4       0.00000000       0.10849595      -0.13529399      -0.04135596
Ni       9.16718571       2.27027658       0.12200951        4       1.00000000       0.00444287      -0.02293383       0.04998263
Pt       2.55085191       4.59773189       0.11152438        4       0.00000000       0.04367648       0.05030977      -0.12913305
Pt       5.26487451       4.54964292       0.17613558        4       0.00000000       0.17249887      -0.09897574       0.00603900
Pt       7.95601997       4.56149376       0.18799382        4       0.00000000       0.13145476      -0.02707888       0.01541635
Ni      10.45808517       4.56284557       0.11188098        4       1.00000000       0.06408203       0.08248539       0.03482181
Ni       3.89634502       6.86571105       0.17866308        4       1.00000000      -0.02571798       0.07901560       0.17115215
Pt       6.58926664       6.87882931       0.22926498        4       0.00000000       0.07473345       0.01156198       0.07181541
Ni       9.18758938       6.84234287       0.11994181        4       1.00000000       0.10647974       0.01136059       0.07844712
Ni      11.76097683       6.86182709       0.19745110        4       1.00000000       0.08504717       0.09822551       0.12576577
Pt       1.30819223       0.68406071       2.24164361        3       0.00000000       0.02933237      -0.02604590      -0.01473354
Pt       4.00310648       0.72882075       2.30954645        3       0.00000000       0.03917075       0.05437076       0.13302443
Ni       6.58640250       0.73525161       2.32272851        3       1.00000000       0.07397708      -0.05022937       0.03050948
Ni       9.09579644       0.73497152       2.31424208        3       1.00000000      -0.17829625       0.04923745      -0.00773465
Pt       2.62872659       3.03597629       2.27967284        3       0.00000000      -0.04515583       0.05056707       0.02878506
Ni       5.27562632       3.01627871       2.32447227        3       1.00000000       0.04210395      -0.03704383      -0.00043956
Pt       7.79801432       3.01832377       2.42555224        3       0.00000000      -0.08747773       0.00643574      -0.00531645
Pt      10.38580047       3.03436481       2.24566007        3       0.00000000      -0.11072330       0.00378926      -0.06805275
Pt       3.97853629       5.39551988       2.27265060        3       0.00000000      -0.01465600       0.08046190       0.01836952
Ni       6.60276521       5.31711487       2.32856739        3       1.00000000       0.15970713       0.00359616       0.05389155
Ni       9.12314779       5.33521291       2.35543008        3       1.00000000      -0.09940451       0.05435648       0.15624121
Pt      11.69788618       5.35633008       2.31669079        3       0.00000000      -0.08765503      -0.01480187       0.04261247
Ni       5.22710382       7.58847435       2.26836324        3       1.00000000      -0.01466274       0.05232320       0.00385639
Ni       7.86695215       7.53036207       2.31208694        3       1.00000000       0.08776609      -0.10404352       0.12118147
Pt      10.45290191       7.57266897       2.23623576        3       0.00000000      -0.04142384      -0.00471294       0.08143125
Ni      13.09377601       7.64627435       2.27683541        3       1.00000000      -0.03987306       0.12706039      -0.08059707
Pt      -0.10058960       1.57269617       4.47159120        2       0.00000000      -0.12151166       0.08503118      -0.09984216
Pt       2.64161873       1.47893698       4.51206942        2       0.00000000      -0.13204597       0.01175523      -0.00350859
Ni       5.30809746       1.52028072       4.48367392        2       1.00000000       0.09079927       0.04071161      -0.17017209
Ni       7.83822514       1.54025883       4.51004361        2       1.00000000      -0.06886662       0.01537408      -0.13607675
Pt       1.21773801       3.83220865       4.50438477        2       0.00000000      -0.09728673       0.01890408      -0.05514066
Pt       4.03769775       3.73863064       4.44507214        2       0.00000000       0.05836615       0.02032478      -0.11597103
Ni       6.61296781       3.76050234       4.50530564        2       1.00000000       0.08236868       0.00358109      -0.00522798
Ni       9.12710944       3.81974189       4.51964745        2       1.00000000      -0.09340610       0.09470538      -0.20340038
Pt       2.59833214       6.09499284       4.46061700        2       0.00000000      -0.02791066       0.07543396      -0.02489249
Pt       5.35830971       6.02982490       4.43613215        2       0.00000000       0.07827426      -0.04808831      -0.02803977
Ni       7.92092441       6.00418704       4.47864987        2       1.00000000       0.08688849      -0.14458050      -0.20747465
Ni      10.41024893       6.03945641       4.56806221        2       1.00000000      -0.11945691      -0.05092032      -0.00252436
Pt       3.91715314       8.37210877       4.39905886        2       0.00000000       0.00074630      -0.03657918      -0.14649153
Pt       6.58085055       8.30067887       4.46086931        2       0.00000000      -0.02151143       0.00332470      -0.05338647
Pt       9.18123457       8.24050636       4.55102823        2       0.00000000      -0.04254007      -0.05198173       0.02705531
Pt      11.77607214       8.41993124       4.49287033        2       0.00000000      -0.02685739       0.04872931      -0.01208594
Pt      -0.01045464       0.02645711       6.68548903        1       0.00000000      -0.08634358       0.02559142      -0.06278979
Ni       2.65230836      -0.02561771       6.74572456        1       1.00000000      -0.06192470       0.05014788      -0.07660651
Pt       5.22791920      -0.04635435       6.80393540        1       0.00000000      -0.06804585      -0.00924425       0.14743465
Ni       7.86831268      -0.00172445       6.76271025        1       1.00000000      -0.05802854      -0.05080849      -0.11342138
Pt       1.26586178       2.27730590       6.78786470        1       0.00000000      -0.10271084       0.06357355       0.15375932
Pt       3.95501027       2.21586337       6.66871172        1       0.00000000       0.03427748       0.01360485      -0.02655093
Pt       6.65322373       2.21242003       6.62940326        1       0.00000000       0.03323073      -0.04799339      -0.04485308
Ni       9.17764902       2.27313373       6.76268054        1       1.00000000      -0.02950523       0.03288061      -0.09712554
Pt       2.60547569       4.53816124       6.66829300        1       0.00000000       0.06328560      -0.01137102      -0.06555563
Pt       5.31167465       4.53204378       6.67548857        1       0.00000000       0.11528934       0.01731944       0.02201118
Pt       7.99485415       4.53993818       6.63258751        1       0.00000000       0.05795916       0.02037084      -0.01392598
Ni      10.45857045       4.54660742       6.76097101        1       1.00000000      -0.00909518       0.02067752      -0.09809932
Pt       3.92551623       6.85756440       6.77783341        1       0.00000000      -0.03259273       0.01041024       0.11466849
Pt       6.67050167       6.84995083       6.70510246        1       0.00000000       0.06895569       0.05190484       0.05748277
Ni       9.18700285       6.80395301       6.74355068        1       1.00000000      -0.00124991      -0.03844137      -0.09617521
Pt      11.70713812       6.80100878       6.81700655        1       0.00000000      -0.07502514      -0.05417090       0.09398735
