64
Lattice="10.13166436913463 -0.015118614052235836 0.022860662166306247 5.052739080728068 8.68682554471936 -0.06667372404603092 0.0 0.0 21.390618617224533" Properties=species:S:1:pos:R:3:tags:I:1:initial_magmoms:R:1:forces:R:3 unique_id=8776888a000a4f4f9a93f852612b2d10 stress="0.004770506343763747 -0.00010085153578495864 0.00021583086257634442 -0.00010085153578495864 0.004160151143543013 -0.0004311937378759997 0.00021583086257634442 -0.0004311937378759997 -0.0017118198295904621" energy=-366.52730071435406 pbc="T T T"
Ni       0.03984906      -0.05419912       0.13053457        1       1.00000000       0.10324813      -0.02594762      -0.35244369
Ni       2.48745877      -0.04234738       0.14770843        1       1.00000000       0.04492950      -0.03270559      -0.09936113
Pt       5.09176760      -0.03859785       0.09427443        1       0.00000000      -0.08838590       0.09884239      -0.81240559
Ni       7.61808035      -0.06554870       0.14520037        1       1.00000000      -0.02090863      -0.07987790      -0.42814889
Ni       1.26024813       2.17824292       0.04741848        0       1.00000000      -0.03922417       0.00775043       0.29775225
Pt       3.76269731       2.22744158       0.11372805        1       0.00000000      -0.00839047      -0.02230324      -0.53102648
Ni       6.33637658       2.20674689       0.05563464        1       1.00000000      -0.04631660       0.02373063       0.16108520
Pt       8.86876658       2.20964967       0.06520945        1       0.00000000       0.04060002       0.12178807      -0.77235286
Ni       2.50421548       4.38086245       0.01196889        0       1.00000000       0.05371924       0.00316160       0.35717727
Ni       5.08447171       4.38259009       0.02273538        0       1.00000000      -0.06339119       0.05681872       0.30761014
Ni       7.56222371       4.36976068       0.03552257        0       1.00000000       0.04266540       0.05125940       0.24371641
Ni      10.15783252       4.36172760       0.03612216        0       1.00000000      -0.01143139       0.04192435       0.31872646
Ni       3.79961921       6.48711094       0.00114366        0       1.00000000       0.06116084      -0.02406293       0.27646763
Ni       6.31640760       6.49114086       0.01344847        0       1.00000000       0.01896640       0.02122528       0.28660119
Ni       8.81888574       6.44650214       0.07734586        1       1.00000000      -0.10694314      -0.02983597      -0.16714587
Ni      11.42770301       6.44377908       0.00000000        0       1.00000000       0.02425745       0.04025730       0.20890291
Ni       1.30702578       0.71069913       2.12949359        3       1.00000000       0.05194004       0.07726945       0.14823821
Ni       3.76178880       0.71450722       2.18403128        4       1.00000000      -0.04459173      -0.03762138       0.18094160
Ni       6.33284358       0.74353240       2.16976535        4       1.00000000      -0.04879288       0.06620569       0.11860830
Pt       8.88546099       0.69534162       2.16360083        4       0.00000000       0.06896993       0.06652058      -0.00140438
Ni       2.49735798       2.90185808       2.16254171        4       1.00000000       0.00962365       0.00440496       0.12224757
Ni       5.07420405       2.89698813       2.12748102        3       1.00000000      -0.08025129       0.02243969       0.01155548
Ni       7.57258582       2.91494024       2.12151136        3       1.00000000       0.01443454       0.01201733       0.03897947
Ni      10.18106280       2.91196246       2.15695781        4       1.00000000       0.05924901       0.02030055       0.12882916
Ni       3.79611757       5.04002581       2.07369047        3       1.00000000       0.01298416      -0.08107225       0.05634342
Ni       6.32789403       5.06232423       2.06014035        3       1.00000000      -0.00227365       0.02472123       0.05655144
Ni       8.83819020       4.99784573       2.09249851        3       1.00000000      -0.04584004      -0.14476754       0.07976826
Ni      11.42093489       4.99480083       2.10107658        3       1.00000000       0.05848844      -0.09217478       0.16567680
Ni       5.10103222       7.16214855       2.03124508        2       1.00000000       0.03171766      -0.10392876       0.06157672
Ni       7.55066677       7.20291673       2.07481301        3       1.00000000      -0.01625785      -0.04162290       0.11844125
Pt      10.12169029       7.14479480       2.15055748        4       0.00000000      -0.00248954      -0.08493209      -0.12081710
Ni      12.66288253       7.14062732       2.04663492        2       1.00000000       0.02748227      -0.15790748       0.03588271
Ni       0.07446483       1.45175704       4.18151100        6       1.00000000       0.15634906       0.00458625      -0.10451886
Ni       2.51766404       1.42511427       4.15132480        6       1.00000000       0.00531526       0.01283599      -0.14625485
Ni       5.06290875       1.40084848       4.14066501        5       1.00000000      -0.09935664      -0.02807932      -0.23919468
Ni       7.56857406       1.40429556       4.20573966        6       1.00000000      -0.10791934      -0.06688579      -0.12056361
Ni       1.27491862       3.59164443       4.19636867        6       1.00000000       0.02928292      -0.03113810      -0.09632148
Ni       3.76096717       3.63180610       4.13832786        5       1.00000000      -0.06121876       0.07234510      -0.19826900
Pt       6.33039472       3.59576052       4.19593431        6       0.00000000      -0.00295976       0.00830322       0.09221155
Ni       8.90854098       3.62802153       4.15121118        6       1.00000000       0.03365290       0.07102721      -0.19267952
Ni       2.50942612       5.69789231       4.18047240        6       1.00000000      -0.08335150      -0.11011134      -0.19392384
Ni       5.07025548       5.73484445       4.18450844        6       1.00000000       0.06582984      -0.05817102      -0.18946811
Ni       7.59547013       5.76748610       4.14712092        5       1.00000000       0.03451479       0.08677794      -0.21951634
Ni      10.16031850       5.69933997       4.19539799        6       1.00000000       0.05267110      -0.08485594      -0.05442836
Pt       3.80402265       7.83814250       4.11434766        5       0.00000000       0.05004442      -0.06422132       0.10536801
Ni       6.36274303       7.89806391       4.09897332        5       1.00000000       0.02362119      -0.02092540      -0.18790675
Ni       8.82274926       7.91554666       4.12079283        5       1.00000000      -0.17796882       0.08114894      -0.18389192
Ni      11.39879196       7.88233084       4.13343644        5       1.00000000       0.06212858      -0.07607222      -0.06777820
Pt       0.02418795      -0.08828161       6.37286517        9       0.00000000       0.00292828       0.12850777       0.36843645
Pt       2.53153144      -0.05241930       6.32145461        8       0.00000000       0.04324249       0.04235508       0.18574574
Pt       5.08699472      -0.05275846       6.21883532        7       0.00000000      -0.01593389       0.03019899       0.81887239
Pt       7.59935403      -0.10276048       6.39061862        9       0.00000000      -0.05084036       0.12029502       0.47388528
Ni       1.27748350       2.19205755       6.28188190        8       1.00000000       0.02116129       0.05124013      -0.15890037
Pt       3.80080259       2.25143305       6.21291293        7       0.00000000      -0.01754725       0.06298739       0.48673093
Ni       6.34030522       2.17062921       6.31770053        8       1.00000000      -0.02679861       0.00012546       0.01677158
Pt       8.88182156       2.21857171       6.20791714        7       0.00000000       0.00799371      -0.09918463       0.73153564
Ni       2.51045077       4.35046901       6.27053685        8       1.00000000       0.05472657      -0.02766558      -0.31407936
Ni       5.07972347       4.35482048       6.30694781        8       1.00000000      -0.10621744       0.03559948      -0.17357251
Ni       7.54837775       4.29568331       6.31772478        8       1.00000000      -0.05834312      -0.00934870      -0.09465267
Ni      10.21093504       4.28932925       6.29070318        8       1.00000000       0.07245802      -0.02000632      -0.25127205
Ni       3.79871023       6.37617468       6.28302889        8       1.00000000      -0.01223251      -0.07565328      -0.18740881
Ni       6.30426991       6.39424604       6.27279814        8       1.00000000      -0.01096378       0.05160352      -0.25555237
Pt       8.86758626       6.33917242       6.28485042        8       0.00000000       0.01017797       0.02731741       0.05961618
Ni      11.43152837       6.38153884       6.27469514        8       1.00000000       0.00660516       0.08318685      -0.20559391
