3
Lattice="15.0 0.0 0.0 0.0 15.0 0.0 0.0 0.0 15.0" Properties=species:S:1:pos:R:3:initial_magmoms:R:1:forces:R:3 energy=-14.132852554321289 free_energy=-14.132852554321289 stress="-5.693215191643467e-06 0.0 2.6416446777627107e-09 0.0 0.0 -3.311369217346711e-11 2.6416446777627107e-09 -3.311369217346711e-11 -1.111431231880646e-06" pbc="T T T"
O        7.50000010       7.50000000       7.19466827       0.00000000       0.00001492      -0.00000000      -0.00619978
H        8.26735553       7.50000000       7.79966583       0.00000000       0.01251255      -0.00000000       0.00309402
H        6.73264437       7.50000000       7.79966590       0.00000000      -0.01252747      -0.00000000       0.00310579
