64
Lattice="10.340015335854664 -0.01870671587008447 0.02553433021923133 5.153807176762465 8.871762876591326 -0.007847601142728184 0.02084869332028194 -0.019435788012810592 8.813248912079077" Properties=species:S:1:pos:R:3:tags:I:1:initial_magmoms:R:1:forces:R:3 unique_id=7169f12559014d8b835df498814e0e3e stress="0.000220147058048549 3.703407438290871e-06 -1.2019566607794422e-05 3.703407438290871e-06 0.00022697370972760839 9.929055746327054e-06 -1.2019566607794422e-05 9.929055746327054e-06 0.00021711113813788208" energy=-398.074406977443 pbc="T T T"
Ni       0.00306599       0.02136558       0.18011733        4       1.00000000       0.04305941       0.07903701       0.24108093
Ni       2.58426734       0.00143828       0.21570925        4       1.00000000       0.01684377       0.01478586       0.40099377
Ni       5.16691298      -0.02124859       0.17710963        4       1.00000000      -0.03123333       0.13442060       0.25623798
Ni       7.76253864      -0.05794290       0.20494829        4       1.00000000      -0.02770650      -0.12033614       0.37302694
Ni       1.25988297       2.22193102       0.10086411        4       1.00000000      -0.13076611       0.00312397       0.19284487
Pt       3.80769677       2.21687419       0.11383082        4       0.00000000      -0.06239425       0.04114402      -0.13363032
Pt       6.48332829       2.15950015       0.20571168        4       0.00000000       0.08361574      -0.06132884       0.21138825
Ni       9.08696737       2.20457086       0.16411553        4       1.00000000       0.12786951       0.04192595       0.12417752
Ni       2.55716644       4.44925813       0.04792285        4       1.00000000      -0.05702870       0.00870381      -0.09446040
Ni       5.15626152       4.43503298       0.16058715        4       1.00000000       0.18879565      -0.09239656       0.22070392
Pt       7.82864733       4.43758208       0.11569705        4       0.00000000       0.15989101       0.00815984      -0.12856107
Ni      10.36176102       4.41248432       0.08503529        4       1.00000000       0.10127583      -0.07464134       0.07104723
Ni       3.83113571       6.67042702       0.08204788        4       1.00000000      -0.07613320       0.09146322       0.09298452
Pt       6.43009069       6.69713906       0.19662902        4       0.00000000      -0.04900038       0.01601248       0.14956631
Ni       9.05992890       6.65753147       0.08368316        4       1.00000000       0.00667595       0.02795525       0.02448960
Ni      11.63933920       6.63927680       0.07346940        4       1.00000000       0.09762195      -0.01860465      -0.00870637
Ni       1.30923672       0.76061504       2.17200868        3       1.00000000       0.00087213       0.16950795      -0.07343954
Ni       3.86834856       0.75438879       2.21502616        3       1.00000000       0.00501555       0.08066406       0.06802902
Ni       6.46062859       0.73930730       2.25915506        3       1.00000000      -0.01667243       0.10612782       0.16158644
Pt       9.05817940       0.76509152       2.20493322        3       0.00000000      -0.01592691       0.11343512       0.13080265
Ni       2.56308968       2.92303562       2.21461574        3       1.00000000      -0.10453522       0.00333630      -0.05281881
Ni       5.15982478       2.91979286       2.25205834        3       1.00000000      -0.11902629      -0.12772291       0.03802335
Ni       7.78495429       2.95639259       2.25630513        3       1.00000000       0.18239465       0.04549021      -0.06681046
Ni      10.34037911       2.92695267       2.23263500        3       1.00000000       0.03426398       0.00638529       0.05971026
Pt       3.88356641       5.14855896       2.16025887        3       0.00000000      -0.07082498      -0.06406610      -0.04583575
Ni       6.49515297       5.15479567       2.22490279        3       1.00000000       0.11481159       0.02669444      -0.07510623
Ni       9.01872389       5.13768205       2.25115566        3       1.00000000      -0.03479906      -0.07330661       0.14792992
Pt      11.60744472       5.08943046       2.19037586        3       0.00000000      -0.04078079      -0.08993246       0.01395606
Ni       5.15231748       7.40589530       2.19367455        3       1.00000000      -0.12066999       0.02286931      -0.07793804
Ni       7.74866261       7.38273726       2.20729896        3       1.00000000       0.03389282      -0.07251276      -0.02668902
Pt      10.30790967       7.39029308       2.12390812        3       0.00000000       0.00668531      -0.13140511      -0.03935394
Ni      12.92432046       7.37218922       2.18348328        3       1.00000000      -0.01234833      -0.09369669      -0.03797640
Ni       0.00517367       1.54404557       4.35207433        2       1.00000000       0.02581909       0.17910975      -0.12682552
Pt       2.58312269       1.58483893       4.33116389        2       0.00000000      -0.02808597      -0.01190241      -0.07501707
Ni       5.16743293       1.49080109       4.34740390        2       1.00000000      -0.02325357       0.05171669      -0.14857545
Ni       7.78844209       1.48193757       4.35912031        2       1.00000000       0.07251652       0.01439698      -0.06220510
Ni       1.29184244       3.68406054       4.40138631        2       1.00000000      -0.04470326       0.00913884      -0.07648174
Ni       3.85270496       3.68604485       4.37802105        2       1.00000000      -0.03016397       0.06548540      -0.17346943
Pt       6.51772883       3.65379376       4.27498240        2       0.00000000      -0.02506058      -0.11310647       0.07204365
Ni       9.06628157       3.65155113       4.35893004        2       1.00000000       0.06631646      -0.12778874      -0.28856021
Ni       2.56765539       5.85330536       4.41756157        2       1.00000000      -0.05494304      -0.11153694      -0.04028463
Pt       5.13876298       5.85977564       4.32784072        2       0.00000000       0.08873286       0.00315820       0.02957315
Ni       7.78302394       5.85343310       4.35531314        2       1.00000000       0.02348759      -0.04504306      -0.22417669
Pt      10.33164374       5.78810171       4.45768941        2       0.00000000      -0.03411523      -0.00190991      -0.06128607
Pt       3.85977742       8.13359449       4.32087958        2       0.00000000      -0.08007685       0.00354951       0.10843168
Pt       6.45738302       8.15164382       4.25130560        2       0.00000000      -0.05888216       0.06297091      -0.01170449
Pt       9.02855704       8.10928192       4.33129189        2       0.00000000      -0.05770058       0.06016415       0.07401796
Pt      11.63823881       8.12681838       4.32797437        2       0.00000000       0.04629731       0.01656611       0.04534578
Pt       0.02598541       0.00296250       6.59699963        1       0.00000000      -0.01003661       0.02449768       0.10819138
Pt       2.60599145       0.04096547       6.62856955        1       0.00000000       0.01099717       0.15307945       0.24401015
Pt       5.16812442      -0.08227113       6.61243502        1       0.00000000      -0.02241499      -0.19557841       0.08077279
Pt       7.76889994      -0.10083098       6.64007321        1       0.00000000       0.01639752      -0.11744327       0.18710084
Ni       1.32319605       2.28218679       6.52742920        1       1.00000000       0.05062635       0.24576382      -0.13133582
Ni       3.84818235       2.23595577       6.46682660        1       1.00000000      -0.08093067       0.05236872      -0.26403123
Pt       6.46540020       2.20511425       6.48494478        1       0.00000000      -0.01237629       0.05087796      -0.22370369
Pt       9.12227890       2.29481566       6.53443529        1       0.00000000       0.07232353       0.08178687       0.01847440
Ni       2.53876962       4.42441380       6.51166806        1       1.00000000      -0.21633799       0.00199531      -0.26332834
Pt       5.06275378       4.40223653       6.57925925        1       0.00000000      -0.19192236       0.01810099       0.08643017
Ni       7.80584362       4.43625683       6.46427445        1       1.00000000       0.07885077       0.02853718      -0.32419625
Ni      10.38208785       4.42503229       6.56130188        1       1.00000000       0.14430493       0.04644645      -0.02570548
Ni       3.83014770       6.59977725       6.53947719        1       1.00000000      -0.12122727      -0.08952405      -0.15658107
Pt       6.51820618       6.58294128       6.50209377        1       0.00000000       0.06399082      -0.03736986      -0.24689948
Ni       9.07663450       6.56878096       6.55645129        1       1.00000000       0.04267079      -0.15219426      -0.11796980
Ni      11.64533365       6.55019648       6.56261342        1       1.00000000       0.05516130      -0.18760596      -0.12930761
