64
Lattice="10.553924891290379 2.690757072330645e-05 0.02550839373658863 5.276985748284988 9.117885385586169 -0.022937782286021894 0.0 0.0 21.822507995788218" Properties=species:S:1:pos:R:3:tags:I:1:initial_magmoms:R:1:forces:R:3 unique_id=dccdb6582be146a4b9845217dd592329 energy=-389.3322590703114 stress="0.0029998388945226308 -0.0002660339471784605 8.498944538382284e-06 -0.0002660339471784605 0.0032179598342991864 -7.282261737629199e-05 8.498944538382284e-06 -7.282261737629199e-05 -0.003335667213048966" pbc="T T T"
Pt       0.01581562       0.03012090       0.00779803        0       0.00000000      -0.09632943      -0.11197328      -0.19467866
Ni       2.64756369       0.00793112       0.06605967        1       1.00000000      -0.03129125      -0.03212312       0.28064362
Pt       5.24859973       0.04077411       0.03052948        0       0.00000000       0.13805500       0.03723294      -0.06647173
Pt       7.89346097       0.06304206       0.12734374        1       0.00000000      -0.04990937       0.06654081      -0.66982533
Pt       1.34182622       2.25562515       0.00000000        0       0.00000000       0.02166812       0.12415584      -0.02017707
Ni       3.96266041       2.26671533       0.16150397        2       1.00000000      -0.00410116       0.05393623       0.00681038
Ni       6.61885169       2.28921803       0.15842208        2       1.00000000       0.07056254      -0.04719193       0.11071387
Ni       9.21615773       2.30450242       0.09123439        1       1.00000000      -0.05453896      -0.01091746       0.37884634
Pt       2.61942188       4.56154124       0.13283037        1       0.00000000      -0.10500257       0.02013376      -0.64037768
Pt       5.34221674       4.48115265       0.13026642        1       0.00000000       0.10477520       0.10294832      -0.48015502
Ni       7.92676941       4.52750800       0.15199550        2       1.00000000       0.00005400       0.04577020       0.18404424
Pt      10.50101704       4.54840848       0.07855878        1       0.00000000       0.00784114       0.07440849       0.03897268
Pt       3.93676908       6.83820144       0.09759626        1       0.00000000       0.10264966       0.00180517      -1.00958736
Pt       6.64347353       6.81355815       0.12877544        1       0.00000000      -0.09911896      -0.22005577      -0.72358519
Pt       9.25109002       6.82918648       0.03460489        0       0.00000000       0.06818726      -0.08860665       0.02852341
Ni      11.85743314       6.83617912       0.14412969        1       1.00000000      -0.05240836       0.04337767       0.01279371
Pt       1.32442771       0.75448177       2.33319538        3       0.00000000       0.06954502      -0.03794933       0.13030361
Pt       3.95666931       0.72856193       2.29405507        3       0.00000000      -0.00881541      -0.18846737       0.16955308
Pt       6.60761653       0.76162262       2.37873003        4       0.00000000      -0.06123943       0.07236500       0.36056314
Pt       9.23972439       0.81359247       2.37449812        4       0.00000000       0.03679103       0.15301653       0.23545102
Pt       2.63283974       3.05762718       2.34022589        3       0.00000000      -0.07574226      -0.04653488       0.28878989
Pt       5.31791703       3.05631589       2.36016726        4       0.00000000       0.03561588      -0.11161446       0.36836724
Pt       7.92585958       3.13212821       2.33985078        3       0.00000000      -0.00481167       0.06370405       0.13305077
Pt      10.52981814       3.11455164       2.36545164        4       0.00000000      -0.00232174       0.11878309       0.17028649
Pt       3.96642676       5.28880356       2.35548241        4       0.00000000       0.02400504       0.04833719       0.33978933
Ni       6.64913559       5.29461400       2.32272105        3       1.00000000       0.10935982      -0.01950525       0.33778625
Ni       9.22723630       5.30798109       2.35326978        4       1.00000000       0.00276658       0.00129629       0.31949517
Ni      11.84128162       5.30941851       2.32224771        3       1.00000000      -0.05022483      -0.06384078       0.26249912
Pt       5.29207652       7.56695446       2.31995504        3       0.00000000      -0.05225969       0.05589871       0.28576937
Pt       7.94951608       7.49264814       2.36439128        4       0.00000000       0.10503963      -0.01932150       0.27290559
Pt      10.56302970       7.48595307       2.36356920        4       0.00000000      -0.05184276      -0.11696823       0.23865624
Pt      13.14818442       7.56286090       2.32819734        3       0.00000000      -0.00782244      -0.07350421       0.22427859
Ni      -0.03584510       1.53910392       4.60337039        6       1.00000000      -0.20597498       0.14154357      -0.05512667
Pt       2.62886945       1.53070972       4.60230197        6       0.00000000       0.02543483       0.08880262      -0.14090527
Pt       5.34731125       1.51874850       4.58745865        6       0.00000000       0.08158961       0.04391810      -0.10842751
Ni       7.95781969       1.55856460       4.57317080        6       1.00000000       0.09764292       0.26932015      -0.15028525
Pt       1.20315680       3.78929247       4.57497925        6       0.00000000      -0.24386029      -0.00770154      -0.13924444
Ni       3.97254107       3.76787837       4.55495503        6       1.00000000      -0.01429970      -0.00016208      -0.27402162
Ni       6.66727202       3.78207087       4.53806835        5       1.00000000       0.23354030      -0.05448876      -0.22647905
Ni       9.21962854       3.79092474       4.56483145        6       1.00000000      -0.13477394      -0.01699777      -0.15977876
Pt       2.56440176       6.06401025       4.50436828        5       0.00000000      -0.14551765       0.05339149      -0.30071858
Pt       5.36939273       5.98412846       4.49381256        5       0.00000000       0.11807915      -0.09260141      -0.32044692
Ni       7.97213093       6.00193502       4.52929239        5       1.00000000       0.16770357      -0.22435891      -0.34148895
Ni      10.51771876       6.03353284       4.54963578        5       1.00000000      -0.18731610      -0.12717271      -0.19780555
Pt       3.95564951       8.41930071       4.52630135        5       0.00000000       0.01691625       0.01322270      -0.30066107
Pt       6.61762618       8.36937609       4.57667444        6       0.00000000      -0.00145120       0.06801059      -0.15540608
Pt       9.28947802       8.26318418       4.64082534        6       0.00000000      -0.02433517      -0.02407584      -0.12087721
Ni      11.87214017       8.34054677       4.56637621        6       1.00000000       0.00071305      -0.01212923      -0.28787887
Ni       0.03787806       0.03955632       6.67956750        7       1.00000000       0.02374159       0.13950483      -0.03249334
Ni       2.64881160      -0.01800179       6.78485690        8       1.00000000      -0.06150924      -0.01862779      -0.30887007
Ni       5.27346188      -0.03621890       6.70512843        7       1.00000000       0.06331650      -0.00150040       0.14065996
Pt       7.92996370       0.02760163       6.70100984        7       0.00000000      -0.10213840       0.03938550       0.58142938
Ni       1.27284924       2.22259534       6.67780492        7       1.00000000      -0.14926863      -0.05892697      -0.02033514
Pt       3.93113212       2.16945642       6.82250800        8       0.00000000      -0.05790236       0.10491868       0.18254103
Pt       6.66187217       2.25537244       6.79250589        8       0.00000000       0.11602487       0.05575913       0.02873624
Ni       9.28843131       2.25511223       6.75143112        8       1.00000000       0.11516821      -0.01674790      -0.63886400
Pt       2.59142198       4.49208637       6.69538240        7       0.00000000       0.04379343      -0.14836467       0.61560487
Pt       5.30873822       4.50603616       6.67890689        7       0.00000000       0.00596244      -0.12360233       0.60450894
Pt       8.04251568       4.53244852       6.71922224        7       0.00000000       0.07908324       0.11595642      -0.34068901
Ni      10.54454338       4.51785356       6.70365725        7       1.00000000      -0.04998888       0.03384774      -0.14831112
Pt       3.98507488       6.85120994       6.68431003        7       0.00000000       0.03644609       0.01901049       0.74124694
Pt       6.69672362       6.86395942       6.70375251        7       0.00000000       0.22176182      -0.07052654       0.59349612
Ni       9.25548653       6.81376270       6.68773019        7       1.00000000      -0.03835509      -0.11299354       0.04621241
Pt      11.76657625       6.82590128       6.75688518        8       0.00000000      -0.11936188       0.02925031      -0.13935654
