64
Lattice="10.327262294582948 -0.00029642152392537547 0.004276231988807242 5.163374438721528 8.89494996509024 -0.0010865644672540724 0.0 0.0 21.54238713178932" Properties=species:S:1:pos:R:3:tags:I:1:initial_magmoms:R:1:forces:R:3 unique_id=2862ac6eb0914c128a49c04c9815c84b stress="0.00549899375438589 1.3722535676371697e-05 0.00037241146868123337 1.3722535676371697e-05 0.00557941887352116 0.00017096406007567988 0.00037241146868123337 0.00017096406007567988 -0.002161189400571705" energy=-375.79299607349554 pbc="T T T"
Ni      -0.02139407       0.02709766       0.14362567        1       1.00000000      -0.03372395       0.05686424      -0.01755754
Ni       2.58150220       0.00541179       0.14993915        1       1.00000000      -0.01400795       0.02286764      -0.10291514
Ni       5.16265406      -0.01144730       0.10370610        1       1.00000000       0.02322667       0.20542912      -0.36649012
Ni       7.77051417      -0.03365220       0.05664902        1       1.00000000       0.01229167      -0.03592441       0.38962669
Ni       1.27180060       2.21715621       0.10842168        1       1.00000000       0.00370060      -0.05629200      -0.07263649
Pt       3.81383778       2.22538337       0.05122963        1       0.00000000       0.02835856      -0.03028090      -0.07402430
Pt       6.48359832       2.16455445       0.13452410        1       0.00000000       0.04240107      -0.08475297      -0.53858923
Ni       9.05834770       2.18830650       0.09344852        1       1.00000000      -0.05300354      -0.11284312      -0.01660513
Ni       2.56248667       4.46368854       0.00000000        0       1.00000000      -0.07996419       0.00175685       0.17341091
Ni       5.15763891       4.45043537       0.09854719        1       1.00000000       0.17729933      -0.08016660      -0.32752375
Pt       7.81950430       4.45813310       0.04587441        0       0.00000000       0.02726669      -0.05984541      -0.01461988
Ni      10.35631837       4.45867550       0.00137791        0       1.00000000       0.07839085      -0.00112770       0.24686145
Ni       3.84032844       6.70235836       0.11329532        1       1.00000000      -0.04491126       0.18019083      -0.19048766
Pt       6.43424039       6.72492184       0.14031380        1       0.00000000      -0.05481786       0.04751216      -0.59592780
Ni       9.06083748       6.68514026       0.01643685        0       1.00000000      -0.06268289      -0.00736624       0.14355626
Ni      11.63277845       6.68044313       0.00195969        0       1.00000000       0.12322319       0.03170967       0.24124123
Ni       1.29104947       0.73056536       2.10140008        2       1.00000000      -0.01387861      -0.00328804       0.02720300
Ni       3.86583677       0.75985848       2.14542084        2       1.00000000       0.03613251       0.06564900       0.21237391
Ni       6.48168965       0.74368282       2.18510148        3       1.00000000       0.09209333       0.05529163       0.24024992
Ni       9.01412963       0.72985401       2.12392151        2       1.00000000      -0.12930079       0.02828627       0.02730945
Ni       2.58536971       2.94936587       2.14604893        2       1.00000000      -0.02889494       0.02777364       0.10781324
Ni       5.15915143       2.93601584       2.17942802        3       1.00000000      -0.07630525      -0.14899280       0.23736020
Ni       7.75810028       2.94524348       2.17854845        3       1.00000000       0.08722615      -0.09029523       0.15180083
Pt      10.29199538       2.91188846       2.16788705        3       0.00000000      -0.02174287       0.03294399       0.09944354
Pt       3.88831062       5.16614006       2.10029811        2       0.00000000       0.00803048      -0.07717737       0.02592424
Ni       6.49375799       5.17613669       2.15900175        3       1.00000000       0.12699594      -0.03779666       0.16092036
Ni       9.00862737       5.19092391       2.19172105        3       1.00000000      -0.07489383      -0.04836257       0.27374264
Pt      11.61056399       5.17861719       2.15548152        3       0.00000000      -0.06909767      -0.05741736       0.06958414
Ni       5.14271616       7.45661897       2.12466212        2       1.00000000      -0.09807345       0.08438822       0.05402179
Ni       7.74973873       7.41177973       2.14605767        2       1.00000000       0.05724389      -0.06281882       0.10603742
Pt      10.30504470       7.42883973       2.06473981        2       0.00000000      -0.01181122      -0.01642266      -0.06154018
Ni      12.92292428       7.44669724       2.10657866        2       1.00000000      -0.05680935       0.06694735      -0.04298373
Ni      -0.01633702       1.53605873       4.28852441        5       1.00000000       0.02875138       0.11446422      -0.11361151
Pt       2.60549363       1.58134378       4.22186822        4       0.00000000      -0.03974694       0.05159981      -0.08604518
Ni       5.16357279       1.49782801       4.26602281        5       1.00000000      -0.00073034       0.02451304      -0.35072818
Ni       7.76837921       1.49575000       4.25749711        5       1.00000000       0.09222543       0.03437791      -0.35762157
Ni       1.27300706       3.75935883       4.32144210        5       1.00000000      -0.09377760       0.05050784      -0.06979891
Ni       3.84827087       3.70701038       4.30376222        5       1.00000000       0.01308269       0.07222839      -0.16707540
Pt       6.51655022       3.67115905       4.20190709        4       0.00000000       0.02675942      -0.04810279      -0.04498077
Ni       9.07105029       3.73385748       4.30419785        5       1.00000000       0.12797025       0.03476943      -0.16609179
Ni       2.53346169       5.87312788       4.32945179        5       1.00000000      -0.03995850      -0.11455175      -0.05517536
Pt       5.14470919       5.89617745       4.24412158        4       0.00000000      -0.01823937       0.02277571      -0.10372786
Ni       7.81442758       5.87554284       4.27999274        5       1.00000000       0.12410071      -0.08530685      -0.27426486
Ni      10.32356403       5.86635142       4.35366411        6       1.00000000      -0.00831342      -0.05915704      -0.08931240
Pt       3.84839442       8.20981052       4.21296059        4       0.00000000       0.01980360       0.10534965      -0.06183899
Pt       6.45669526       8.18299863       4.18896505        4       0.00000000      -0.02940361       0.14718006      -0.13134249
Pt       9.04356654       8.09440642       4.27008314        5       0.00000000      -0.04633751      -0.04837851      -0.00870779
Pt      11.63849877       8.14044094       4.28927633        5       0.00000000       0.01175675      -0.02076516      -0.02203753
Pt      -0.03357064       0.01009107       6.52072149        8       0.00000000       0.14568753       0.12109253       0.24366698
Pt       2.62170171       0.01333285       6.54238713        8       0.00000000      -0.01614478       0.02885131       0.36617770
Pt       5.20744317      -0.07667783       6.52890650        8       0.00000000      -0.03347427      -0.03373104       0.41347734
Ni       7.73636688      -0.01151905       6.47981508        8       1.00000000      -0.00568709       0.04476348      -0.07425912
Pt       1.32114383       2.34361864       6.48494640        8       0.00000000      -0.13679947      -0.03559894       0.01069403
Ni       3.87014115       2.23658406       6.38884805        7       1.00000000       0.08261189      -0.10983038       0.11471719
Pt       6.45899545       2.18661528       6.39952306        7       0.00000000      -0.03604668      -0.06698908       0.56030699
Pt       9.03284055       2.29883106       6.44110944        7       0.00000000       0.05969740       0.12559490       0.00806312
Ni       2.53806424       4.46362069       6.43629080        7       1.00000000      -0.06290539       0.13232087      -0.24211805
Pt       5.09725094       4.38980137       6.49452227        8       0.00000000      -0.10247563      -0.00592832       0.28245916
Ni       7.80001399       4.46138948       6.37715836        7       1.00000000       0.04299405       0.04007751      -0.02264565
Ni      10.33092666       4.51265376       6.43149552        7       1.00000000      -0.02962173       0.03741458      -0.36272530
Pt       3.74322265       6.65320058       6.51158754        8       0.00000000       0.03939424      -0.11730052       0.10272505
Pt       6.53122457       6.60382764       6.42361501        7       0.00000000      -0.00336737      -0.10022964       0.60489859
Ni       9.08563728       6.59693954       6.45448842        8       1.00000000       0.00340457      -0.06567344      -0.21858434
Ni      11.58386913       6.60615280       6.46003686        8       1.00000000      -0.11517148      -0.17277750      -0.25107340
