64
Lattice="10.218947090555215 0.0014307545690474472 0.01193630183872673 5.110712615080986 8.841367753621768 -0.03337495600204909 0.009745949640241737 -0.03709303692943763 8.750042128017771" Properties=species:S:1:pos:R:3:tags:I:1:initial_magmoms:R:1:forces:R:3 unique_id=53de6244f2004029b7ed471f4d1d21c6 stress="0.00011812086640640429 1.4044960789423862e-06 -4.128604509898365e-06 1.4044960789423862e-06 0.0001352020791045086 3.69499243295811e-05 -4.128604509898365e-06 3.69499243295811e-05 0.00013572524194691016" energy=-393.9042025889217 pbc="T T T"
Ni       0.01215481       0.03720123       0.15835253        4       1.00000000       0.15744228       0.13559316       0.26218065
Ni       2.57625783       0.03280800       0.20765591        4       1.00000000       0.06742912       0.06716176       0.30502014
Ni       5.08788727      -0.01679360       0.07664321        4       1.00000000      -0.04586991      -0.00713752       0.09416801
Ni       7.67046013      -0.02246886       0.05677892        4       1.00000000      -0.01001292       0.00368394       0.05685499
Ni       1.28223650       2.21558402       0.18346636        4       1.00000000       0.02410989       0.05761941       0.24000960
Ni       3.79992983       2.20777345       0.18848313        4       1.00000000      -0.05011453      -0.02902654       0.21959565
Pt       6.38977472       2.24510210       0.13371700        4       0.00000000      -0.02479721       0.01194385       0.39335535
Ni       8.97938243       2.24081331       0.06975782        4       1.00000000       0.13302103       0.09487474       0.01507833
Ni       2.56235722       4.40215010       0.06182671        4       1.00000000       0.00769802      -0.13223392       0.03058723
Ni       5.05904569       4.41011129       0.14994019        4       1.00000000      -0.20102458      -0.04768969       0.25340456
Ni       7.73101598       4.40675320       0.06169570        4       1.00000000       0.27535391      -0.05028736       0.03068325
Ni      10.21238968       4.40128189       0.06407031        4       1.00000000       0.03110270      -0.10067527       0.01042762
Ni       3.80525251       6.60351522       0.01924879        4       1.00000000      -0.01949925      -0.16023894      -0.03405304
Pt       6.43200505       6.63016388      -0.02945410        4       0.00000000       0.05774941      -0.01438714      -0.31404302
Ni       8.96182606       6.61145844       0.11941281        4       1.00000000       0.05033714      -0.11986421       0.16035116
Ni      11.49237931       6.61556010       0.01706797        4       1.00000000      -0.08767971      -0.12749306      -0.11270240
Ni       1.32242812       0.77463709       2.15615104        3       1.00000000      -0.01970561       0.08500473       0.05742654
Ni       3.79587817       0.75173432       2.17389147        3       1.00000000       0.02362860      -0.01682202       0.04880091
Pt       6.32955104       0.77338078       2.28749042        3       0.00000000      -0.05781968       0.18073210      -0.00858090
Pt       8.98546928       0.84027480       2.18944814        3       0.00000000      -0.02887437      -0.01023746       0.02523384
Ni       2.57596046       2.92479910       2.15965149        3       1.00000000      -0.00477281       0.05302332      -0.00678467
Ni       5.03027670       2.95098970       2.20686540        3       1.00000000      -0.14736303      -0.01770210       0.13628193
Ni       7.72751755       2.97568461       2.20329409        3       1.00000000       0.15187733       0.05260478       0.00428740
Ni      10.22556123       2.94951511       2.20153714        3       1.00000000       0.02300233      -0.02131068       0.12109720
Ni       3.82989543       5.08209281       2.18476252        3       1.00000000      -0.06100465      -0.06397098       0.10158204
Pt       6.43337318       5.10332471       2.17398931        3       0.00000000       0.05195726       0.04366230      -0.13044625
Ni       8.94386144       5.10361051       2.18742621        3       1.00000000       0.06049760      -0.12843027       0.06346283
Pt      11.48556868       5.04152687       2.19763057        3       0.00000000       0.01716663      -0.03225097      -0.03405776
Pt       5.13354529       7.35156338       2.14776819        3       0.00000000      -0.00404467      -0.09743100      -0.19477490
Ni       7.68186446       7.37913644       2.16973591        3       1.00000000      -0.03925968      -0.00528410      -0.00013214
Pt      10.12719239       7.34203648       2.19563665        3       0.00000000      -0.08376175      -0.07611289       0.05905275
Pt      12.75569268       7.31320208       2.13547063        3       0.00000000      -0.05905314      -0.06967137      -0.09922032
Ni      -0.02142947       1.51902685       4.33796259        2       1.00000000       0.04587314       0.10067389      -0.00997708
Pt       2.57736148       1.51594696       4.23035970        2       0.00000000      -0.02120717       0.12658245       0.13546527
Ni       5.11121920       1.42479640       4.34939522        2       1.00000000      -0.11035988       0.01675253       0.11426502
Ni       7.70673863       1.46095084       4.34752775        2       1.00000000       0.12157828       0.08403620      -0.01518110
Ni       1.25858275       3.71001102       4.34127310        2       1.00000000      -0.04124992       0.01466627      -0.00036122
Ni       3.81516724       3.71534248       4.30369930        2       1.00000000      -0.03295880       0.12515453      -0.08436241
Pt       6.42235486       3.65713623       4.30312350        2       0.00000000      -0.02140279      -0.07656028       0.04740979
Ni       8.98887299       3.67424154       4.35240376        2       1.00000000       0.11981232       0.04177331      -0.10221913
Ni       2.53212223       5.82960506       4.37451914        2       1.00000000      -0.10512665      -0.08165801      -0.09311171
Ni       5.07641156       5.85824236       4.32958708        2       1.00000000      -0.11800968      -0.06581630      -0.17824759
Ni       7.72673766       5.85099611       4.32900205        2       1.00000000       0.24152339      -0.07191365      -0.17875085
Ni      10.24131098       5.84910497       4.34698626        2       1.00000000       0.05558041      -0.08574300      -0.08697041
Pt       3.74853561       8.06012017       4.36223788        2       0.00000000       0.01236810      -0.02771970       0.03726969
Pt       6.44116685       8.04067707       4.29406031        2       0.00000000       0.03571954       0.10718698       0.02588700
Ni       8.99705039       8.07119514       4.32311239        2       1.00000000      -0.00872699       0.00671679       0.04723163
Ni      11.45421491       8.07323527       4.38812726        2       1.00000000      -0.12091504      -0.11422954       0.01459005
Pt      -0.07569334      -0.03323243       6.56059587        1       0.00000000      -0.17639635       0.01717453       0.10194954
Pt       2.59632530      -0.05838361       6.55685756        1       0.00000000       0.02807850       0.03686934       0.24174822
Ni       5.16727182      -0.06960152       6.46832573        1       1.00000000       0.03131679      -0.10608157      -0.14972776
Ni       7.62370664      -0.07229432       6.49874317        1       1.00000000      -0.14903209      -0.18410127      -0.10227220
Pt       1.21412653       2.28999216       6.50476985        1       0.00000000       0.02250348       0.09900400       0.20621404
Pt       3.85837122       2.21682424       6.50815795        1       0.00000000      -0.04202871       0.11536969       0.13067110
Pt       6.47755217       2.12143136       6.41752081        1       0.00000000       0.04813030      -0.06043676      -0.23524007
Ni       8.93825199       2.22578171       6.46448250        1       1.00000000       0.01760277       0.14862182      -0.25553058
Ni       2.52299946       4.46873922       6.44418525        1       1.00000000      -0.11089600       0.16177777      -0.18141906
Pt       5.09538858       4.50099522       6.49527303        1       0.00000000       0.01179352       0.16156455       0.13811203
Ni       7.71243165       4.38988147       6.46585854        1       1.00000000       0.07111511      -0.04139100      -0.17802128
Ni      10.22323304       4.41438447       6.45115304        1       1.00000000       0.04135657       0.04993627      -0.22885866
Ni       3.77482997       6.59785960       6.45360696        1       1.00000000      -0.21196899       0.03178705      -0.17190460
Ni       6.39584370       6.58476544       6.35180855        1       1.00000000       0.08051251      -0.00922294      -0.54728048
Pt       9.01125784       6.53259275       6.44910312        1       0.00000000       0.05484966       0.04086578       0.06150350
Ni      11.53828065       6.60351555       6.43975189        1       1.00000000       0.04284892      -0.01928636      -0.25702726
