64
Lattice="10.205593369241337 0.00647249213408097 -0.0070009724199531905 5.108402027234577 8.79501943254126 -0.041852735475569315 -0.005716270044061098 -0.03615884737261004 8.734447513281768" Properties=species:S:1:pos:R:3:tags:I:1:initial_magmoms:R:1:forces:R:3 unique_id=78d684e6903649cbb951296edd58f276 stress="-5.874314683366327e-05 4.1872519158552086e-07 3.5266484180177038e-06 4.1872519158552086e-07 -4.9699829544627705e-05 9.92380225873833e-06 3.5266484180177038e-06 9.92380225873833e-06 -2.7977091522322917e-05" energy=-393.4889970127996 pbc="T T T"
Ni       0.00674729       0.02322321       0.18232701        4       1.00000000       0.03110072       0.08934319       0.30439154
Ni       2.54885071       0.00029731       0.21263719        4       1.00000000       0.03313667       0.00819754       0.37073977
Ni       5.10439804      -0.02078596       0.07245095        4       1.00000000       0.00186034       0.02428222       0.04832251
Ni       7.65590721      -0.01595703       0.14193303        4       1.00000000       0.02718910       0.00674891       0.27138889
Ni       1.23945015       2.20558620       0.09831878        4       1.00000000      -0.10849647       0.04376025       0.17185905
Pt       3.77532368       2.20450968       0.16739587        4       0.00000000      -0.06966639      -0.01896102       0.19344658
Pt       6.43107202       2.20407534       0.08187032        4       0.00000000       0.06858401       0.02453349      -0.01032084
Ni       8.97044171       2.23378843       0.12993363        4       1.00000000       0.10504006       0.09850064       0.18733366
Ni       2.54099713       4.41764271       0.04427380        4       1.00000000      -0.06048871       0.02450496       0.01502321
Ni       5.07707012       4.41311667       0.05248644        4       1.00000000      -0.08195428      -0.01298797       0.11119880
Ni       7.70777415       4.39527410       0.05850137        4       1.00000000       0.16419093      -0.00939533       0.13181741
Ni      10.19847801       4.38553652       0.04775029        4       1.00000000      -0.03943294      -0.05844260       0.03722400
Ni       3.81781427       6.57487597       0.03124892        4       1.00000000       0.00948499      -0.10623562      -0.01853563
Pt       6.37777891       6.61753166       0.01076750        4       0.00000000      -0.02535445      -0.03577976      -0.27559960
Ni       8.93797071       6.57620435       0.11511010        4       1.00000000      -0.09881882      -0.15062296       0.18067103
Ni      11.48416677       6.58356030       0.00213975        4       1.00000000      -0.03828581      -0.12877565      -0.14424035
Ni       1.29455387       0.74938163       2.14956054        3       1.00000000       0.00152979       0.11968971       0.00890780
Ni       3.82255547       0.74031197       2.19758880        3       1.00000000       0.08682241       0.04909184       0.06703066
Ni       6.35288432       0.76949212       2.22418376        3       1.00000000      -0.01774838       0.09495429       0.15189593
Pt       8.95650876       0.80862727       2.18044168        3       0.00000000      -0.07195596       0.01645877       0.15499217
Ni       2.54356023       2.92311323       2.19527811        3       1.00000000       0.00823806       0.04458412      -0.02731955
Ni       5.08529879       2.91203427       2.22544337        3       1.00000000      -0.08155665      -0.06853939       0.09571663
Ni       7.68135375       2.94520301       2.19690673        3       1.00000000       0.05692961       0.06759114       0.10253863
Ni      10.20557358       2.93062034       2.17930917        3       1.00000000       0.02353351       0.00575701       0.12258089
Ni       3.84101827       5.07571562       2.17156226        3       1.00000000       0.00502388      -0.14475340       0.02366534
Pt       6.38244623       5.11093784       2.18338342        3       0.00000000      -0.01986260       0.11385203      -0.12712334
Ni       8.92340622       5.08356066       2.17134950        3       1.00000000       0.01037734      -0.08556379       0.09189502
Pt      11.47360174       5.03482228       2.17464488        3       0.00000000      -0.00918617      -0.05673077       0.01879059
Ni       5.11476468       7.31891306       2.13703784        3       1.00000000      -0.03431778      -0.05557811      -0.08511831
Ni       7.64998130       7.33848983       2.13634870        3       1.00000000       0.02072423      -0.06171067      -0.01815442
Pt      10.17651519       7.33925062       2.09782542        3       0.00000000      -0.01703473      -0.01917211       0.01928070
Pt      12.78385328       7.29162666       2.10540757        3       0.00000000       0.08234797      -0.09631472      -0.01972288
Ni      -0.01640900       1.51145173       4.32655886        2       1.00000000      -0.03211041       0.11272861       0.01984417
Pt       2.51842328       1.54431159       4.24267643        2       0.00000000       0.03836742       0.08968801       0.13229432
Ni       5.14762922       1.44505575       4.30227224        2       1.00000000       0.01893210      -0.01914640      -0.12700024
Ni       7.63599308       1.46228452       4.31472969        2       1.00000000       0.01238319      -0.01575184      -0.05238250
Ni       1.24866292       3.68428206       4.36124382        2       1.00000000      -0.04508642       0.01483021       0.02396536
Ni       3.81425218       3.71819965       4.29424322        2       1.00000000      -0.08473869       0.09549482      -0.16346734
Pt       6.37715743       3.63381273       4.35165964        2       0.00000000       0.00132645      -0.02642091      -0.01508752
Ni       8.96285760       3.67786480       4.28944447        2       1.00000000       0.06683620       0.04771091      -0.18154063
Ni       2.53433532       5.79249004       4.36367570        2       1.00000000      -0.07491682      -0.08251830      -0.05959272
Ni       5.06259119       5.80254386       4.33956544        2       1.00000000      -0.13850916      -0.05250606      -0.13423759
Ni       7.68630417       5.80005098       4.31462376        2       1.00000000       0.19370683      -0.07435177      -0.11286632
Ni      10.23916117       5.79178899       4.32437775        2       1.00000000       0.02740051      -0.03279766      -0.08305891
Pt       3.78064348       8.00104202       4.30569714        2       0.00000000      -0.00734878      -0.05363618       0.16995079
Pt       6.37748242       7.98397652       4.21832006        2       0.00000000      -0.05801560       0.00120740       0.01979142
Pt       8.99712967       8.03784754       4.28468952        2       0.00000000      -0.00986702      -0.06747654       0.06724738
Ni      11.47551694       8.03801630       4.30104477        2       1.00000000       0.01444562      -0.09074365      -0.12393169
Pt      -0.01551287      -0.05156652       6.54504946        1       0.00000000       0.01347349      -0.05543050       0.16206938
Pt       2.57365520      -0.01636381       6.55941389        1       0.00000000      -0.02316170       0.05449205       0.27695215
Ni       5.11035790      -0.02575233       6.46826971        1       1.00000000      -0.05705249       0.01831632      -0.16436849
Pt       7.54466021      -0.05021955       6.50787462        1       0.00000000      -0.11021326      -0.01890007       0.12095761
Ni       1.27307274       2.23972351       6.45790424        1       1.00000000       0.06087478       0.12200116      -0.12602995
Pt       3.87829638       2.27190421       6.40135142        1       0.00000000       0.05089751       0.23528323      -0.28632426
Ni       6.37456188       2.19773329       6.38732918        1       1.00000000       0.02038492       0.04168253      -0.17220209
Pt       8.92481372       2.27954358       6.44536043        1       0.00000000      -0.00771151       0.14260591       0.02039814
Ni       2.53032782       4.41716201       6.42690385        1       1.00000000      -0.00516588       0.07859745      -0.19818441
Ni       5.10462025       4.42964685       6.44351135        1       1.00000000      -0.01139656       0.20119765      -0.09774559
Ni       7.61809715       4.38889112       6.44836627        1       1.00000000      -0.13434062       0.04002414      -0.07202358
Ni      10.26472417       4.37668790       6.42439410        1       1.00000000       0.24481622      -0.03187996      -0.18308013
Ni       3.81268324       6.49199644       6.43361489        1       1.00000000      -0.07614116      -0.13006877      -0.16803437
Ni       6.35479514       6.50458162       6.34686393        1       1.00000000       0.00371938      -0.05600656      -0.44480130
Pt       8.97820627       6.47224296       6.46735995        1       0.00000000       0.07631457      -0.09541514       0.09079813
Ni      11.50110035       6.52626138       6.41303389        1       1.00000000       0.06994344      -0.11509630      -0.29288516
