64
Lattice="10.29893119800241 0.003978287680309092 0.02567159192936326 5.152910897195911 8.870664488945536 -0.02000566630520684 0.020960767037296976 -0.03096322756682705 8.796762705604154" Properties=species:S:1:pos:R:3:tags:I:1:initial_magmoms:R:1:forces:R:3 unique_id=5a9fb3e8ffdb41d5bbb84022a1385ec7 stress="0.0002899225647911355 2.6041380023396286e-06 -1.5678613968527086e-05 2.6041380023396286e-06 0.00029634586015123143 1.4943679116774874e-05 -1.5678613968527086e-05 1.4943679116774874e-05 0.00027644925372577456" energy=-397.4016472699121 pbc="T T T"
Ni       0.01343172      -0.00278199       0.17663603        4       1.00000000       0.03902880       0.04164986       0.36752963
Ni       2.54547242       0.01361982       0.20455093        4       1.00000000      -0.06141561       0.07908776       0.42829211
Pt       5.14571612      -0.04755376       0.14794612        4       0.00000000      -0.00969143      -0.12284205       0.32206286
Ni       7.75130505      -0.05734310       0.20399023        4       1.00000000       0.02638599      -0.05588449       0.38287598
Ni       1.29016825       2.22102389       0.10417965        4       1.00000000       0.01849992       0.01367305       0.26934327
Pt       3.75577033       2.21924731       0.18212748        4       0.00000000      -0.07244087       0.06679376       0.13269675
Pt       6.45837848       2.19083298       0.11681129        4       0.00000000       0.04345380       0.02752501       0.00268913
Pt       9.11583516       2.21044025       0.13916134        4       0.00000000       0.10011707      -0.00534939       0.14885082
Ni       2.53508380       4.46183057       0.05137453        4       1.00000000      -0.04668239       0.02337625      -0.00101174
Pt       5.06796726       4.49388190       0.09855967        4       0.00000000      -0.11340981       0.08322254      -0.03681970
Pt       7.77232337       4.47682036       0.04166427        4       0.00000000       0.06590063       0.08317957      -0.12846758
Ni      10.36448065       4.45595015       0.07687655        4       1.00000000       0.13781730       0.05065171       0.09889212
Ni       3.80979289       6.68244328       0.09024707        4       1.00000000      -0.09139897       0.08123965       0.19570195
Pt       6.42875883       6.74845148       0.17301464        4       0.00000000      -0.02563807       0.05743339       0.08343039
Ni       9.03927888       6.64955876       0.15000260        4       1.00000000       0.00837032      -0.03852576       0.23726884
Ni      11.62990701       6.62079373       0.07850949        4       1.00000000       0.10693617      -0.06498349       0.08080010
Ni       1.32187545       0.74226965       2.23343755        3       1.00000000       0.03789558       0.04992143       0.17647390
Ni       3.82626740       0.76873006       2.26582359        3       1.00000000      -0.02288351       0.09505079       0.08651522
Ni       6.44572914       0.77071327       2.27184844        3       1.00000000      -0.06057601       0.06145893       0.12445666
Pt       9.03794887       0.72383930       2.27731362        3       0.00000000       0.06295816       0.16784024       0.01230683
Ni       2.57216114       2.92257265       2.28184390        3       1.00000000       0.04000207      -0.11231794       0.22899031
Ni       5.13326215       2.95187851       2.27062198        3       1.00000000      -0.17255189      -0.00169053       0.00183416
Ni       7.71003857       2.93688646       2.27177701        3       1.00000000       0.02814163      -0.08007136      -0.00295207
Ni      10.35523784       2.92824459       2.27804160        3       1.00000000       0.13965624      -0.10771383       0.17979398
Ni       3.88915642       5.17305756       2.25292612        3       1.00000000       0.07932456      -0.01829302       0.17783462
Ni       6.40594627       5.17779755       2.25962585        3       1.00000000      -0.05879510       0.07203515      -0.02545078
Pt       8.98455544       5.12288771       2.30245879        3       0.00000000      -0.09720784      -0.19178128      -0.10099264
Pt      11.67823283       5.10882817       2.23947557        3       0.00000000       0.12497211      -0.15227632       0.10831629
Ni       5.16230284       7.36023149       2.22932583        3       1.00000000       0.06619773      -0.12145294       0.05216849
Ni       7.68515123       7.42106555       2.23008646        3       1.00000000      -0.14505790      -0.00552699       0.06174287
Pt      10.31910016       7.36565622       2.21803304        3       0.00000000       0.04539573       0.01020963      -0.16952451
Ni      12.92188716       7.35884278       2.17746148        3       1.00000000       0.11293386      -0.15729803       0.01666896
Ni       0.06762439       1.50597173       4.33462666        2       1.00000000       0.15735452       0.06788706      -0.07339937
Ni       2.54346371       1.51776311       4.31548623        2       1.00000000      -0.07590098       0.13587441      -0.11599457
Ni       5.15061703       1.50341183       4.32140915        2       1.00000000      -0.12645074       0.04898796      -0.20927793
Ni       7.73091323       1.49453115       4.36260839        2       1.00000000       0.01572680       0.00118907      -0.06453573
Ni       1.30671163       3.66645751       4.38638410        2       1.00000000       0.04920846      -0.05713674      -0.02404962
Ni       3.84000788       3.71696567       4.31791696        2       1.00000000      -0.11925945       0.03779774      -0.25815448
Pt       6.43543216       3.68827672       4.34251484        2       0.00000000      -0.05189222      -0.02582169      -0.13397394
Ni       9.05703247       3.69865709       4.35950300        2       1.00000000       0.11352658      -0.08308851      -0.09627130
Ni       2.60462941       5.83031962       4.38864176        2       1.00000000       0.03294995      -0.15407475      -0.02774985
Ni       5.13606635       5.86026331       4.31597772        2       1.00000000      -0.02523675      -0.16113321      -0.20418529
Ni       7.72101768       5.87934616       4.34185146        2       1.00000000      -0.12832528       0.04983011      -0.08678196
Ni      10.34015470       5.83107641       4.40242425        2       1.00000000       0.15842836      -0.11800704       0.03983569
Pt       3.94147200       8.04556376       4.31591015        2       0.00000000       0.04135319      -0.13840135       0.25224482
Ni       6.44440937       8.12303728       4.29278451        2       1.00000000      -0.06398781       0.03122064      -0.14387691
Pt       8.93368219       8.13764899       4.29076816        2       0.00000000      -0.02949427       0.05876760       0.13628373
Pt      11.63407327       8.09094034       4.31355918        2       0.00000000       0.04841446      -0.02066694       0.13299206
Pt       0.01499254       0.00199364       6.54614780        1       0.00000000       0.03081453       0.08348552       0.13323860
Pt       2.56377709       0.02221817       6.55291201        1       0.00000000      -0.05562434       0.06352685       0.18247867
Pt       5.17114587       0.00821610       6.47605483        1       0.00000000       0.03109498       0.10370591      -0.39673704
Pt       7.73871315      -0.05464688       6.59592386        1       0.00000000      -0.08521203      -0.03830328       0.19219105
Ni       1.29954966       2.26871514       6.48194748        1       1.00000000       0.01570232       0.19203184      -0.23141553
Pt       3.85527119       2.32097335       6.41122699        1       0.00000000      -0.09331055       0.18787668      -0.22825832
Ni       6.45306640       2.24161789       6.44212320        1       1.00000000      -0.02677765       0.07502471      -0.25548200
Pt       9.03828684       2.30040475       6.41274891        1       0.00000000      -0.00820412       0.09686693      -0.30068862
Ni       2.55826466       4.45594792       6.47439205        1       1.00000000      -0.09010537       0.09628408      -0.27428874
Ni       5.13763250       4.42246893       6.42943641        1       1.00000000      -0.14349948       0.07749797      -0.29229457
Ni       7.72442936       4.39521914       6.41855048        1       1.00000000      -0.08509078      -0.02085249      -0.41607989
Ni      10.38052791       4.41110884       6.49689101        1       1.00000000       0.25974608      -0.02274527      -0.25038172
Ni       3.84089392       6.55669830       6.49432314        1       1.00000000      -0.07781926      -0.20646842      -0.13775284
Pt       6.40412580       6.54499945       6.40908615        1       0.00000000      -0.08179224       0.01125614      -0.22660807
Pt       9.08158888       6.51311185       6.51856218        1       0.00000000       0.04657168      -0.10313737       0.04572486
Ni      11.63681591       6.56097271       6.51981871        1       1.00000000       0.06085317      -0.09761545      -0.17906840
