64
Lattice="10.438296710523767 -0.0038320319460212896 0.10108433632208982 5.21582971824851 9.046056938705107 0.04781189908605748 0.0 0.0 21.692682571448948" Properties=species:S:1:pos:R:3:tags:I:1:initial_magmoms:R:1:forces:R:3 unique_id=e5c10c1b815b4707bfffb6cf2187246a stress="0.007245894056899197 7.054247656033308e-05 0.0006444555092400905 7.054247656033308e-05 0.007412363075793238 8.842555844947425e-05 0.0006444555092400905 8.842555844947425e-05 -0.0012825641097787763" energy=-382.6320563536635 pbc="T T T"
Pt      -0.07084600       0.01846378       0.05904899        1       0.00000000      -0.17559938      -0.13525967      -0.63358058
Ni       2.64542636      -0.01966042       0.00000000        0       1.00000000       0.04622271      -0.08660912       0.33283078
Ni       5.24518022      -0.03495870       0.09959671        1       1.00000000       0.09793562       0.09191474      -0.21125573
Ni       7.81880943      -0.04759400       0.08982101        1       1.00000000      -0.06485146      -0.05216904       0.48272810
Ni       1.30663594       2.26243461       0.06668075        1       1.00000000       0.10443123       0.05089699      -0.31985596
Pt       3.89811945       2.24586931       0.07832368        1       0.00000000       0.04417213       0.19771560      -0.65060942
Pt       6.56124084       2.18794959       0.10693725        1       0.00000000      -0.08671903      -0.09322748      -0.16541864
Ni       9.14520234       2.25493988       0.13971109        1       1.00000000      -0.05845260      -0.09114880      -0.07700664
Pt       2.59505874       4.55778914       0.03992432        0       0.00000000       0.04838132      -0.16141522      -0.93141693
Ni       5.24997470       4.52127757       0.09992625        1       1.00000000       0.14303063      -0.10105046      -0.04013862
Pt       7.91381788       4.53633530       0.04068282        0       0.00000000      -0.01829254       0.03557748       0.30995809
Ni      10.44757793       4.54894435       0.05513665        1       1.00000000       0.04847336       0.09801399       0.30022206
Ni       3.89789128       6.80949295       0.12074799        1       1.00000000      -0.04775676       0.08446727      -0.03292623
Pt       6.54804543       6.79745762       0.16489572        2       0.00000000      -0.01989562       0.04077358      -0.34388350
Ni       9.17428974       6.79709910       0.05882377        1       1.00000000      -0.01348184      -0.02468369       0.40695870
Ni      11.74412737       6.81628631       0.07289779        1       1.00000000       0.10677247       0.00916772       0.35190485
Pt       1.34361134       0.72036257       2.12391546        3       0.00000000       0.15951433      -0.00457033       0.14416693
Pt       4.00914469       0.76559841       2.20518484        4       0.00000000       0.09744864      -0.06341769       0.19769922
Ni       6.58477578       0.73560565       2.23561708        4       1.00000000       0.09623299      -0.01082848       0.16931867
Ni       9.08396614       0.73279259       2.23011064        4       1.00000000      -0.16284873       0.03854735       0.12726145
Ni       2.64545567       3.03217251       2.19090605        4       1.00000000       0.00343469       0.03755592       0.35533956
Ni       5.24303264       3.02339845       2.25705434        5       1.00000000       0.02983711       0.04690237       0.35053931
Pt       7.79516420       3.01679271       2.33668101        5       0.00000000      -0.03442945       0.08541814       0.19680343
Pt      10.41780670       3.03120461       2.17205132        4       0.00000000      -0.03280411       0.05610754       0.05889143
Pt       4.00682887       5.26221265       2.16625975        4       0.00000000       0.15654288       0.01460825       0.14902787
Ni       6.59152053       5.27152998       2.23307070        4       1.00000000       0.12020476      -0.06069270       0.22325481
Ni       9.11003678       5.29804998       2.27398363        5       1.00000000      -0.11234889       0.01699838       0.16832770
Pt      11.72124825       5.31339061       2.25011429        5       0.00000000      -0.04827434       0.06518421       0.11825491
Ni       5.21960817       7.52969566       2.19633336        4       1.00000000      -0.01105402      -0.04292627       0.26302747
Ni       7.86102254       7.48367570       2.22832432        4       1.00000000       0.09354878      -0.07417645       0.15204155
Pt      10.44615389       7.52381646       2.16899012        4       0.00000000      -0.02540756       0.06084835       0.03853010
Ni      13.08198332       7.58429324       2.22351672        4       1.00000000       0.00853349       0.06388390      -0.01355450
Pt      -0.05811271       1.56223974       4.30587782        6       0.00000000      -0.08378233       0.10098664      -0.25313825
Pt       2.69020763       1.54460462       4.34794163        6       0.00000000      -0.15864896      -0.06813635      -0.16094643
Ni       5.30437824       1.55329836       4.36096418        7       1.00000000       0.02242125       0.09598679      -0.33454402
Ni       7.83539349       1.53574745       4.39941916        7       1.00000000      -0.04430849       0.02098000      -0.24242917
Pt       1.26944469       3.80651114       4.35694766        7       0.00000000      -0.18956960      -0.02475578      -0.16890453
Ni       4.00322130       3.74263713       4.35957842        7       1.00000000       0.08143231      -0.03666029      -0.35047281
Ni       6.58751565       3.74714672       4.41041126        7       1.00000000       0.01090188       0.00557875      -0.16405321
Ni       9.11259694       3.83199374       4.46214949        8       1.00000000      -0.10706517       0.03897524      -0.16981807
Pt       2.61161442       6.05073435       4.35686192        7       0.00000000      -0.02397536       0.07629240      -0.16059638
Pt       5.33388701       5.94181764       4.33879800        6       0.00000000      -0.02708796      -0.11753569      -0.22540648
Ni       7.92504794       5.94561654       4.40909516        7       1.00000000       0.04983189      -0.13301531      -0.21268494
Ni      10.41654910       5.99912084       4.50500301        8       1.00000000      -0.02593186      -0.01737181      -0.06545688
Pt       3.92436484       8.31688841       4.29816971        6       0.00000000      -0.02456849      -0.01836936      -0.21775409
Pt       6.59239501       8.24077352       4.35923445        7       0.00000000      -0.00263672       0.07709127      -0.23665284
Pt       9.17460123       8.19900033       4.47732890        8       0.00000000      -0.02204024      -0.02154476      -0.06834216
Pt      11.76727714       8.35539521       4.44025315        7       0.00000000      -0.06478292       0.05855725      -0.07773286
Pt       0.04364433      -0.00279269       6.53402375        9       0.00000000       0.02405204       0.04367285       0.65568479
Ni       2.68012254      -0.02440609       6.60101514       10       1.00000000      -0.04119240      -0.00771132      -0.14420640
Pt       5.26660264      -0.11298568       6.69268257       11       0.00000000      -0.03550183       0.17214510      -0.01773533
Ni       7.86002917      -0.00707218       6.64052226       10       1.00000000       0.00161443       0.02338041      -0.28529357
Pt       1.34001530       2.26063386       6.64960343       10       0.00000000      -0.07102124      -0.00052881       0.23246235
Pt       3.97870671       2.22124183       6.52188703        9       0.00000000       0.18096363       0.10630828       0.71571252
Pt       6.60197726       2.22664260       6.50230437        9       0.00000000      -0.07310263      -0.06311632       0.35962773
Pt       9.16060342       2.34101312       6.68244345       11       0.00000000      -0.05095588       0.08570672      -0.05959990
Pt       2.59027350       4.55198494       6.53060910        9       0.00000000       0.23026047      -0.13224265       0.83888787
Pt       5.31541256       4.51995803       6.61995072       10       0.00000000      -0.02787140      -0.03547015       0.14472322
Ni       7.93168439       4.54374433       6.52904410        9       1.00000000      -0.00752952       0.02349998      -0.10133848
Ni      10.43329348       4.58588824       6.64674947       10       1.00000000      -0.10133774       0.05366367      -0.36144461
Pt       3.89421285       6.82690359       6.67431712       11       0.00000000       0.15272183      -0.06463983       0.02342889
Pt       6.70793288       6.76465527       6.59189536       10       0.00000000      -0.02507242      -0.11338573       0.27847933
Ni       9.22232619       6.72130021       6.64096087       10       1.00000000       0.03421346      -0.12356683      -0.32862263
Ni      11.74406321       6.76889332       6.67992167       11       1.00000000      -0.07293087      -0.09718079      -0.31927288
