64
Lattice="10.081612969246187 0.01908623815160835 -0.0032948340120007276 5.0573356517250705 8.74839051929604 -0.009370509361748054 0.0 0.0 21.39780748571047" Properties=species:S:1:pos:R:3:tags:I:1:initial_magmoms:R:1:forces:R:3 unique_id=9f2a4edd52aa4f6a89630b6f120a0c0c energy=-367.35049459933254 stress="0.0019599551508461942 3.111807104097014e-05 9.996260127325668e-05 3.111807104097014e-05 0.001729511781648865 1.0633048556594443e-05 9.996260127325668e-05 1.0633048556594443e-05 -0.00504238680350173" pbc="T T T"
Ni       0.02765197      -0.04877162       0.01950492        0       1.00000000      -0.00797917      -0.00485060       0.12061534
Ni       2.47288834       0.00952186       0.08078728        1       1.00000000       0.05452864       0.12620413      -0.47976239
Pt       5.06641420      -0.05666361       0.13480857        1       0.00000000      -0.08514708       0.00887826      -0.90394942
Ni       7.58024370      -0.04040195       0.09187058        1       1.00000000      -0.03869659      -0.09177547      -0.36952096
Ni       1.25645930       2.20978236       0.05276509        1       1.00000000      -0.03687504       0.06796422       0.13924792
Pt       3.75099176       2.26053292       0.12235695        1       0.00000000       0.02193314      -0.04224610      -0.82581113
Ni       6.30886455       2.24317886       0.05414174        1       1.00000000      -0.02430616      -0.02641804       0.09674967
Pt       8.83011179       2.25296043       0.08670399        1       0.00000000       0.02401134       0.17525973      -1.02844125
Ni       2.50342862       4.42275371       0.03578310        0       1.00000000       0.06588115       0.00611339       0.35723455
Ni       5.06712753       4.42929368       0.03521200        0       1.00000000      -0.11501840       0.02836928       0.20891161
Ni       7.53973729       4.42337519       0.04412418        0       1.00000000       0.08668755       0.00762233       0.17577652
Ni      10.12381260       4.42671345       0.04046036        0       1.00000000      -0.03531979      -0.05748014       0.30345441
Ni       3.79333299       6.54153912       0.02867367        0       1.00000000      -0.00538446       0.00527112       0.32842037
Ni       6.27982403       6.54453059       0.00000000        0       1.00000000      -0.03986211       0.00658214       0.12450995
Ni       8.84592767       6.50115184       0.11987691        1       1.00000000       0.13118788      -0.04941572      -0.53766198
Ni      11.38354709       6.52023201       0.04246150        0       1.00000000       0.00356058       0.05693279       0.30647705
Ni       1.28093030       0.77169766       2.07377400        3       1.00000000      -0.04370276       0.11594094       0.04887445
Ni       3.74099329       0.74371114       2.12397893        3       1.00000000      -0.10630795       0.00308240       0.19595506
Ni       6.31558333       0.73440388       2.11114322        3       1.00000000       0.04018644       0.03909638       0.10468469
Pt       8.80929857       0.66693957       2.12587290        3       0.00000000       0.06643200      -0.18484115       0.09439658
Ni       2.49065298       2.96437768       2.16719578        4       1.00000000      -0.01268870       0.07762647       0.09765485
Ni       5.05076263       2.97787379       2.09027626        3       1.00000000       0.01696613       0.06535917       0.06883053
Ni       7.54581789       2.96542712       2.12146283        3       1.00000000      -0.01357817      -0.00696154       0.14708380
Ni      10.13309386       2.99467347       2.11838379        3       1.00000000       0.06720643       0.07399255       0.10867025
Ni       3.77210294       5.10537484       2.09812118        3       1.00000000      -0.05828939      -0.03040623       0.04744204
Ni       6.27338644       5.09739137       2.04917398        2       1.00000000      -0.00844319       0.00942962       0.05883991
Ni       8.87148509       5.07044992       2.08338272        3       1.00000000       0.03472534      -0.04990465       0.09195147
Ni      11.36317245       5.11585866       2.10920052        3       1.00000000       0.02480196      -0.00992991       0.14322028
Ni       5.02423482       7.22371130       2.09281956        3       1.00000000      -0.08366346      -0.10310489       0.06692815
Pt       7.55543774       7.30904238       2.05999923        3       0.00000000      -0.07693486      -0.03542208      -0.00087292
Ni      10.14255604       7.23797536       2.16471426        4       1.00000000       0.04697065      -0.07459966       0.20037101
Ni      12.59725156       7.22794337       2.10209629        3       1.00000000      -0.01689239      -0.11202996       0.08933502
Pt       0.07092683       1.46080426       4.20155444        6       0.00000000       0.11187513      -0.06788143       0.00127852
Ni       2.52338159       1.47975329       4.15782700        6       1.00000000       0.04219945      -0.01622851      -0.24555908
Pt       5.02974142       1.42808873       4.10330254        5       0.00000000       0.10437885      -0.01965515      -0.14331713
Ni       7.55977188       1.43661895       4.19972762        6       1.00000000      -0.04766537      -0.06875001      -0.22526625
Ni       1.29502217       3.69310775       4.21681034        6       1.00000000       0.06387932       0.03125420      -0.09374634
Ni       3.72604512       3.72962639       4.16033794        6       1.00000000      -0.02534563       0.08041960      -0.14945056
Pt       6.28565142       3.65767382       4.21463107        6       0.00000000      -0.02803291      -0.05561846       0.00996259
Ni       8.88568415       3.69638304       4.16210468        6       1.00000000       0.10469686       0.05564603      -0.19192810
Ni       2.53284985       5.82255945       4.20500664        6       1.00000000      -0.00860336       0.03361545      -0.13850508
Ni       4.98274916       5.85477145       4.20914276        6       1.00000000      -0.01354201      -0.03358680      -0.15564015
Pt       7.57942824       5.85111249       4.20288161        6       0.00000000       0.01062449       0.04095775       0.05189641
Ni      10.16329296       5.82264401       4.18449974        6       1.00000000       0.04338306       0.03605243      -0.08872287
Ni       3.79851477       7.93518525       4.20237750        6       1.00000000      -0.02868917      -0.05170287      -0.08277416
Ni       6.26572940       7.99490371       4.19253708        6       1.00000000      -0.02665864      -0.03960039      -0.13058976
Ni       8.83960411       8.01036645       4.17081784        6       1.00000000       0.00509620      -0.01438697      -0.20867138
Ni      11.39598793       7.94760440       4.14401494        5       1.00000000       0.04717209      -0.08678222      -0.13919882
Ni      -0.00915864      -0.05794926       6.32009317        7       1.00000000      -0.11512787      -0.00893031      -0.07204137
Pt       2.41581315      -0.00273528       6.32062764        7       0.00000000       0.33704310       0.02216507       0.16757686
Pt       5.06451808      -0.01703183       6.26333952        7       0.00000000      -0.19861567      -0.19748048       0.99611749
Pt       7.62518885      -0.06731477       6.32602052        7       0.00000000       0.03929672       0.08583696       0.17250528
Ni       1.25457311       2.24509538       6.33104759        7       1.00000000       0.04351605       0.09789535      -0.01141839
Pt       3.75292314       2.32175563       6.25348819        7       0.00000000      -0.16424316      -0.04492105       0.75000115
Ni       6.30372552       2.22754044       6.34087808        7       1.00000000       0.03698645      -0.04469126       0.08974013
Pt       8.82373094       2.28261574       6.25411947        7       0.00000000      -0.19953340       0.02510962       1.13528119
Ni       2.50606054       4.44203057       6.29449671        7       1.00000000       0.10112620      -0.02543805      -0.28346553
Ni       5.04270162       4.44500280       6.33311836        7       1.00000000      -0.10701107       0.01988281      -0.17506742
Ni       7.50618063       4.38646194       6.35603327        8       1.00000000      -0.03399814      -0.02688326       0.05977032
Ni      10.16744839       4.38192303       6.30100453        7       1.00000000       0.00333603      -0.02765964      -0.19172375
Ni       3.81387912       6.49451121       6.29954772        7       1.00000000      -0.03993650      -0.01561723      -0.31547545
Ni       6.23372341       6.53430744       6.32114860        7       1.00000000       0.00268245       0.02351837      -0.14318158
Pt       8.85933756       6.45415624       6.39780749        8       0.00000000       0.08772633       0.21008218       0.39769310
Ni      11.40739446       6.50009759       6.29365152        7       1.00000000      -0.02400542       0.08903950      -0.22569533
