64
Lattice="10.056855418564334 0.002141049464388006 0.0311929975101844 5.030281912509087 8.701538334375249 -0.021135841268811448 0.0 0.0 21.364938648791302" Properties=species:S:1:pos:R:3:tags:I:1:initial_magmoms:R:1:forces:R:3 unique_id=0cf996f17e0b4fca858016e7b559b8d3 stress="0.003250756661278241 -7.24914265257436e-06 0.0002576108198457018 -7.24914265257436e-06 0.003175480194325264 -0.00016342574853387106 0.0002576108198457018 -0.00016342574853387106 -0.003746092311460692" energy=-365.8273061988957 pbc="T T T"
Ni       0.03096452      -0.04996701       0.01901725        0       1.00000000       0.00943186      -0.00869405       0.16268453
Ni       2.47002293       0.00114493       0.09226228        1       1.00000000       0.04943908       0.13797399      -0.50128778
Pt       5.06202271      -0.06185654       0.13833556        1       0.00000000      -0.05785878       0.02529653      -0.71478520
Ni       7.57256245      -0.05282168       0.13340701        1       1.00000000      -0.01409410      -0.09360037      -0.31131532
Ni       1.25480888       2.19077999       0.04388033        0       1.00000000      -0.03527746       0.04183449       0.18199226
Pt       3.74565190       2.23567091       0.11529412        1       0.00000000       0.01654437      -0.05037579      -0.72755786
Ni       6.29447292       2.21783934       0.06905696        1       1.00000000      -0.02289021      -0.03130388       0.10348844
Pt       8.81183298       2.21385050       0.08795864        1       0.00000000       0.04760634       0.15991489      -0.84228975
Ni       2.49444562       4.39484911       0.02615918        0       1.00000000       0.07531323      -0.01095637       0.31014555
Ni       5.05205384       4.39790259       0.03621850        0       1.00000000      -0.10467027       0.01983998       0.18220339
Ni       7.51949967       4.38546133       0.05142382        1       1.00000000       0.09268134      -0.00423367       0.13356950
Ni      10.09591036       4.38638142       0.05542976        1       1.00000000      -0.01960014      -0.06449864       0.26717763
Ni       3.77726093       6.50469002       0.01731588        0       1.00000000       0.00994253      -0.00203695       0.28917810
Ni       6.25982932       6.50224179       0.00000000        0       1.00000000      -0.03415777       0.00614307       0.08752796
Ni       8.81663852       6.45422083       0.12403821        1       1.00000000       0.14421294      -0.04834900      -0.59017522
Ni      11.35066949       6.47107478       0.05602718        1       1.00000000       0.01533767       0.06291698       0.27911801
Ni       1.27729265       0.77016208       2.10358361        3       1.00000000       0.02127303       0.12888245       0.08404743
Ni       3.77425995       0.75209952       2.17626561        4       1.00000000      -0.02776911       0.04456243       0.21328525
Ni       6.28287063       0.73014932       2.16831168        4       1.00000000       0.03020186       0.05497474       0.14984390
Pt       8.82067782       0.67558552       2.19072960        4       0.00000000       0.05136976      -0.12669495       0.11464144
Ni       2.48610696       2.93000705       2.15562982        4       1.00000000      -0.03933954       0.06366114       0.09620179
Ni       5.03207211       2.91090503       2.11651793        3       1.00000000      -0.01922504       0.00182544       0.07201435
Ni       7.52958800       2.92562749       2.12272948        3       1.00000000      -0.02221783      -0.02458011       0.12907364
Ni      10.11144422       2.93750450       2.15712312        4       1.00000000       0.07108807       0.02383013       0.11567868
Ni       3.76305864       5.06622771       2.08262304        3       1.00000000      -0.05280960      -0.04174029       0.04064297
Ni       6.25428195       5.04957626       2.04889938        2       1.00000000      -0.02918867      -0.02140727       0.06497350
Ni       8.84917044       5.02388003       2.08451937        3       1.00000000       0.05631345      -0.07974351       0.09576614
Ni      11.33325520       5.06473736       2.12019172        3       1.00000000       0.02747246      -0.01961919       0.15044207
Ni       5.00745316       7.18633220       2.07656113        3       1.00000000      -0.08891241      -0.07692028       0.08531015
Pt       7.53408676       7.26837512       2.05969579        3       0.00000000      -0.04939945       0.01301267       0.00186213
Ni      10.11326043       7.19319692       2.15944421        4       1.00000000       0.07174722      -0.08267648       0.20199480
Ni      12.56504839       7.18205995       2.11199726        3       1.00000000      -0.00303480      -0.08294891       0.09712046
Ni       0.06907854       1.43560498       4.17481245        6       1.00000000       0.11115306       0.01938919      -0.07142700
Ni       2.49907718       1.45588041       4.13670792        5       1.00000000      -0.02023539       0.00487197      -0.19412018
Ni       5.02543128       1.40815447       4.12576260        5       1.00000000      -0.04043357      -0.05216270      -0.20942112
Ni       7.53381671       1.39951549       4.20090921        6       1.00000000      -0.14916321      -0.08649215      -0.14672303
Ni       1.27828346       3.61861595       4.18744603        6       1.00000000       0.01994068       0.01432864      -0.09283340
Ni       3.72423198       3.66855033       4.12662673        5       1.00000000      -0.09629268       0.10170912      -0.17533910
Pt       6.24898756       3.56148437       4.20176945        6       0.00000000      -0.06510300      -0.06108230       0.05243262
Ni       8.87746071       3.62176585       4.14896354        5       1.00000000       0.09034381       0.02510965      -0.21330269
Ni       2.52904497       5.77781759       4.17303308        6       1.00000000      -0.02919768       0.02424121      -0.13606671
Ni       4.97735086       5.80427490       4.18413963        6       1.00000000      -0.03181563      -0.04277877      -0.16648867
Pt       7.55275441       5.78877438       4.18647931        6       0.00000000      -0.01929937       0.04738049       0.07307634
Ni      10.14102999       5.76718655       4.17639409        6       1.00000000       0.03298914       0.02018426      -0.10248496
Ni       3.80275040       7.90506209       4.17117034        6       1.00000000      -0.05471373      -0.06301082      -0.06132526
Ni       6.23072132       7.98511090       4.15959997        6       1.00000000      -0.05839909       0.02624279      -0.12820134
Ni       8.82981751       7.98735158       4.13865923        5       1.00000000      -0.00302944       0.03374099      -0.21361374
Ni      11.35615435       7.91540965       4.12168680        5       1.00000000       0.05308982      -0.09571859      -0.13727910
Ni       0.00934157      -0.06157350       6.26416005        8       1.00000000      -0.10647259       0.01941228      -0.12321795
Pt       2.42550309      -0.02101138       6.28723396        8       0.00000000       0.31185051       0.02192652       0.16918071
Pt       5.07080092      -0.01379930       6.19777372        7       0.00000000      -0.19025870      -0.04536594       0.83659923
Pt       7.62100711      -0.09410558       6.32026031        8       0.00000000       0.07539762       0.06716721       0.21039362
Ni       1.26566397       2.20506457       6.25759476        8       1.00000000       0.02367727       0.06859216      -0.14250453
Pt       3.77258782       2.27840416       6.18339629        7       0.00000000      -0.03279331      -0.09007781       0.63935394
Ni       6.31523547       2.18718211       6.31418654        8       1.00000000       0.03194066      -0.06011786       0.12081502
Pt       8.85350608       2.21571200       6.19037360        7       0.00000000      -0.03196747      -0.08034731       0.87523579
Ni       2.50967562       4.39194469       6.25355990        8       1.00000000       0.07956978      -0.00165969      -0.28806560
Ni       5.04143940       4.39704247       6.30087673        8       1.00000000      -0.10124775       0.04157441      -0.14631049
Ni       7.50732895       4.32355356       6.32610797        8       1.00000000      -0.01155234      -0.01761149       0.04143135
Ni      10.14888113       4.32670732       6.28361418        8       1.00000000      -0.00059372      -0.01111919      -0.18125582
Ni       3.81058242       6.44571381       6.25905128        8       1.00000000      -0.04259443      -0.02278489      -0.27975118
Ni       6.22370296       6.47978156       6.28904660        8       1.00000000      -0.00242025       0.02442343      -0.09552125
Pt       8.84725366       6.40520602       6.36493865        9       0.00000000       0.09711432       0.17936605       0.46451984
Ni      11.38260329       6.43903019       6.27826150        8       1.00000000      -0.00901337       0.07637988      -0.20035833
