64
Lattice="10.182650719868805 -0.005543580169807337 -0.002783815676349982 5.086524478679491 8.725737275098288 -0.07434606549211989 0.0 0.0 21.46722148748948" Properties=species:S:1:pos:R:3:tags:I:1:initial_magmoms:R:1:forces:R:3 unique_id=47454c860a2e42408f8c96dd22c3e9bd energy=-369.28101655422165 stress="0.0022727676687796863 -1.610850355229285e-05 3.6025612838924676e-05 -1.610850355229285e-05 0.001436923699324199 -0.00018481581606883464 3.6025612838924676e-05 -0.00018481581606883464 -0.0052667661690634915" pbc="T T T"
Ni       0.04338615      -0.06117760       0.18948264        2       1.00000000       0.07680983      -0.01948937      -0.32338926
Ni       2.48337261      -0.04462928       0.21373494        2       1.00000000       0.00889021      -0.01280771      -0.25429038
Pt       5.08111165      -0.05967448       0.13055649        1       0.00000000      -0.06616528       0.34207728      -1.22006166
Ni       7.66253728      -0.07014519       0.17836389        2       1.00000000      -0.07981753      -0.02415308      -0.45313071
Ni       1.27009303       2.18358341       0.09666804        1       1.00000000      -0.03100013       0.02184256       0.29001881
Pt       3.73113527       2.23558136       0.15125316        2       0.00000000       0.13730210      -0.08320452      -0.62232669
Pt       6.37618957       2.25394268       0.07194717        1       0.00000000      -0.05029917      -0.08728317      -0.21596635
Pt       8.98281565       2.22229245       0.09436772        1       0.00000000      -0.02144923       0.13862790      -0.78578861
Ni       2.53847084       4.40299131       0.01264758        0       1.00000000       0.08138652       0.01960829       0.16917850
Ni       5.08495263       4.44479282       0.06243471        1       1.00000000      -0.06325227       0.03108108       0.24630066
Ni       7.62985325       4.43292400       0.06924199        1       1.00000000       0.05945885      -0.00564217       0.21113062
Ni      10.20142695       4.39580118       0.02654046        0       1.00000000      -0.03459971       0.02618740       0.20243276
Ni       3.82831276       6.52403694       0.04356497        0       1.00000000       0.03295566       0.01783899       0.28489225
Ni       6.34775064       6.52647329       0.04984649        0       1.00000000      -0.00897026       0.05569107       0.29614912
Ni       8.85503988       6.48011026       0.11547210        1       1.00000000      -0.09971779       0.00510181      -0.31622541
Ni      11.49491707       6.49075278       0.00000000        0       1.00000000       0.03647066       0.06327051       0.12112036
Ni       1.30243016       0.71281029       2.19049458        4       1.00000000       0.01978314       0.02034981       0.18978752
Ni       3.77528114       0.74497613       2.20264147        4       1.00000000      -0.03267622      -0.00183733       0.22543283
Ni       6.36086584       0.74415413       2.22614496        4       1.00000000      -0.01081582       0.08920815       0.22408584
Pt       8.92916652       0.70763241       2.19548575        4       0.00000000      -0.00180288      -0.10704291       0.17667854
Ni       2.53359005       2.86007918       2.23315143        4       1.00000000       0.00992847      -0.10018678       0.17016678
Ni       5.06804532       2.92243145       2.19090274        4       1.00000000      -0.01081142       0.01509296       0.08334942
Ni       7.64257724       2.94060072       2.18696437        4       1.00000000      -0.01412869       0.02411397       0.10989097
Ni      10.20994404       2.88440757       2.21215384        4       1.00000000       0.06038853      -0.05166925       0.18495290
Ni       3.86213617       5.06851199       2.12967855        3       1.00000000       0.04400895      -0.05136366       0.06682017
Ni       6.35723675       5.09004314       2.10461310        3       1.00000000       0.00276224      -0.05246657       0.03476575
Ni       8.85703096       5.03009176       2.13790001        3       1.00000000       0.01157706      -0.09197975       0.10804986
Pt      11.50532385       4.99234743       2.14424598        3       0.00000000       0.05584733      -0.07158589       0.03562555
Ni       5.12564463       7.19421644       2.08266983        3       1.00000000      -0.01391760      -0.06096848       0.09404003
Ni       7.55942657       7.22266401       2.08322117        3       1.00000000      -0.05674190      -0.06632958       0.12820092
Pt      10.18595325       7.20359377       2.13483036        3       0.00000000       0.02645596      -0.19155284       0.15226384
Ni      12.75217190       7.20852049       2.07385408        3       1.00000000       0.08361239      -0.04986393       0.09516348
Ni       0.06223353       1.45770406       4.25624909        6       1.00000000       0.11088655      -0.05615187      -0.10855173
Ni       2.49905919       1.46928415       4.22231758        5       1.00000000      -0.04050803      -0.01441312      -0.10820417
Ni       5.09113960       1.44171861       4.20284462        5       1.00000000      -0.05202659      -0.00267745      -0.31209584
Ni       7.60671244       1.41963518       4.24990414        5       1.00000000      -0.09052266      -0.08449056      -0.20890439
Ni       1.27527774       3.59227907       4.29528604        6       1.00000000       0.02060715      -0.04858038      -0.03390441
Ni       3.78082469       3.65544912       4.19817756        5       1.00000000      -0.00454245       0.07311714      -0.19291544
Pt       6.35471583       3.62494620       4.23921055        5       0.00000000       0.00467976      -0.01098395      -0.01690161
Ni       8.94125150       3.64766585       4.19684947        5       1.00000000       0.01117276       0.07486917      -0.18241991
Ni       2.53704710       5.72819887       4.27860748        6       1.00000000      -0.01196008      -0.04459797      -0.05698437
Ni       5.08965389       5.76126682       4.24015473        5       1.00000000       0.04891401      -0.02308195      -0.14765894
Ni       7.60816080       5.76836981       4.20383164        5       1.00000000      -0.03072271       0.03447580      -0.16424839
Ni      10.20708717       5.72238235       4.26504733        6       1.00000000       0.00070548       0.04266699      -0.07796099
Pt       3.82097067       7.87623857       4.18717051        5       0.00000000       0.01054644       0.02669853       0.00543535
Ni       6.34050482       7.93632395       4.16118645        5       1.00000000      -0.08073356      -0.03252658      -0.16753623
Pt       8.82607997       7.96667650       4.15434642        5       0.00000000      -0.14843560       0.04043219      -0.06567729
Ni      11.47098362       7.93130439       4.18090183        5       1.00000000       0.02191250      -0.07411888      -0.20865917
Pt       0.01132507      -0.09010342       6.46249395       10       0.00000000      -0.14866463       0.16443177       0.26868956
Pt       2.51612100      -0.03578863       6.46722149       10       0.00000000       0.20207522       0.11031492       0.32343535
Pt       5.11909595      -0.03572018       6.30210853        8       0.00000000      -0.09176059       0.11707011       1.16214321
Pt       7.62959326      -0.09966230       6.45007099       10       0.00000000       0.10755794       0.18434483       0.39067903
Ni       1.27165622       2.20821430       6.35469777        9       1.00000000       0.01251899       0.01417151      -0.14346448
Pt       3.80591241       2.27612356       6.27159283        8       0.00000000       0.00547734      -0.12203022       0.55319349
Ni       6.36283953       2.18446978       6.29490654        8       1.00000000      -0.00063754      -0.02151183       0.30987075
Pt       8.91819594       2.24061933       6.24833136        7       0.00000000      -0.01443047      -0.17907623       0.77968054
Ni       2.51429426       4.37470342       6.33432118        8       1.00000000       0.06323247      -0.04721646      -0.23486542
Ni       5.09342871       4.38291046       6.36494844        9       1.00000000      -0.05285644      -0.00414334      -0.22999991
Ni       7.57005826       4.31899105       6.37266822        9       1.00000000      -0.03567734      -0.00846401      -0.11907450
Ni      10.26200130       4.31414770       6.33423868        8       1.00000000       0.00244552      -0.00143422      -0.18025913
Ni       3.81029298       6.40292993       6.35513638        9       1.00000000       0.00946697      -0.00803813      -0.22478836
Ni       6.32747481       6.42922878       6.33623059        8       1.00000000       0.02033523       0.04275946      -0.26602474
Pt       8.90522850       6.36015981       6.38607233        9       0.00000000       0.02179408       0.01850884       0.09995376
Ni      11.48434085       6.42142971       6.32167432        8       1.00000000      -0.02232170       0.09901108      -0.15130005
