64
Lattice="10.781472767765894 -0.0043375259663820855 -0.00017004094250577527 5.386979976206483 9.33985592303407 0.004803285743551613 0.0 0.0 22.04618031029157" Properties=species:S:1:pos:R:3:tags:I:1:initial_magmoms:R:1:forces:R:3 unique_id=b64c768596ea499380d4ecd3e03e04ed stress="0.002661309176457705 7.752733097099127e-06 1.9304407048762582e-05 7.752733097099127e-06 0.002594513693030924 -1.6734627248399223e-05 1.9304407048762582e-05 -1.6734627248399223e-05 -0.0019259437849421645" energy=-405.7024388812241 pbc="T T T"
Pt      -0.00500032      -0.00513294       0.07074330        1       0.00000000      -0.05257059      -0.04869644      -0.31939239
Pt       2.70177716      -0.00179740       0.06925307        1       0.00000000       0.09636781      -0.03561985      -0.33285026
Pt       5.40688571      -0.02845287       0.07008380        1       0.00000000       0.00025530      -0.02573814      -0.32144272
Pt       8.06817898      -0.03288570       0.07463050        1       0.00000000      -0.05400192      -0.04083137      -0.21084349
Pt       1.34891962       2.34622938       0.06969943        1       0.00000000       0.05675842       0.07623239      -0.23275415
Pt       4.05148682       2.34144213       0.09141802        1       0.00000000       0.12742361       0.04486363      -0.24829327
Pt       6.72733120       2.33394167       0.08846027        1       0.00000000      -0.14537758       0.01526157      -0.22961345
Pt       9.43307853       2.33630695       0.06695000        1       0.00000000      -0.03042900      -0.00914187      -0.27784107
Pt       2.68429843       4.70271729       0.08921317        1       0.00000000       0.12738096       0.12071219      -0.17816447
Pt       5.37285653       4.66607896       0.11500424        1       0.00000000      -0.21863959      -0.05645083      -0.11197756
Pt       8.08892863       4.67227843       0.07061294        1       0.00000000       0.04056995       0.07308729      -0.25570386
Pt      10.79832521       4.69650884       0.00000000        0       0.00000000       0.03325144       0.06027097       0.10347655
Pt       4.00869441       6.99238146       0.09293757        1       0.00000000      -0.03524085      -0.19560186      -0.18701162
Pt       6.73289472       6.99992930       0.07735063        1       0.00000000       0.04065658      -0.02373912      -0.28605183
Pt       9.46569072       6.99857654       0.06582257        1       0.00000000       0.01262326       0.01127025      -0.30816239
Ni      12.12636896       6.99638447       0.06000878        1       1.00000000       0.00099811      -0.00251819       0.36714066
Pt       1.35278140       0.78373818       2.35703688        3       0.00000000       0.04268261       0.06863419       0.51235541
Pt       4.06002269       0.80942074       2.36119769        3       0.00000000       0.03013834       0.06016577       0.51308877
Pt       6.72287076       0.80127538       2.35996987        3       0.00000000      -0.01517532       0.03134432       0.52102781
Pt       9.42620091       0.77044267       2.35537637        3       0.00000000      -0.04212404      -0.02547024       0.51672152
Pt       2.75373537       3.15403324       2.35875259        3       0.00000000       0.13697001       0.16605044       0.46858573
Ni       5.38123696       3.12714071       2.34564280        2       1.00000000      -0.04058707       0.06547468       0.51960760
Pt       8.04647193       3.11620460       2.35945923        3       0.00000000      -0.05667271       0.04667938       0.49194484
Pt      10.78869362       3.12241643       2.36053056        3       0.00000000       0.08516244       0.11970933       0.50459170
Ni       4.04696220       5.43582967       2.34052731        2       1.00000000       0.01079284      -0.05565091       0.48851856
Pt       6.67626643       5.41249307       2.36315574        3       0.00000000      -0.14900968      -0.09533792       0.46012213
Pt       9.43227664       5.44198044       2.36293005        3       0.00000000      -0.00075640      -0.05552213       0.51661284
Pt      12.15835808       5.45261908       2.33812842        2       0.00000000       0.00423170       0.02079986       0.33983395
Pt       5.36755603       7.74847603       2.36067680        3       0.00000000      -0.06772334      -0.10314060       0.48307130
Pt       8.08239381       7.77915694       2.36009663        3       0.00000000       0.00763674      -0.06000366       0.54693785
Pt      10.79678915       7.77641268       2.33363526        2       0.00000000       0.12320412      -0.06729892       0.40108918
Pt      13.47637479       7.74720430       2.33695202        2       0.00000000      -0.07970368      -0.08634353       0.36818999
Pt      -0.00065988       1.56216866       4.67470613        5       0.00000000       0.00068620      -0.00194610      -0.53197552
Pt       2.69676129       1.56733688       4.66866725        5       0.00000000       0.00604206       0.07810381      -0.53386187
Pt       5.38831349       1.57147470       4.64871139        4       0.00000000      -0.00783207       0.02643415      -0.55252720
Pt       8.08461414       1.56003018       4.67612687        5       0.00000000      -0.00364189       0.01486135      -0.50816836
Pt       1.33975719       3.90263394       4.70026923        5       0.00000000      -0.03447465       0.07372258      -0.39347177
Pt       4.04816361       3.90043903       4.62404056        4       0.00000000       0.00197783       0.04882470      -0.66273121
Pt       6.72703517       3.88775718       4.65044046        5       0.00000000      -0.00060158      -0.00815489      -0.54080518
Pt       9.44223560       3.89919074       4.70118241        5       0.00000000       0.08394020       0.07234892      -0.38137893
Pt       2.69806057       6.22184398       4.64842946        4       0.00000000      -0.02394344      -0.00356804      -0.55392921
Pt       5.37648213       6.21944256       4.64957345        4       0.00000000      -0.05223273      -0.02551590      -0.52942530
Pt       8.08113829       6.22321967       4.67385189        5       0.00000000      -0.02616920      -0.02123078      -0.55556567
Pt      10.78770511       6.21483011       4.69971346        5       0.00000000       0.08612774      -0.05360768      -0.34584832
Pt       4.03933780       8.56107765       4.67808868        5       0.00000000      -0.03791819      -0.02587112      -0.51146671
Pt       6.73326584       8.56004107       4.67235805        5       0.00000000      -0.00352830      -0.02300199      -0.53407865
Pt       9.43395437       8.56191408       4.67741236        5       0.00000000       0.06539891      -0.02555851      -0.54861171
Pt      12.12422617       8.55247233       4.67087748        5       0.00000000      -0.01562734      -0.09649912      -0.51964691
Pt      -0.00011833       0.00931475       6.97017656        6       0.00000000      -0.00905562       0.05284963       0.38077706
Pt       2.69458950       0.00224998       6.96766208        6       0.00000000       0.01313683       0.00659329       0.35079432
Pt       5.39314778      -0.00712604       6.97396805        6       0.00000000      -0.00904212      -0.02151304       0.30778571
Pt       8.08299553      -0.00379847       6.97351406        6       0.00000000       0.00979402       0.01968706       0.33619786
Pt       1.32949774       2.36702195       6.96861661        6       0.00000000       0.01228075       0.01996766       0.32285924
Pt       4.03942941       2.34014335       6.97282510        6       0.00000000      -0.03690866       0.07675574       0.24795552
Pt       6.73994044       2.33954014       6.97157623        6       0.00000000       0.02286010       0.04865001       0.28299144
Pt       9.44945976       2.36343715       6.96864014        6       0.00000000       0.00727941       0.00176403       0.32640127
Pt       2.65954623       4.67883026       6.97736979        6       0.00000000       0.03791645      -0.01449924       0.16830828
Pt       5.38683061       4.67127871       6.97447952        6       0.00000000      -0.03736641      -0.01631362       0.17260973
Pt       8.11803934       4.67149098       6.97146039        6       0.00000000      -0.01749570       0.00177083       0.29861388
Ni      10.78109547       4.67283946       6.98124993        6       1.00000000      -0.00510274      -0.00200657      -0.36706603
Pt       4.03078705       7.00223762       6.97917178        6       0.00000000      -0.03724814      -0.07854883       0.24230100
Pt       6.74119676       7.00374829       6.97454589        6       0.00000000       0.03423323      -0.05509576       0.33300877
Pt       9.45100336       6.97552571       6.97308763        6       0.00000000      -0.02771885      -0.02567974       0.26358821
Pt      12.10991600       6.97651771       7.04618031        6       0.00000000       0.01514148      -0.03717353      -0.08644759
