64
Lattice="10.090682508800452 0.0020258086852424097 0.00928661075720955 5.047095656184857 8.71594216167069 -0.01830647715837325 0.0 0.0 21.432396267211132" Properties=species:S:1:pos:R:3:tags:I:1:initial_magmoms:R:1:forces:R:3 unique_id=7a466483af6044ebb831a6b5ea6188e8 energy=-366.28207774727764 stress="0.00459602622965012 5.7131144936716606e-05 0.00011510505365684516 5.7131144936716606e-05 0.004213647769745428 -0.00018805714881768478 0.00011510505365684516 -0.00018805714881768478 -0.0017874611136271933" pbc="T T T"
Ni       0.03922070      -0.03868068       0.16561476        2       1.00000000       0.11698775       0.02947774      -0.44229597
Ni       2.50673794      -0.03203871       0.17774189        2       1.00000000       0.03451393       0.00685662      -0.16307620
Ni       5.05792439      -0.01718919       0.07297709        1       1.00000000      -0.08861849       0.01491817       0.06280105
Ni       7.54057317      -0.01310593       0.14808670        1       1.00000000      -0.01016398       0.07556819      -0.59402365
Ni       1.26451561       2.19018292       0.09155064        1       1.00000000       0.01116570      -0.02338608       0.28841983
Pt       3.77614227       2.18439943       0.16614554        2       0.00000000      -0.04879099      -0.00151557      -0.68865710
Ni       6.30234003       2.18837235       0.08823526        1       1.00000000      -0.00610961       0.01976134       0.11314924
Pt       8.83526046       2.23435349       0.00000000        0       0.00000000       0.03832960       0.01078253      -0.24658440
Ni       2.50022104       4.38822202       0.07162581        1       1.00000000       0.03199637       0.00208687       0.30215234
Ni       5.04683454       4.38137199       0.04750561        0       1.00000000      -0.11551155      -0.05732271       0.07396407
Ni       7.56221172       4.38988519       0.05072025        1       1.00000000       0.12421359       0.05141474       0.01495261
Ni      10.11876103       4.39584751       0.08016836        1       1.00000000      -0.02022489       0.08646320       0.25994673
Ni       3.81088762       6.50790522       0.03385089        0       1.00000000       0.09363866      -0.04150959       0.05756093
Ni       6.30324390       6.55270169       0.04617403        0       1.00000000       0.03509016       0.10649169       0.12171329
Ni       8.80287001       6.51757576       0.12506884        1       1.00000000      -0.13297919      -0.07024815      -0.26644073
Ni      11.34470317       6.51138868       0.02171579        0       1.00000000      -0.06242328      -0.05586926       0.06506115
Ni       1.30985884       0.73538061       2.17009288        4       1.00000000       0.01899314       0.16132508       0.14633552
Ni       3.73795275       0.71618638       2.18066760        4       1.00000000      -0.12440494      -0.01086272       0.12695971
Ni       6.29175866       0.76065827       2.12261196        3       1.00000000      -0.02783762       0.04532322      -0.03626231
Pt       8.87250094       0.78143091       2.19110982        4       0.00000000       0.04649184       0.13313189       0.01185485
Ni       2.48832096       2.91767884       2.20715657        4       1.00000000      -0.03315981      -0.02997598       0.16590247
Ni       5.04816525       2.90887186       2.17018868        4       1.00000000      -0.01915307       0.03805156       0.04721434
Ni       7.56884179       2.91921008       2.16382972        4       1.00000000       0.07436208       0.02734688       0.07257979
Ni      10.13738671       2.94878748       2.19077867        4       1.00000000       0.03375983       0.00210548       0.14559189
Ni       3.77206578       5.01949517       2.14421692        3       1.00000000      -0.03646681      -0.17947160       0.05773013
Pt       6.31357169       5.10959388       2.11443061        3       0.00000000       0.02715883       0.03998616      -0.03040536
Ni       8.85148972       5.03582995       2.15767922        4       1.00000000       0.03907391      -0.13270568       0.10285438
Ni      11.34600406       5.01331536       2.15971815        4       1.00000000      -0.04150726      -0.09608847       0.15815221
Ni       5.09483664       7.26040692       2.12286090        3       1.00000000      -0.00574583       0.06613866       0.10045629
Ni       7.53785025       7.29165915       2.15305293        4       1.00000000      -0.05385037       0.04937264       0.17917028
Pt      10.03248789       7.24662069       2.16003941        4       0.00000000      -0.03172305      -0.05140336       0.03234714
Pt      12.62026883       7.17086878       2.11004675        3       0.00000000       0.05810401      -0.11611546      -0.01215200
Ni       0.04590549       1.50304223       4.27623848        6       1.00000000       0.11266960       0.02991492      -0.06937471
Ni       2.46864550       1.46167937       4.21902247        5       1.00000000      -0.04763362      -0.00087162      -0.13125780
Pt       5.04613913       1.38238177       4.20716086        5       0.00000000      -0.02637050      -0.14530336       0.09562668
Ni       7.60062904       1.46632942       4.28529130        6       1.00000000       0.08924051      -0.03502191      -0.11035672
Ni       1.26295885       3.62704562       4.26830564        6       1.00000000       0.03704813      -0.02107163      -0.13074761
Ni       3.73541524       3.67821395       4.22791674        5       1.00000000      -0.04560842      -0.01367048      -0.16596919
Pt       6.34330445       3.65237280       4.31368221        6       0.00000000       0.02265137      -0.00108755       0.09340439
Ni       8.88942261       3.64061031       4.27171637        6       1.00000000       0.08838419       0.09193561      -0.17897845
Ni       2.50112405       5.73950942       4.29219600        6       1.00000000      -0.06222123      -0.08342797      -0.09989244
Ni       5.04449279       5.78999229       4.29378789        6       1.00000000       0.04876355      -0.03937182      -0.07953330
Ni       7.59281097       5.82849396       4.25840540        6       1.00000000       0.10097951       0.06358130      -0.13603029
Ni      10.11912934       5.75276069       4.26103377        6       1.00000000       0.00770435      -0.15661250      -0.10443256
Pt       3.80996960       7.92356892       4.25333163        6       0.00000000       0.04050289      -0.01104227       0.14523091
Ni       6.35129532       7.96349129       4.20831766        5       1.00000000       0.06182402       0.02531002      -0.13095537
Ni       8.81030115       7.94629097       4.24126200        5       1.00000000      -0.14076560      -0.02676128      -0.10478847
Ni      11.32903563       7.91977811       4.28003134        6       1.00000000      -0.03471721      -0.18103427      -0.02817224
Pt       0.00218583       0.00237239       6.43239627        8       0.00000000      -0.04892522       0.11963176       0.40147939
Pt       2.55123674      -0.01696812       6.37927098        8       0.00000000      -0.03854467       0.05023152       0.17477133
Ni       5.05359990      -0.02974123       6.38328137        8       1.00000000      -0.08703064       0.00514605       0.01467895
Pt       7.48912809      -0.00845556       6.43066218        8       0.00000000       0.05248677       0.07728556       0.41347616
Ni       1.23675829       2.23231105       6.34692618        7       1.00000000       0.05769595       0.00473270      -0.18385340
Pt       3.78891479       2.26925702       6.32521558        7       0.00000000      -0.13240195       0.20315852       0.71557396
Ni       6.33540748       2.20338306       6.40074014        8       1.00000000      -0.01721874       0.07827363       0.05332990
Ni       8.83651199       2.23149848       6.25363276        7       1.00000000      -0.03145432      -0.00252351       0.30390617
Ni       2.49681667       4.39293699       6.34853034        7       1.00000000      -0.00554035      -0.03037277      -0.27136266
Ni       5.05729827       4.40331761       6.38126818        8       1.00000000      -0.08594566       0.00011254      -0.02325173
Ni       7.57806623       4.32152294       6.38856522        8       1.00000000       0.13488143      -0.02089515      -0.00535916
Ni      10.12927425       4.30552273       6.35380426        8       1.00000000      -0.00725987      -0.01604778      -0.31832777
Ni       3.78522443       6.44934668       6.36720360        8       1.00000000      -0.04495741       0.03324224      -0.08613398
Ni       6.29042199       6.45943858       6.35055794        8       1.00000000       0.05437086       0.08064033      -0.18626388
Pt       8.87945137       6.43656424       6.37110818        8       0.00000000      -0.00630983      -0.11424259       0.04825565
Ni      11.38035438       6.47065158       6.34815745        7       1.00000000       0.02849348      -0.06396627      -0.14166432
