64
Lattice="10.228967412482216 -0.016588076814815153 0.004683206702878437 5.1001180103195525 8.874130878812135 -0.007163957373061692 0.003823822260678062 -0.008961928596366794 8.803985901621974" Properties=species:S:1:pos:R:3:tags:I:1:initial_magmoms:R:1:forces:R:3 unique_id=79169703b7a24cf987083874eb60c639 stress="-0.00031327047643258527 -3.5345857329990605e-06 1.3296538459120846e-05 -3.5345857329990605e-06 -0.0003048187518290557 2.146705511251581e-05 1.3296538459120846e-05 2.146705511251581e-05 -0.0002528550645534422" energy=-395.75596444211567 pbc="T T T"
Ni       0.05149835       0.04432522       0.15484885        4       1.00000000       0.21216184       0.14669626       0.19952683
Ni       2.57593434       0.03276426       0.20611302        4       1.00000000       0.05768070       0.06962302       0.27326644
Ni       5.06340630      -0.01968645       0.07592287        4       1.00000000      -0.10628689       0.02317854       0.07049876
Pt       7.68136564      -0.05412533      -0.01112731        4       0.00000000      -0.01066879      -0.00976875      -0.17746113
Ni       1.28048988       2.22963194       0.10795860        4       1.00000000       0.03595677       0.07750830       0.14549642
Ni       3.78654432       2.21703501       0.19716784        4       1.00000000      -0.07738229      -0.00581453       0.22185173
Pt       6.36215543       2.29495720       0.16345638        4       0.00000000      -0.05503210       0.10933813       0.48238824
Ni       8.99802655       2.26264289       0.07165416        4       1.00000000       0.09712913       0.11490514       0.03128826
Ni       2.55664112       4.41019579       0.07145373        4       1.00000000       0.01480730      -0.16299782       0.02546767
Ni       5.05020446       4.43170474       0.16526878        4       1.00000000      -0.20870780       0.00022279       0.26779828
Ni       7.73286661       4.42316889       0.07504322        4       1.00000000       0.25125889      -0.00619016       0.03059039
Ni      10.21234362       4.39816215       0.06400077        4       1.00000000      -0.00356503      -0.09211760      -0.00464197
Ni       3.81136882       6.59590619       0.04800141        4       1.00000000      -0.03854554      -0.19479814       0.05510433
Pt       6.43055412       6.65125395      -0.01323047        4       0.00000000       0.05798230       0.00691389      -0.28348056
Ni       8.95624483       6.62740188       0.13657595        4       1.00000000       0.04343394      -0.09025817       0.16896628
Ni      11.47612812       6.59806080       0.03821360        4       1.00000000      -0.08473144      -0.12976515      -0.07687073
Ni       1.33672108       0.78524886       2.16625240        3       1.00000000       0.01134702       0.11123799      -0.00543080
Ni       3.78653642       0.75367564       2.18570881        3       1.00000000       0.01791988      -0.02412279       0.01943653
Pt       6.30113085       0.76601099       2.27939372        3       0.00000000      -0.04921251       0.10670914      -0.05121472
Pt       9.02568997       0.82949091       2.18454606        3       0.00000000      -0.00447140      -0.03617806      -0.10419830
Ni       2.57095510       2.93567645       2.17212719        3       1.00000000      -0.06872575       0.04519324      -0.00747760
Ni       5.01952629       2.96975927       2.23472775        3       1.00000000      -0.14863345      -0.02099684       0.17017737
Ni       7.72715420       2.99164294       2.21166188        3       1.00000000       0.12446234       0.03415222       0.03175433
Ni      10.23473601       2.95489122       2.19109794        3       1.00000000       0.04164499      -0.04475933       0.03700685
Ni       3.82682513       5.10258335       2.21196448        3       1.00000000      -0.06525291      -0.06031277       0.10710248
Pt       6.42934540       5.12677775       2.19255278        3       0.00000000       0.05189473      -0.00437438      -0.09396478
Ni       8.93802115       5.12020392       2.21037639        3       1.00000000       0.05339313      -0.10277745       0.05834345
Pt      11.48091222       5.06612468       2.15904572        3       0.00000000       0.00964773      -0.03827232      -0.05969078
Pt       5.13421608       7.37866221       2.17718283        3       0.00000000       0.02122812      -0.08626814      -0.22114962
Ni       7.67129404       7.40840968       2.20180977        3       1.00000000      -0.03071966      -0.01099106      -0.01964891
Pt      10.11272630       7.36250547       2.22889381        3       0.00000000      -0.11814616      -0.07450657       0.02068233
Pt      12.75587943       7.31731894       2.21431094        3       0.00000000      -0.04720974      -0.02304194      -0.10541708
Ni       0.01543290       1.50803568       4.39057859        2       1.00000000       0.12779794      -0.03068025      -0.03828823
Pt       2.59293601       1.48923854       4.27385044        2       0.00000000       0.10395599       0.02379316       0.10605492
Ni       5.09496297       1.44185058       4.38600430        2       1.00000000       0.00205335       0.02330075       0.12544851
Pt       7.73046279       1.48360130       4.38355193        2       0.00000000       0.04302638       0.09661698       0.17072485
Pt       1.24040991       3.73118505       4.43206026        2       0.00000000      -0.00722173      -0.04122827      -0.02431868
Ni       3.82609896       3.73454450       4.33869852        2       1.00000000      -0.04324288       0.07918613      -0.06929697
Pt       6.38326850       3.72343980       4.35164794        2       0.00000000      -0.08210963       0.00362303       0.07202201
Ni       8.95759178       3.72516909       4.38846691        2       1.00000000       0.02552613       0.12749355      -0.07986045
Ni       2.53524789       5.88430248       4.42118516        2       1.00000000      -0.07670704      -0.08242620      -0.05044805
Ni       5.07230039       5.88736573       4.37229970        2       1.00000000      -0.05547432      -0.11470713      -0.15300678
Ni       7.72262117       5.88651564       4.36983859        2       1.00000000       0.20211279      -0.03742257      -0.15373097
Ni      10.21695707       5.90952199       4.38255914        2       1.00000000       0.01689423      -0.03143636      -0.09357431
Pt       3.78346614       8.04608999       4.41894516        2       0.00000000       0.06665017      -0.00635632       0.01481312
Pt       6.44062558       8.06888781       4.34286960        2       0.00000000       0.07702142       0.04617375       0.01016007
Ni       8.98767719       8.10543126       4.37426027        2       1.00000000       0.00758166      -0.00157500       0.05525942
Ni      11.43545598       8.08140960       4.43001452        2       1.00000000      -0.07210487      -0.08813186      -0.02937982
Pt      -0.05406716       0.03605908       6.59521367        1       0.00000000      -0.14369315       0.04900920       0.08660896
Pt       2.58431490      -0.03160304       6.60399686        1       0.00000000       0.04854242       0.02012625       0.21902811
Ni       5.15764067      -0.05608513       6.50286906        1       1.00000000       0.03007692      -0.07229243      -0.14630623
Ni       7.62769361      -0.06708042       6.43642279        1       1.00000000      -0.16182685      -0.10530103      -0.31015693
Ni       1.23444047       2.25723827       6.54188837        1       1.00000000      -0.03279622       0.03907335       0.00519103
Pt       3.79392090       2.25875320       6.56514108        1       0.00000000      -0.17632529       0.10192956       0.13525394
Pt       6.43330401       2.17490684       6.51585001        1       0.00000000       0.09227700      -0.05824551      -0.20798524
Ni       8.98900156       2.25673152       6.53072590        1       1.00000000       0.07146236       0.21089318      -0.12905169
Ni       2.50480187       4.48410677       6.52777180        1       1.00000000      -0.10985951       0.16587746      -0.03615184
Pt       5.07744480       4.53699794       6.56069161        1       0.00000000      -0.03203092       0.18111773       0.15972258
Ni       7.70948981       4.42131318       6.52111075        1       1.00000000       0.05787749      -0.02844707      -0.12662063
Ni      10.23116787       4.39878929       6.53432237        1       1.00000000       0.02166002      -0.01971175      -0.03526455
Ni       3.76951384       6.64251437       6.52182301        1       1.00000000      -0.18196321       0.05483184      -0.06492853
Ni       6.38405544       6.63121869       6.41412035        1       1.00000000       0.04812113      -0.01625011      -0.49018204
Pt       9.00367353       6.56927288       6.50959313        1       0.00000000       0.10838712      -0.06866131       0.07825710
Ni      11.53094039       6.63036057       6.49612211        1       1.00000000       0.03967373      -0.04753945      -0.20609268
