64
Lattice="10.156383527217397 0.0054453207089848275 0.04314528813328182 5.082907549674496 8.75172584557903 0.001658323770851929 0.0 0.0 21.44283565764522" Properties=species:S:1:pos:R:3:tags:I:1:initial_magmoms:R:1:forces:R:3 unique_id=0df782d4d0394dc5a7e63967f57595de energy=-368.9455627018252 stress="0.001915185475897009 -3.8167085516796304e-05 0.0004995627951839409 -3.8167085516796304e-05 0.0013732250598407526 8.416056461269218e-05 0.0004995627951839409 8.416056461269218e-05 -0.0051283256949667035" pbc="T T T"
Ni       0.04197576      -0.04462602       0.11125598        1       1.00000000       0.07054695      -0.02397374      -0.45912020
Ni       2.50133152       0.01365640       0.08932190        1       1.00000000       0.08441096       0.16256612      -0.51819782
Pt       5.11662174      -0.05136489       0.14735747        1       0.00000000      -0.06569427       0.05037700      -0.75543168
Ni       7.63495189      -0.04560401       0.13059457        1       1.00000000      -0.05183411      -0.06952297      -0.45258268
Ni       1.27093377       2.21234943       0.03803425        0       1.00000000      -0.01712104       0.06735544       0.20039623
Pt       3.78625119       2.26077639       0.10483059        1       0.00000000       0.02458200      -0.04202896      -0.57680896
Ni       6.35739592       2.23666850       0.06500138        1       1.00000000      -0.01635820      -0.00361633       0.20079455
Pt       8.89638449       2.25911713       0.08969647        1       0.00000000       0.04182486       0.17663229      -0.98156256
Ni       2.52347089       4.42296812       0.02332567        0       1.00000000       0.06095895       0.00515071       0.39811933
Ni       5.10499077       4.42514905       0.03624366        0       1.00000000      -0.09913785       0.01474793       0.27116189
Ni       7.59286833       4.41960813       0.05285367        1       1.00000000       0.07419169       0.02684920       0.23690503
Ni      10.20126064       4.41965205       0.06167082        1       1.00000000       0.00371244      -0.02732464       0.33685736
Ni       3.81598942       6.53950471       0.02557711        0       1.00000000      -0.00210562      -0.00863025       0.29823034
Ni       6.31802162       6.53518119       0.00000000        0       1.00000000      -0.05011002       0.00636577       0.11602668
Ni       8.91545036       6.49567974       0.12299443        1       1.00000000       0.16549295      -0.06033184      -0.54004951
Ni      11.46609048       6.51526189       0.06379167        1       1.00000000       0.00376655       0.06423071       0.32242126
Ni       1.31140398       0.77348906       2.07613063        3       1.00000000       0.04293497       0.14703253       0.10694686
Ni       3.81191403       0.79012304       2.14347679        3       1.00000000      -0.05737771       0.10785772       0.23029647
Ni       6.33677791       0.74967539       2.18208222        4       1.00000000      -0.04570175       0.08455613       0.18633314
Pt       8.86636516       0.70630857       2.13080245        3       0.00000000       0.00447684      -0.11868154       0.18442471
Ni       2.52112642       2.96043994       2.15984190        4       1.00000000      -0.02488495       0.10726078       0.07353570
Ni       5.08600731       2.93577589       2.12698262        3       1.00000000      -0.02339615       0.02181565       0.06865113
Ni       7.59679224       2.95624642       2.13841617        3       1.00000000      -0.04901154       0.01305628       0.11057010
Ni      10.21505853       2.99077189       2.13806175        3       1.00000000       0.08439378       0.07100667       0.10880085
Ni       3.80463037       5.09082337       2.09540710        3       1.00000000      -0.05575612      -0.07222687       0.03257512
Ni       6.31578797       5.07072926       2.06270285        3       1.00000000      -0.06870858      -0.06740679       0.04652988
Ni       8.93913365       5.05891539       2.10453574        3       1.00000000       0.02924113      -0.07516676       0.05829835
Ni      11.45019843       5.09856957       2.13994513        3       1.00000000       0.05042343      -0.04468174       0.11213485
Ni       5.06846691       7.21430344       2.06552282        3       1.00000000      -0.13531575      -0.11839004       0.07077145
Pt       7.58417266       7.27794879       2.03664825        2       0.00000000      -0.02104228      -0.00987813      -0.02171818
Ni      10.23695632       7.21587263       2.14440879        3       1.00000000       0.09536962      -0.17375062       0.13479773
Ni      12.67259961       7.21605916       2.10379414        3       1.00000000       0.01485097      -0.09013642       0.08577872
Pt       0.10477822       1.51135333       4.17116626        6       0.00000000       0.12261279      -0.08836980      -0.02851145
Ni       2.58632596       1.51529865       4.16660883        6       1.00000000       0.08256242       0.03753137      -0.24903406
Ni       5.10166785       1.46220417       4.16748768        6       1.00000000      -0.00582250      -0.02489675      -0.23774653
Ni       7.59068120       1.43459718       4.23498732        6       1.00000000      -0.08643620      -0.13068245      -0.14917062
Ni       1.32380503       3.69414453       4.21643799        6       1.00000000       0.03650797       0.01031687      -0.12269939
Ni       3.77381217       3.69420612       4.16021771        6       1.00000000      -0.06287363       0.07491509      -0.21307689
Pt       6.31215311       3.58703190       4.23369929        6       0.00000000      -0.02319922      -0.08549210       0.00921880
Ni       8.95014974       3.68394484       4.18985371        6       1.00000000       0.10084995       0.03573451      -0.24125444
Ni       2.53106447       5.76428893       4.21106975        6       1.00000000      -0.04737336      -0.02485186      -0.17912532
Ni       5.05559722       5.77816119       4.22696042        6       1.00000000      -0.03062524      -0.10231741      -0.15754097
Pt       7.62127198       5.79233161       4.22361197        6       0.00000000      -0.02446724       0.01989053      -0.01315564
Ni      10.24949189       5.78700767       4.22285500        6       1.00000000       0.02623541       0.00291828      -0.15281715
Pt       3.80987743       7.89410511       4.18078353        6       0.00000000       0.01044229       0.00309720       0.00603540
Ni       6.35970197       7.99975734       4.19955343        6       1.00000000       0.02436749      -0.01707746      -0.15992315
Pt       8.95130674       8.04780639       4.14757669        5       0.00000000      -0.05647632      -0.02459520      -0.18614003
Ni      11.46108595       7.96982472       4.18059066        6       1.00000000       0.03462608      -0.14415350      -0.21910725
Pt       0.02617865      -0.07851319       6.42059308        9       0.00000000      -0.19320600       0.09083738       0.37474985
Pt       2.53742896      -0.00359630       6.38104527        9       0.00000000       0.17683574       0.09853729       0.36454738
Pt       5.13311466       0.00971273       6.30454028        8       0.00000000      -0.11043972       0.06331118       0.89692417
Pt       7.63085930      -0.06039195       6.42390077        9       0.00000000       0.12659294       0.14426551       0.39422979
Ni       1.29958735       2.25181352       6.34019802        8       1.00000000       0.00971371       0.03554280      -0.05358687
Pt       3.82498911       2.31854407       6.24454292        7       0.00000000      -0.02496774      -0.11101652       0.55189342
Ni       6.36410437       2.23066992       6.37099379        9       1.00000000      -0.00755414      -0.02964231       0.09103914
Pt       8.88815397       2.29643542       6.28629702        8       0.00000000      -0.13664933      -0.11273988       1.01234963
Ni       2.53713433       4.42067119       6.31262344        8       1.00000000       0.04388235      -0.01863171      -0.32801476
Ni       5.10240560       4.42801879       6.36188360        9       1.00000000      -0.08846136       0.01216300      -0.20218326
Ni       7.56870169       4.36962966       6.38952418        9       1.00000000      -0.02292444      -0.01350256      -0.02637791
Ni      10.26617712       4.36485656       6.35198707        9       1.00000000       0.02566299      -0.00173800      -0.24256428
Ni       3.82383112       6.44775763       6.34985217        8       1.00000000      -0.01529820      -0.01205189      -0.19787963
Ni       6.33229986       6.48571371       6.35886718        9       1.00000000      -0.03502446       0.06636751      -0.06778774
Pt       8.94759399       6.43013057       6.44283566        9       0.00000000       0.11288693       0.06576831       0.30056198
Ni      11.49337629       6.48085611       6.35174358        9       1.00000000      -0.02960211       0.05944932      -0.25973837
