64
Lattice="10.210775306977254 0.009863128072434548 -0.00559063987702979 5.113929372960135 8.860028080189801 0.04897519263966021 -0.004564738344793021 0.048809707346041474 8.723758723548052" Properties=species:S:1:pos:R:3:tags:I:1:initial_magmoms:R:1:forces:R:3 unique_id=b1cdb490031a478e8eca6bf30966189e stress="-0.00020383735277348936 2.8985473330354737e-07 5.9172682168969655e-06 2.8985473330354737e-07 -0.00021556656973823612 -2.429350875651669e-05 5.9172682168969655e-06 -2.429350875651669e-05 -0.00017419997259621872" energy=-394.00316708238876 pbc="T T T"
Ni      -0.02209205      -0.01831482       0.07836318        4       1.00000000      -0.06160166      -0.03561509      -0.02225224
Ni       2.57789313      -0.01205881       0.16235815        4       1.00000000       0.08633613       0.00785434       0.16777646
Ni       5.05810902      -0.00120650       0.10901027        4       1.00000000      -0.13918964      -0.00404507       0.15045036
Ni       7.70169943       0.00166263       0.10255580        4       1.00000000       0.11446955       0.03240808       0.12665954
Ni       1.28117240       2.23577367       0.10002823        4       1.00000000       0.02764373       0.10121431      -0.00663021
Ni       3.78558435       2.22133481       0.23130055        4       1.00000000      -0.14832333      -0.00302645       0.26463288
Pt       6.32309093       2.16364733       0.06116229        4       0.00000000      -0.09097545       0.02553399      -0.14353836
Ni       8.99070209       2.19067207       0.19417944        4       1.00000000       0.12497078      -0.02423707       0.28244437
Ni       2.58623808       4.40741903       0.21295188        4       1.00000000       0.03217580       0.03143024       0.26510443
Ni       5.06881286       4.46924453       0.13764124        4       1.00000000      -0.05033335       0.09119389       0.14576848
Pt       7.66703692       4.52752641       0.07900763        4       0.00000000      -0.04664064       0.13396058      -0.10230235
Ni      10.22818584       4.41451614       0.20833042        4       1.00000000       0.03765220       0.02224665       0.32689982
Ni       3.87412580       6.65293048       0.14445968        4       1.00000000       0.03211239       0.03715214       0.13830461
Ni       6.35667610       6.68966557       0.14309319        4       1.00000000      -0.06393219       0.18832064       0.14408613
Ni       8.92635717       6.69936625       0.14306084        4       1.00000000      -0.00444081       0.16461895       0.15883868
Pt      11.49906951       6.69817014       0.08020306        4       0.00000000       0.02157926       0.03352524      -0.22712962
Pt       1.26538845       0.71234224       2.10871281        3       0.00000000      -0.02240131      -0.09446002      -0.03436029
Ni       3.86378035       0.72116883       2.15066055        3       1.00000000       0.04489181      -0.12864613       0.01467183
Ni       6.37728370       0.68380618       2.18575030        3       1.00000000       0.05599950      -0.19303657      -0.10205323
Ni       8.91097010       0.70589161       2.14648058        3       1.00000000      -0.05398884      -0.15716147      -0.01649436
Ni       2.56277602       2.95993812       2.16057175        3       1.00000000      -0.10366754      -0.06540670       0.04159176
Ni       5.06495786       2.97832696       2.17054933        3       1.00000000      -0.00062680       0.02167011      -0.07247061
Pt       7.66860989       2.92448611       2.20463453        3       0.00000000      -0.07204588      -0.03333699      -0.14735244
Ni      10.24574873       2.96982696       2.16212422        3       1.00000000       0.10381095      -0.03067501       0.05650192
Ni       3.86040196       5.20635520       2.16283698        3       1.00000000       0.04638033       0.13966872      -0.06037088
Ni       6.35499535       5.22787855       2.18744640        3       1.00000000      -0.00110784       0.05954610      -0.05691466
Ni       8.94312346       5.24723041       2.20171135        3       1.00000000      -0.01933694       0.13807712      -0.08225182
Pt      11.50085884       5.19026609       2.27204614        3       0.00000000       0.03036069       0.12377234      -0.00216197
Ni       5.09791958       7.37507206       2.17920411        3       1.00000000      -0.04357794      -0.00875460      -0.05011608
Ni       7.68798374       7.38724134       2.19559749        3       1.00000000       0.02016849       0.01907490      -0.05081787
Ni      10.19017641       7.43368149       2.25467008        3       1.00000000      -0.00004653       0.00271486       0.01810445
Ni      12.78260455       7.42405080       2.22286923        3       1.00000000      -0.03775446      -0.06349192      -0.08771458
Pt      -0.01000130       1.47805982       4.33399420        2       0.00000000      -0.05036457       0.05752882       0.05111609
Pt       2.56309848       1.45813443       4.30182117        2       0.00000000       0.00671538      -0.12235583       0.07535952
Pt       5.16197357       1.38528298       4.28484116        2       0.00000000       0.08173343       0.03766364      -0.08290344
Ni       7.64558350       1.46582279       4.33898220        2       1.00000000      -0.00368154       0.02736664      -0.06524529
Ni       1.27841002       3.74404017       4.35622913        2       1.00000000       0.04384070      -0.01777883       0.12821468
Pt       3.77475054       3.75356690       4.25281021        2       0.00000000      -0.10324554       0.04357241       0.00481459
Pt       6.38082400       3.71135550       4.38098487        2       0.00000000       0.02250620       0.01577732      -0.09690940
Pt       9.00030241       3.77257220       4.30387616        2       0.00000000       0.11550083       0.07868849       0.03913009
Ni       2.49535324       5.96510086       4.36780211        2       1.00000000       0.00186610      -0.01999722      -0.01595645
Pt       5.09325448       5.98758917       4.36482419        2       0.00000000      -0.09733790       0.04936923      -0.05997413
Pt       7.71842632       6.04140744       4.35395278        2       0.00000000       0.01816014       0.10236141      -0.08638204
Ni      10.25997989       6.01000482       4.35992738        2       1.00000000       0.00455883       0.07544793      -0.03478026
Pt       3.73633082       8.14489050       4.37680593        2       0.00000000      -0.07406799      -0.01681840      -0.06818595
Ni       6.38214881       8.14292282       4.37615686        2       1.00000000      -0.05293767       0.02461711      -0.08638504
Ni       8.99267306       8.12004154       4.35726064        2       1.00000000       0.07365303      -0.01446123      -0.11124009
Ni      11.47057749       8.09832879       4.37008187        2       1.00000000      -0.08046722      -0.04234651      -0.24188945
Ni      -0.01732543      -0.01996392       6.48905478        1       1.00000000      -0.05788295      -0.17832089      -0.09897057
Pt       2.52460623      -0.05587065       6.51912454        1       0.00000000      -0.02856570      -0.11215939       0.08205388
Ni       5.14846570      -0.01810535       6.46782650        1       1.00000000       0.03473785      -0.14446061      -0.04991637
Ni       7.61698941       0.00550789       6.46737809        1       1.00000000      -0.12756256      -0.11280570      -0.03718046
Ni       1.26929975       2.24076299       6.49575788        1       1.00000000       0.04138357      -0.01145132      -0.12970822
Pt       3.89266746       2.23963123       6.58080687        1       0.00000000       0.10104066      -0.07684214       0.22203865
Ni       6.39618952       2.21721813       6.40675582        1       1.00000000       0.04103633      -0.19290832      -0.30418424
Pt       8.88624185       2.18662871       6.55761008        1       0.00000000       0.01796106      -0.11363724       0.14587408
Pt       2.58450547       4.54780195       6.54467152        1       0.00000000       0.12450658       0.05585706       0.13787273
Ni       5.14358655       4.50115202       6.52624698        1       1.00000000       0.06903003       0.00913177       0.00556311
Ni       7.62777411       4.50369083       6.42791351        1       1.00000000      -0.01022292       0.03033410      -0.25218961
Pt      10.19104853       4.53859273       6.54033150        1       0.00000000      -0.01125730       0.00133899       0.19967312
Ni       3.84088425       6.71953405       6.53344990        1       1.00000000       0.00896894       0.09350719       0.03328942
Ni       6.35893325       6.65933527       6.52642099        1       1.00000000      -0.05931531      -0.11604414      -0.00549938
Ni       8.96130678       6.70175492       6.50480968        1       1.00000000       0.09398674       0.02064750      -0.05668843
Ni      11.48997674       6.75423088       6.38525820        1       1.00000000       0.03716232       0.03708804      -0.27771532
