64
Lattice="10.205628571786637 0.04548123959964397 -0.04642023481391291 5.14220219478222 8.807633779890544 -0.0728841194816505 -0.03790196301142197 -0.04683309828758778 8.713423763038762" Properties=species:S:1:pos:R:3:tags:I:1:initial_magmoms:R:1:forces:R:3 unique_id=9abe6f1c0514435a8769ec0b160a2d54 stress="-0.0003315832038924063 1.7590742983505543e-06 -5.979926258003654e-06 1.7590742983505543e-06 -0.000306742924967629 2.4749815220968086e-05 -5.979926258003654e-06 2.4749815220968086e-05 -0.00023796918470785772" energy=-391.42044593827933 pbc="T T T"
Ni       0.03588118      -0.05559982       0.19056408        4       1.00000000       0.06204867      -0.08701261       0.24948992
Ni       2.48982012      -0.02484023       0.19894634        4       1.00000000      -0.10890973      -0.04131493       0.22068382
Pt       5.09297435      -0.03700239       0.13677383        4       0.00000000      -0.06104057      -0.15335982       0.37978966
Ni       7.67694372      -0.02881517       0.14717373        4       1.00000000       0.02626768      -0.07007348       0.25521917
Ni       1.28074081       2.21301795       0.10485575        4       1.00000000       0.00244951       0.04598015       0.21540386
Pt       3.74559786       2.27336142       0.15962702        4       0.00000000      -0.12935253       0.09624227       0.24806542
Pt       6.39936040       2.29327857       0.06517378        4       0.00000000       0.01433675       0.11571155       0.02023708
Pt       9.01477914       2.29045815       0.07445843        4       0.00000000       0.03985030       0.06141205       0.20491245
Ni       2.53945898       4.45159617       0.07192418        4       1.00000000      -0.01952295       0.05554732       0.13187150
Ni       5.11263316       4.49243827       0.06303603        4       1.00000000      -0.09150713       0.14349884       0.11010417
Ni       7.66883014       4.49380497       0.05523186        4       1.00000000      -0.02686970       0.09895834       0.14661948
Ni      10.25752115       4.47553585       0.04103329        4       1.00000000       0.07909999       0.12108569       0.15213209
Ni       3.85843707       6.58401602       0.05851752        4       1.00000000       0.01387880      -0.02500823       0.10731204
Ni       6.39252670       6.60346753       0.05551065        4       1.00000000      -0.07671160      -0.02323427       0.03416680
Ni       8.91537494       6.56908747       0.11774473        4       1.00000000      -0.11101501      -0.05005638       0.25751470
Ni      11.55071945       6.57695901      -0.00120466        4       1.00000000       0.05904333      -0.05337843       0.00869588
Ni       1.29627397       0.73990832       2.19808839        3       1.00000000      -0.00822874       0.07219081       0.11033476
Ni       3.75042927       0.75489315       2.17716639        3       1.00000000      -0.13017628       0.00115333      -0.13313330
Ni       6.39993846       0.75950679       2.18212628        3       1.00000000       0.06844112      -0.05954115      -0.05834358
Pt       8.95207032       0.75762916       2.17913492        3       0.00000000       0.10122223       0.13445504      -0.08408884
Ni       2.50732065       2.96125859       2.23966819        3       1.00000000       0.04214372       0.01942775       0.04472390
Ni       5.08721871       3.00427994       2.16575879        3       1.00000000      -0.12501659       0.17818409      -0.13381808
Ni       7.66947630       3.00481067       2.18362608        3       1.00000000       0.08691519       0.01522277      -0.03599301
Ni      10.26630736       3.00657571       2.18594939        3       1.00000000       0.06663249      -0.00603033       0.03781814
Ni       3.83251585       5.12874318       2.14525983        3       1.00000000      -0.02845128      -0.00290951       0.03222819
Ni       6.36990561       5.15481130       2.07885628        3       1.00000000      -0.07082645      -0.00759166      -0.07339754
Ni       8.94111469       5.09850489       2.10166735        3       1.00000000       0.03944988      -0.16156946       0.02231721
Ni      11.53146532       5.10813145       2.11885173        3       1.00000000       0.13967941      -0.16919916       0.10474699
Ni       5.15556828       7.27587649       2.09846466        3       1.00000000      -0.02348622      -0.13376975       0.02857122
Ni       7.61209973       7.33261611       2.06510896        3       1.00000000      -0.08548426      -0.06384152      -0.01575236
Pt      10.28014501       7.23829143       2.14214807        3       0.00000000       0.04770936      -0.04636026      -0.11220960
Ni      12.80015309       7.29801230       2.06363160        3       1.00000000       0.11172992      -0.19419659      -0.02756504
Ni       0.04552149       1.48014696       4.28973732        2       1.00000000       0.04466673       0.04076066      -0.00250447
Ni       2.46612904       1.50811573       4.25048104        2       1.00000000      -0.01740486       0.10696708      -0.04661847
Pt       5.09289560       1.48075331       4.17921991        2       0.00000000      -0.10802441       0.03778332      -0.01377434
Ni       7.65707579       1.47697120       4.25265514        2       1.00000000       0.03280627      -0.03006834      -0.04421238
Ni       1.27900998       3.65119400       4.29978800        2       1.00000000       0.03857482       0.01406387      -0.03991831
Ni       3.76317892       3.73193064       4.23640899        2       1.00000000      -0.06019789       0.05147142      -0.14045763
Pt       6.36580068       3.68198723       4.26177923        2       0.00000000      -0.01961460      -0.03779453      -0.04873417
Ni       8.99560005       3.69378912       4.19965016        2       1.00000000       0.09352659       0.00449734      -0.14510613
Ni       2.53966509       5.79178403       4.28440810        2       1.00000000      -0.07198428      -0.07500502      -0.17601512
Ni       5.06805086       5.83286280       4.27184443        2       1.00000000      -0.02651924      -0.11279600      -0.15339118
Pt       7.63870309       5.85889372       4.19192253        2       0.00000000       0.02400391       0.01751084      -0.02472194
Ni      10.28001567       5.81014540       4.25655894        2       1.00000000       0.02667700      -0.10848473       0.02577344
Pt       3.84606845       7.95840754       4.21421470        2       0.00000000      -0.01912503      -0.07521003       0.13586994
Ni       6.36611866       8.07379549       4.18984838        2       1.00000000      -0.10075373       0.05707705      -0.12155495
Pt       8.89331058       8.07761798       4.15862590        2       0.00000000      -0.07602391       0.03497133       0.03650683
Ni      11.52921484       8.01863536       4.19624266        2       1.00000000       0.01512741      -0.07942776       0.00101938
Pt      -0.01780269      -0.07483590       6.49859699        1       0.00000000       0.15229390      -0.05313409       0.09941842
Pt       2.50415185      -0.00795682       6.48359982        1       0.00000000      -0.11338909       0.03037979       0.15420971
Pt       5.10198600      -0.01798391       6.38306196        1       0.00000000       0.13198190       0.02494232      -0.34089860
Pt       7.63094552      -0.04311312       6.45418711        1       0.00000000      -0.07566775      -0.04952552       0.08435467
Ni       1.25176377       2.23907186       6.40251136        1       1.00000000       0.04291929       0.06369399      -0.15006158
Pt       3.78017564       2.32329476       6.35555504        1       0.00000000       0.02410552       0.23940288      -0.28793921
Ni       6.36782388       2.24206617       6.34546019        1       1.00000000      -0.01152834       0.01622752      -0.20366279
Pt       8.92933617       2.30577268       6.28480485        1       0.00000000       0.01370215       0.14763491      -0.42842732
Ni       2.51405240       4.43518845       6.38947998        1       1.00000000       0.00687718       0.07795027      -0.14261581
Ni       5.09980673       4.44648329       6.40447527        1       1.00000000      -0.01998704       0.09244036      -0.07513467
Ni       7.59596614       4.39890966       6.41397215        1       1.00000000      -0.11749621       0.01262535      -0.04676193
Ni      10.27734388       4.40053586       6.35785870        1       1.00000000       0.19386054      -0.01659043      -0.14269771
Ni       3.82837707       6.48593732       6.40126579        1       1.00000000      -0.00659879      -0.11110260      -0.05877118
Ni       6.34549723       6.52284270       6.39855296        1       1.00000000       0.00390849      -0.00202992      -0.11566142
Pt       8.95863686       6.46978742       6.45261755        1       0.00000000       0.03776670      -0.14695173       0.13913402
Ni      11.52907904       6.53365699       6.34307075        1       1.00000000       0.05721742       0.01709796      -0.17530218
