64
Lattice="10.1872914507607 -0.015930184867251618 0.014273658692643331 5.079849780598324 8.763125761061668 -0.038521162764934204 0.01165439351987256 -0.0430467677829744 8.645603026280451" Properties=species:S:1:pos:R:3:tags:I:1:initial_magmoms:R:1:forces:R:3 unique_id=e9d03d360c244698a2b7461b7ca9f55f stress="0.00010572017387169147 1.986954930669707e-06 -8.745618971934571e-06 1.986954930669707e-06 0.00011314949532653662 1.2274281238879022e-05 -8.745618971934571e-06 1.2274281238879022e-05 0.00011601818451836138" energy=-391.59313722897423 pbc="T T T"
Ni       0.03673213      -0.05964954       0.11991856        4       1.00000000       0.11777769      -0.10691632       0.16699501
Ni       2.54299903      -0.01418598       0.12170491        4       1.00000000      -0.02118081      -0.02814772       0.14477635
Ni       5.06079852      -0.06364260       0.21703564        4       1.00000000      -0.07843243      -0.07882906       0.33956501
Ni       7.64132339      -0.08913147       0.21546481        4       1.00000000       0.01358306      -0.04479408       0.29363905
Ni       1.32758468       2.14556761       0.19409523        4       1.00000000       0.07121380      -0.11258117       0.29525207
Ni       3.76028425       2.14476989       0.11476540        4       1.00000000      -0.09706794      -0.12658337       0.14355599
Pt       6.30390590       2.09036602       0.09994469        4       0.00000000      -0.06557079      -0.13468666      -0.11767357
Pt       8.97046694       2.08238922       0.10166307        4       0.00000000       0.07985341      -0.16167872      -0.15367349
Ni       2.53938658       4.38269374       0.21222047        4       1.00000000       0.00594201       0.02262196       0.44215833
Pt       5.00351282       4.42527342       0.07855026        4       0.00000000      -0.07029326       0.06038158      -0.09391461
Pt       7.63208670       4.45576295       0.07837134        4       0.00000000      -0.00654104       0.08875779      -0.04935926
Pt      10.26209482       4.41813596       0.08887792        4       0.00000000       0.07509492       0.07233778      -0.07114758
Ni       3.78930367       6.61178441       0.08985829        4       1.00000000      -0.04765064       0.08493626       0.18216619
Ni       6.35146682       6.63856017       0.08203349        4       1.00000000       0.00918634       0.11003853       0.15991132
Ni       8.91051205       6.63341451       0.09047143        4       1.00000000       0.02784866       0.11504122       0.19712596
Ni      11.47543365       6.59645985       0.10746960        4       1.00000000       0.05011025       0.07880496       0.22649945
Ni       1.28097135       0.70976513       2.15418761        3       1.00000000       0.00950560      -0.08304806       0.05771601
Ni       3.78647511       0.69319981       2.13997081        3       1.00000000      -0.17181593      -0.08731385       0.02382632
Ni       6.37038636       0.65148913       2.17230200        3       1.00000000       0.01971984      -0.15436807      -0.03474303
Ni       8.94898076       0.65267645       2.18809666        3       1.00000000       0.19873046      -0.17967378      -0.04227360
Ni       2.54813285       2.87851700       2.11862663        3       1.00000000       0.03153841      -0.11784593       0.10628636
Ni       5.06738688       2.89191947       2.15625439        3       1.00000000      -0.02448211      -0.02464084      -0.14374646
Ni       7.65909489       2.91015873       2.18049791        3       1.00000000       0.08856208       0.02940416      -0.21209323
Ni      10.18676167       2.87144259       2.18392256        3       1.00000000      -0.08115496      -0.08785913      -0.04001331
Ni       3.80649845       5.14313177       2.14978446        3       1.00000000       0.08158541       0.18838984       0.04579373
Ni       6.35497402       5.15273052       2.18472705        3       1.00000000      -0.04428682       0.23956892      -0.04662955
Ni       8.89695590       5.11929032       2.18852179        3       1.00000000      -0.06694354       0.04805934      -0.02102680
Ni      11.47773662       5.12159185       2.15955468        3       1.00000000      -0.03869957       0.14106600       0.04498565
Ni       5.07806085       7.29137209       2.11772268        3       1.00000000      -0.00495617      -0.03244412       0.01273999
Ni       7.64141838       7.29165178       2.11979973        3       1.00000000       0.03225436       0.00653527      -0.02083913
Ni      10.17404632       7.29492869       2.13007991        3       1.00000000      -0.03588085      -0.01687619       0.11436328
Ni      12.72764983       7.29226820       2.12599126        3       1.00000000       0.01959699       0.01803526       0.12650521
Ni       0.00073231       1.40386455       4.25511159        2       1.00000000       0.08560169      -0.03297657      -0.15194079
Ni       2.54294613       1.39533468       4.26848287        2       1.00000000      -0.03004190      -0.01014724      -0.11838191
Pt       5.06565837       1.36265299       4.22820753        2       0.00000000      -0.08105187      -0.09012293      -0.00520511
Pt       7.71440368       1.40575651       4.23173958        2       0.00000000       0.05162571      -0.09810221      -0.04789700
Pt       1.21403065       3.57734267       4.20115678        2       0.00000000      -0.00194574      -0.06653032       0.07490290
Pt       3.82223953       3.62957205       4.23020573        2       0.00000000      -0.03304445       0.03341977       0.03832844
Pt       6.42673527       3.70224330       4.25649434        2       0.00000000      -0.00698866       0.03880985      -0.18916630
Ni       8.91017002       3.62742634       4.28199521        2       1.00000000       0.01395529       0.03631392      -0.22177703
Pt       2.57606186       5.92671553       4.22441915        2       0.00000000       0.02280299       0.09773177       0.16779981
Ni       5.11142354       5.85736350       4.27531158        2       1.00000000       0.00018718       0.04873476      -0.12623236
Ni       7.62976810       5.84482719       4.27655176        2       1.00000000      -0.03834737       0.09013594      -0.15016799
Pt      10.10616803       5.86379011       4.26567023        2       0.00000000      -0.03025916       0.10085864      -0.01296594
Ni       3.85985507       8.02103548       4.22808068        2       1.00000000       0.05795030       0.02694492      -0.14004851
Pt       6.36239016       8.00287030       4.24828468        2       0.00000000       0.01365625       0.02169896      -0.11254453
Ni       8.86477072       7.99437647       4.23958419        2       1.00000000      -0.06144374       0.04559513      -0.14519571
Ni      11.44881895       8.00318075       4.22932296        2       1.00000000      -0.01086333       0.06133105      -0.08517669
Ni       0.02071325      -0.07296371       6.41287394        1       1.00000000       0.04783859      -0.13452672      -0.05767964
Ni       2.54167695      -0.07608830       6.42371155        1       1.00000000      -0.06394992      -0.15374901      -0.04576099
Pt       5.04088669      -0.07697564       6.47353632        1       0.00000000      -0.09055096       0.00226786       0.18357739
Pt       7.70555958      -0.07359897       6.46041070        1       0.00000000       0.05042960       0.01828619       0.14787692
Pt       1.25555584       2.08185305       6.43959385        1       0.00000000      -0.02932496      -0.05742613       0.15680056
Ni       3.83883383       2.15832407       6.41713085        1       1.00000000       0.03918244       0.03447774      -0.09635293
Ni       6.37533169       2.19605321       6.33741625        1       1.00000000       0.02408494       0.04633035      -0.27490644
Ni       8.91196953       2.19264630       6.32561953        1       1.00000000      -0.05350847       0.12556226      -0.29912350
Pt       2.56590652       4.40581988       6.48835590        1       0.00000000       0.01150370       0.07280634       0.31484349
Ni       5.13869200       4.37787594       6.32753654        1       1.00000000       0.12999950       0.09434902      -0.24927660
Ni       7.66259529       4.37345629       6.31943725        1       1.00000000       0.04105481       0.07437009      -0.25026382
Ni      10.13345601       4.36031764       6.32782469        1       1.00000000      -0.09904785      -0.00055697      -0.22800680
Ni       3.89122180       6.55460467       6.39011801        1       1.00000000       0.26395701      -0.00706649      -0.06782344
Ni       6.37257655       6.53298241       6.37966492        1       1.00000000       0.04793424      -0.06425293      -0.05527316
Ni       8.85555321       6.50733762       6.39627278        1       1.00000000      -0.22411408      -0.06901943      -0.02722167
Ni      11.43037078       6.52737589       6.41584070        1       1.00000000      -0.12442819      -0.01123941      -0.00246831
