64
Lattice="10.191428672993329 0.0013501566430304704 0.023188412642725868 5.096883606448618 8.80487089022086 -0.039411703716164176 0.018933259639927067 -0.04808883315750222 8.728565781086084" Properties=species:S:1:pos:R:3:tags:I:1:initial_magmoms:R:1:forces:R:3 unique_id=f77d546e64ce48c593a7fb82d5b0d0cd stress="9.389945709429443e-05 1.3276143442247786e-06 -5.520449566775713e-06 1.3276143442247786e-06 0.00010361814276690223 1.9697002801809245e-05 -5.520449566775713e-06 1.9697002801809245e-05 0.00010448219011304632" energy=-393.7268785564514 pbc="T T T"
Ni       0.01254767       0.01943740       0.18198794        4       1.00000000       0.05104885       0.06828488       0.28566622
Ni       2.55017276      -0.00511848       0.21210117        4       1.00000000       0.05620185      -0.01991449       0.32053840
Ni       5.10058498      -0.03243595       0.09412306        4       1.00000000       0.02407606      -0.04071828       0.06720188
Ni       7.64824998      -0.02230366       0.16623345        4       1.00000000       0.04188197       0.00147823       0.24217005
Ni       1.23959889       2.20546597       0.10429769        4       1.00000000      -0.07414868       0.02200238       0.20246452
Pt       3.77299312       2.20163733       0.17582652        4       0.00000000      -0.05701036      -0.03384615       0.22414627
Pt       6.42575427       2.20102603       0.09781845        4       0.00000000       0.07993064       0.00340030      -0.01435385
Ni       8.96349884       2.23139647       0.15703649        4       1.00000000       0.11097307       0.07479315       0.18452835
Ni       2.54358306       4.41623300       0.04174431        4       1.00000000      -0.00782223      -0.01382445       0.00686044
Ni       5.07174371       4.41420028       0.06244412        4       1.00000000      -0.05073507      -0.02915001       0.11242187
Ni       7.69882295       4.39656245       0.07417784        4       1.00000000       0.16446981      -0.01031950       0.11285203
Ni      10.18111881       4.38197009       0.07107579        4       1.00000000      -0.05852227      -0.08944754       0.03866926
Ni       3.81332632       6.57926801       0.03264099        4       1.00000000       0.02183855      -0.11035456      -0.00243987
Pt       6.37122274       6.62093895       0.01843617        4       0.00000000       0.01156502      -0.05625692      -0.26266464
Ni       8.93434477       6.58249512       0.13052267        4       1.00000000      -0.00083124      -0.11631932       0.18713642
Ni      11.46412885       6.59038109       0.02951218        4       1.00000000      -0.06531185      -0.07020686      -0.11522168
Ni       1.30207374       0.74081851       2.15121779        3       1.00000000       0.01029518       0.09476418       0.01508265
Ni       3.82982168       0.72561694       2.20599375        3       1.00000000       0.11125997       0.02497581      -0.01279288
Ni       6.34608758       0.76166311       2.24210462        3       1.00000000      -0.00933950       0.09267571       0.12121762
Pt       8.94816524       0.80157563       2.20492010        3       0.00000000      -0.06215381       0.02816828       0.12732881
Ni       2.54592358       2.91898807       2.19975990        3       1.00000000       0.00052054       0.05047492      -0.00017762
Ni       5.08420548       2.90816185       2.23750726        3       1.00000000      -0.07172439      -0.08276530       0.08275701
Ni       7.67443532       2.94143503       2.21297703        3       1.00000000       0.04039082       0.05813452       0.08495414
Ni      10.19139244       2.92723618       2.18589253        3       1.00000000       0.01542338       0.02915721       0.10417219
Ni       3.84133069       5.08054114       2.17277150        3       1.00000000      -0.01388620      -0.11899041       0.03185231
Pt       6.37787919       5.11389436       2.19513589        3       0.00000000      -0.02987278       0.10838711      -0.13383542
Ni       8.91103938       5.09038204       2.18579654        3       1.00000000      -0.00609381      -0.06267914       0.06155318
Pt      11.45495205       5.06369183       2.14207219        3       0.00000000      -0.03215837      -0.03021043      -0.03656678
Ni       5.11283353       7.32526689       2.14414846        3       1.00000000      -0.03248595      -0.05098805      -0.08340757
Ni       7.64979646       7.34405308       2.15632684        3       1.00000000       0.01133009      -0.05648385      -0.04993716
Pt      10.13069019       7.36398117       2.19113796        3       0.00000000      -0.03361370      -0.00606646       0.00674614
Pt      12.76177713       7.30069696       2.13387297        3       0.00000000       0.04591909      -0.03718628      -0.00503882
Ni      -0.00675066       1.46963201       4.32296025        2       1.00000000       0.01384639       0.00477238       0.03972023
Pt       2.59624750       1.45000047       4.23504823        2       0.00000000       0.10887992      -0.01056524       0.14234477
Ni       5.14884187       1.40353610       4.31035339        2       1.00000000       0.02409269      -0.09082545      -0.10674882
Ni       7.63117554       1.45000699       4.33354777        2       1.00000000      -0.00932080      -0.03807077      -0.03753292
Pt       1.25178626       3.68272511       4.37219214        2       0.00000000      -0.03215945      -0.02990900      -0.01020297
Ni       3.84206136       3.70564437       4.29601755        2       1.00000000      -0.06317026       0.07920018      -0.15432112
Pt       6.37638336       3.62857060       4.36195476        2       0.00000000      -0.03765633      -0.04981672      -0.00627861
Ni       8.91926571       3.67555339       4.30816598        2       1.00000000      -0.00083000       0.04500549      -0.16540580
Ni       2.55716175       5.83075492       4.35621949        2       1.00000000      -0.06171403      -0.01593675      -0.09314444
Ni       5.07012976       5.80547516       4.34452759        2       1.00000000      -0.12105759      -0.05743606      -0.12911074
Ni       7.69841154       5.81600821       4.31890018        2       1.00000000       0.18080708      -0.07031342      -0.14518039
Ni      10.19623448       5.86251727       4.32748790        2       1.00000000      -0.00072881       0.02252295      -0.13180252
Pt       3.79180460       8.00686137       4.30033677        2       0.00000000      -0.04040023      -0.01685184       0.16282555
Pt       6.41566661       7.96869213       4.22090767        2       0.00000000       0.02736611      -0.02966693       0.04564349
Ni       8.97616074       8.03290837       4.31236569        2       1.00000000      -0.03051484      -0.02118140       0.04736717
Ni      11.42055940       8.04431999       4.32560484        2       1.00000000      -0.01211879      -0.04541958      -0.04163455
Pt       0.00664712      -0.06054252       6.53704712        1       0.00000000      -0.00018043      -0.04838458       0.16431740
Pt       2.60110891      -0.03505591       6.53702246        1       0.00000000      -0.03900962       0.07545819       0.19456178
Ni       5.10956616      -0.04188778       6.45052874        1       1.00000000      -0.08376719       0.01375327      -0.24379551
Pt       7.54492038      -0.06130940       6.52464051        1       0.00000000      -0.12768204      -0.01356220       0.11359718
Ni       1.28996832       2.21324891       6.47250152        1       1.00000000       0.06260385       0.04104890      -0.03694969
Pt       3.89119520       2.26186368       6.40578610        1       0.00000000       0.04467754       0.21987141      -0.29518973
Ni       6.37781458       2.18947957       6.39563452        1       1.00000000       0.00571847       0.03857012      -0.17230300
Pt       8.92049358       2.26807797       6.47032115        1       0.00000000      -0.02338979       0.14096519       0.01522955
Ni       2.55880673       4.42503189       6.44773749        1       1.00000000       0.04440087       0.14360725      -0.10613312
Ni       5.11064913       4.42785860       6.44938497        1       1.00000000      -0.01268760       0.20591141      -0.08242491
Ni       7.62311878       4.39218654       6.45702835        1       1.00000000      -0.12628575       0.08388783      -0.07336341
Ni      10.23668010       4.38770987       6.47956908        1       1.00000000       0.10440573       0.04284475      -0.02529708
Ni       3.82093608       6.49462330       6.43026583        1       1.00000000      -0.06042938      -0.06975114      -0.15266759
Ni       6.35994585       6.50368302       6.34935736        1       1.00000000       0.00383975      -0.05246722      -0.42177870
Pt       8.97685060       6.49860574       6.44016481        1       0.00000000       0.02732605      -0.02934575       0.07994594
Ni      11.49349056       6.52871983       6.43337857        1       1.00000000       0.04372378      -0.08888395      -0.27817093
