64
Lattice="10.411871325672937 -0.03577028929127581 0.023283697538643868 5.1749576836095015 8.984697098862288 -0.014153033024160822 0.0 0.0 21.598265688094312" Properties=species:S:1:pos:R:3:tags:I:1:initial_magmoms:R:1:forces:R:3 unique_id=42e96cd287bf48ba89c6a900ac72b461 energy=-381.1645956989196 stress="0.00620053531809178 -0.00021448459006486584 0.0002758533392066201 -0.00021448459006486584 0.0060185928603903776 -0.00016862661314632197 0.0002758533392066201 -0.00016862661314632197 -0.000882186744705608" pbc="T T T"
Ni       0.01261013      -0.00520470       0.09490360        1       1.00000000       0.05618023      -0.09207263      -0.05754500
Pt       2.54209652       0.00583314       0.15049223        2       0.00000000      -0.02956072       0.01224223      -0.46514223
Pt       5.18216708      -0.06724950       0.06375178        1       0.00000000      -0.13523192       0.18920150      -0.90042441
Pt       7.85810448      -0.14135807       0.10907375        1       0.00000000       0.01055908      -0.14582706      -0.72203760
Ni       1.29602095       2.27944831       0.02705837        0       1.00000000       0.00428205       0.14403182       0.50145749
Pt       3.82998286       2.33483170       0.05454911        1       0.00000000       0.05123007      -0.00159069       0.16430568
Pt       6.48949760       2.28828939       0.10384220        1       0.00000000       0.09526540       0.11279783      -0.60573353
Pt       9.20828126       2.25285376       0.09952354        1       0.00000000      -0.07380931       0.11086724      -0.37928675
Ni       2.57623619       4.51272161       0.00000000        0       1.00000000       0.07093507       0.09236804       0.40142461
Ni       5.15280310       4.50747117       0.10170165        1       1.00000000      -0.11565710       0.12195863       0.24247871
Pt       7.85078637       4.53412239       0.05425401        1       0.00000000       0.04395905      -0.00076695       0.13302810
Ni      10.43924763       4.48671288       0.01286603        0       1.00000000       0.08837753      -0.00213456       0.39843469
Ni       3.86711313       6.68899381       0.10190088        1       1.00000000      -0.06726349      -0.20324309       0.27004101
Pt       6.41885761       6.71381546       0.12771119        1       0.00000000      -0.13435850      -0.00407093      -0.27681859
Ni       9.10768327       6.68603235       0.00928613        0       1.00000000      -0.03092254       0.04210436       0.20199616
Ni      11.69829801       6.64994477       0.01199468        0       1.00000000       0.10661329      -0.02782170       0.28246221
Ni       1.31353744       0.76711012       2.18791219        4       1.00000000       0.09288739       0.21994860       0.17014976
Ni       3.87820352       0.77286501       2.20825162        4       1.00000000       0.00031344       0.14744007       0.25499126
Pt       6.46519950       0.77902133       2.25789613        5       0.00000000      -0.08523663       0.14489320       0.10648169
Pt       9.22511431       0.70992289       2.22722463        4       0.00000000       0.13543926       0.03523466       0.07636429
Ni       2.60360208       2.98297312       2.18108735        4       1.00000000       0.04038215       0.01469669       0.16780244
Ni       5.15396721       3.03368589       2.21531779        4       1.00000000      -0.22015801       0.19604605       0.25355430
Ni       7.82677956       3.03514712       2.21152992        4       1.00000000       0.12447725       0.18755243       0.23452259
Ni      10.43196755       2.97054300       2.22199631        4       1.00000000       0.13244756       0.04649854       0.23945393
Ni       3.92053337       5.22750344       2.17715542        4       1.00000000       0.13433819      -0.07935692       0.18550304
Ni       6.47643919       5.22461413       2.20717274        4       1.00000000      -0.11661402       0.03661197       0.23290226
Ni       9.06697723       5.18260631       2.20733881        4       1.00000000      -0.08938904      -0.21059098       0.26308574
Pt      11.75384123       5.14854446       2.12513096        3       0.00000000       0.14025778      -0.19161086       0.04875510
Ni       5.17922386       7.43143402       2.16476869        4       1.00000000      -0.10453832      -0.22448337       0.16534539
Ni       7.76542029       7.43629476       2.18478039        4       1.00000000      -0.00746575      -0.24662007       0.15838152
Pt      10.33885176       7.37556241       2.14352388        3       0.00000000      -0.01940296      -0.23921711      -0.17868527
Ni      13.02957612       7.38984267       2.18088319        4       1.00000000       0.07918378      -0.23429725       0.16730136
Ni       0.02999448       1.51224976       4.35467721        8       1.00000000       0.12368769      -0.05438564      -0.25236433
Pt       2.63757491       1.54311537       4.31566572        7       0.00000000       0.03056122      -0.00373515      -0.18528106
Ni       5.18126650       1.51344041       4.37421168        8       1.00000000      -0.04330842       0.19035364      -0.27973248
Pt       7.85637395       1.53493841       4.33857866        7       0.00000000       0.10624486       0.04374831      -0.09808375
Pt       1.30166729       3.73074305       4.40647960        8       0.00000000      -0.01378707       0.01219952      -0.07231510
Ni       3.90615290       3.75436810       4.35355764        8       1.00000000       0.04098048       0.16126203      -0.31610828
Pt       6.48209850       3.80148249       4.27163197        7       0.00000000      -0.07231587       0.10381132      -0.18449010
Ni       9.09993640       3.73307634       4.35724541        8       1.00000000      -0.06852879       0.06017045      -0.38310856
Ni       2.61733050       5.93076021       4.35917036        8       1.00000000       0.09229192      -0.24292624      -0.23856398
Ni       5.17065026       5.93571282       4.32195696        7       1.00000000      -0.12134890      -0.10053235      -0.41256753
Ni       7.80224720       5.92760905       4.34672764        7       1.00000000      -0.04824549      -0.02316686      -0.38235876
Pt      10.35019192       5.88425568       4.44817580        8       0.00000000      -0.05707875      -0.03321981      -0.09197044
Pt       3.90802971       8.14237393       4.28397202        7       0.00000000       0.04767889      -0.18014479      -0.11033428
Pt       6.47450316       8.17733980       4.23854219        6       0.00000000      -0.08346169      -0.04942532      -0.27253509
Pt       9.05928523       8.18789966       4.30275389        7       0.00000000      -0.08617361      -0.05576575      -0.19632916
Pt      11.71267180       8.13816286       4.33757908        7       0.00000000       0.07979301      -0.19280442      -0.13843100
Pt       0.03378219       0.02779835       6.59826569       10       0.00000000       0.01999867       0.09474499       0.10870440
Pt       2.62191105       0.02818061       6.56547920       10       0.00000000      -0.00104531       0.03739438       0.50533116
Pt       5.19560305      -0.07565642       6.52323514        9       0.00000000      -0.00890544       0.12488295       0.84786839
Pt       7.81279819      -0.06400501       6.56325945       10       0.00000000       0.03906455       0.19388979       0.90375206
Ni       1.33246583       2.28735144       6.56671481       10       1.00000000       0.04697541       0.06471483      -0.27711694
Ni       3.87216739       2.25123813       6.50348355        9       1.00000000      -0.02934804       0.00121346      -0.07413679
Pt       6.48760559       2.25007545       6.51811885        9       0.00000000      -0.02576425      -0.04661502       0.57742395
Pt       9.19549313       2.33024969       6.51200072        9       0.00000000       0.09797728       0.13738706       0.51077555
Ni       2.55240273       4.45342673       6.56399991       10       1.00000000      -0.09504803      -0.04401603      -0.37448613
Pt       5.12921775       4.43272509       6.56647819       10       0.00000000      -0.14973484       0.05031284      -0.08253570
Ni       7.84933404       4.48498100       6.49965885        9       1.00000000       0.10775901       0.08596783      -0.22239148
Ni      10.43210136       4.48729907       6.59145951       10       1.00000000       0.04373836       0.04084452      -0.26506396
Pt       3.81722053       6.65174185       6.57282923       10       0.00000000       0.03224114      -0.09841192      -0.02419701
Pt       6.55918875       6.65528246       6.49622909        9       0.00000000      -0.09951943      -0.08573722       0.20784507
Ni       9.12624296       6.65308017       6.57719758       10       1.00000000      -0.08192611      -0.05216699      -0.22625362
Ni      11.67346271       6.63313456       6.58938156       10       1.00000000      -0.00097271      -0.09063406      -0.23549498
