64
Lattice="10.263935477229388 -0.006387160028377724 -0.010181997745923684 5.126436295772086 8.86959577399546 0.017939590394155845 0.0 0.0 21.60927726663782" Properties=species:S:1:pos:R:3:tags:I:1:initial_magmoms:R:1:forces:R:3 unique_id=87b118b092ba4bdd9f3b35537ee94da8 stress="0.004089917376826169 -4.116457424318182e-05 5.191782464921295e-05 -4.116457424318182e-05 0.004147605075976621 0.0002215703082308444 5.191782464921295e-05 0.0002215703082308444 -0.0026587695807159285" energy=-372.68856681334614 pbc="T T T"
Ni       0.06315406       0.02893413       0.17434847        2       1.00000000       0.12906852       0.10640488      -0.60701354
Ni       2.54902099      -0.02697448       0.22761188        2       1.00000000       0.01453307      -0.04216814      -0.21233289
Ni       5.08992414      -0.03382291       0.08865305        1       1.00000000      -0.09546488       0.00835083       0.08393487
Pt       7.72110478      -0.05701743       0.00000000        0       0.00000000       0.06369285       0.00354104      -0.55039247
Ni       1.24063427       2.23991739       0.14099124        1       1.00000000       0.01759906       0.04998866       0.37932645
Pt       3.77485411       2.23012223       0.23046894        2       0.00000000      -0.02569643       0.04858072      -0.62674636
Pt       6.44908458       2.31806791       0.05976561        1       0.00000000      -0.03462969       0.19447037      -0.34712409
Ni       9.03275310       2.27966413       0.09257305        1       1.00000000      -0.01883405       0.07930356       0.15867767
Ni       2.52712261       4.46395111       0.13959043        1       1.00000000      -0.04743379      -0.00941335       0.39059196
Ni       5.10257642       4.47731722       0.19765891        2       1.00000000      -0.16871466      -0.02770915      -0.29900274
Ni       7.75367704       4.46988998       0.10431482        1       1.00000000       0.18182034       0.08786995       0.08083006
Ni      10.26716717       4.42622631       0.12602006        1       1.00000000       0.01535317       0.11985306       0.35559347
Ni       3.85732743       6.59518020       0.09260806        1       1.00000000      -0.03510650      -0.08784595       0.05702007
Ni       6.43929578       6.65296808       0.08824587        1       1.00000000       0.12277864       0.03648263       0.07563111
Ni       8.95164764       6.62988953       0.17863477        2       1.00000000      -0.13287693      -0.11574169      -0.06786155
Ni      11.51720243       6.58976552       0.08432808        1       1.00000000      -0.07422090      -0.09742652       0.20041796
Ni       1.32891442       0.78484458       2.17923808        3       1.00000000       0.08678206       0.14595978       0.00499954
Ni       3.79162126       0.71364971       2.22787392        3       1.00000000      -0.02176676      -0.09847441       0.14714954
Pt       6.36674232       0.76162077       2.21005465        3       0.00000000      -0.04158669       0.05945912       0.03202894
Pt       9.06056304       0.84282962       2.19952431        3       0.00000000       0.04906414       0.05863465       0.05410089
Ni       2.52735168       3.00669265       2.24057918        3       1.00000000      -0.04882275       0.11869987       0.03455081
Ni       5.08042434       2.99894251       2.25977803        4       1.00000000      -0.07199440      -0.01575029       0.22733790
Ni       7.73950078       2.99925428       2.21267061        3       1.00000000       0.06355208      -0.00383590       0.02865323
Ni      10.30020788       3.01024849       2.18471032        3       1.00000000       0.08342386       0.09288070      -0.01777682
Ni       3.82093419       5.10745152       2.24021830        3       1.00000000      -0.02145293      -0.13822334       0.10157569
Pt       6.46514946       5.15443242       2.18299280        3       0.00000000       0.11096183      -0.01386100       0.02257166
Ni       8.99664376       5.13859393       2.20358445        3       1.00000000       0.10457671      -0.09831317      -0.01711899
Ni      11.52510468       5.11148896       2.19359646        3       1.00000000      -0.08766208      -0.06820372      -0.06129213
Pt       5.16608215       7.37333620       2.16825717        3       0.00000000      -0.06492006      -0.04677008      -0.02723109
Ni       7.70423857       7.40417258       2.21761224        3       1.00000000      -0.01131612      -0.03462599       0.11073483
Pt      10.17321518       7.32742227       2.25000204        4       0.00000000      -0.03178036      -0.07494032       0.02649116
Pt      12.79616098       7.26621408       2.23720550        3       0.00000000      -0.01472736      -0.17103073      -0.00931383
Ni       0.00806380       1.50543686       4.40739167        6       1.00000000       0.03379686      -0.00523963      -0.08111850
Pt       2.52120748       1.49907830       4.29018841        5       0.00000000      -0.02471419      -0.02985954      -0.05646915
Pt       5.10222511       1.42793628       4.39268288        6       0.00000000      -0.07331421      -0.11876608      -0.05945252
Pt       7.73170743       1.47991933       4.45200951        7       0.00000000       0.07798061      -0.04545869      -0.08944602
Pt       1.31149736       3.78758923       4.39585211        6       0.00000000       0.01502731       0.05172598       0.01199983
Ni       3.83268715       3.77126506       4.35555174        6       1.00000000       0.01319940       0.06046736      -0.19457404
Pt       6.37924430       3.75877518       4.38992505        6       0.00000000      -0.03486086       0.06003383      -0.04939836
Pt       9.00564031       3.77268061       4.39544756        6       0.00000000       0.05269518       0.13577414       0.00818483
Ni       2.55033718       5.90432273       4.44688894        6       1.00000000      -0.00501594      -0.01800429       0.00810637
Ni       5.08939901       5.90424751       4.40276647        6       1.00000000      -0.00312233      -0.09110154      -0.17324072
Ni       7.71956312       5.93568869       4.39582226        6       1.00000000       0.09024044       0.01176656      -0.14757057
Ni      10.28161684       5.95860768       4.40379656        6       1.00000000       0.04356961       0.04663322      -0.06628799
Pt       3.80183324       8.04845877       4.44675364        6       0.00000000       0.01565810      -0.03407987      -0.05567135
Pt       6.44529069       8.06141841       4.37553736        6       0.00000000       0.06418934      -0.12841857       0.01025798
Ni       8.99841957       8.08844792       4.39721848        6       1.00000000      -0.04937423      -0.07843276      -0.07663641
Ni      11.49967520       8.06519567       4.44951844        6       1.00000000      -0.07995014      -0.11274560      -0.07861738
Pt      -0.06575374       0.04343445       6.60787319       10       0.00000000      -0.16427574       0.13461214       0.27667533
Pt       2.58206178      -0.01024317       6.60927727       10       0.00000000       0.13224471      -0.03790813       0.20835947
Ni       5.18205169      -0.02329214       6.52606254        9       1.00000000      -0.01943747      -0.07760976      -0.10020067
Ni       7.63064764      -0.02637008       6.44265765        8       1.00000000      -0.05918811      -0.09807288       0.60394202
Ni       1.23138972       2.27576347       6.55543072       10       1.00000000      -0.04088676      -0.02325416      -0.16041855
Pt       3.82248239       2.28325307       6.52620547        9       0.00000000       0.06550062       0.26228318       0.77759958
Ni       6.44062272       2.21925387       6.47486780        9       1.00000000      -0.08991047       0.08055049       0.53875468
Ni       8.97747653       2.26620200       6.55791495       10       1.00000000       0.02433328       0.04074746      -0.07371234
Ni       2.51987195       4.50171011       6.55076593       10       1.00000000       0.06060565       0.07507788      -0.19325587
Pt       5.11689688       4.53927024       6.59406280       10       0.00000000      -0.16442718      -0.12333214       0.24274981
Ni       7.70392379       4.42833850       6.56229649       10       1.00000000       0.02784225      -0.03914575      -0.08649232
Ni      10.28615063       4.42626636       6.56618064       10       1.00000000       0.03971718       0.00256143      -0.19449703
Ni       3.78839217       6.65069281       6.55919450       10       1.00000000      -0.11236285       0.04113305      -0.04709583
Ni       6.40611185       6.64621366       6.55080550       10       1.00000000       0.08103655       0.05319367      -0.05475748
Pt       9.02612242       6.58606204       6.54536571        9       0.00000000       0.06456906      -0.00965386      -0.05150169
Ni      11.56888471       6.65561569       6.51812003        9       1.00000000       0.02443533      -0.05162321      -0.32522640
