64
Lattice="10.522811264261723 0.05018540942977315 -0.0017195363168797406 5.304867471596364 9.2043578562068 0.010470491282385459 -0.0014039955235132773 0.010682271044280656 9.116271185388216" Properties=species:S:1:pos:R:3:tags:I:1:initial_magmoms:R:1:forces:R:3 unique_id=f55c17052708464b8a452b1afcdcc7cc stress="0.004173597809086674 6.857074219135154e-05 -2.2411171455747494e-06 6.857074219135154e-05 0.004276805313280813 -3.3402698896798045e-06 -2.2411171455747494e-06 -3.3402698896798045e-06 0.0033934833880815973" energy=-414.31032250667806 pbc="T T T"
Ni      -0.01217752      -0.02257091       0.13220444        4       1.00000000      -0.08537274      -0.00187296       0.12695811
Ni       2.61690536       0.01630317       0.07441675        4       1.00000000      -0.01960328      -0.03603420       0.11886565
Pt       5.25790057       0.04518271       0.12670615        4       0.00000000       0.07524323      -0.03365632      -0.12869582
Ni       7.92022562       0.00975876       0.16276818        4       1.00000000       0.03921162      -0.05960800       0.22415946
Pt       1.39510180       2.24496314       0.14026558        4       0.00000000       0.01620178      -0.09169459       0.02323259
Ni       3.94937404       2.31988501       0.07365868        4       1.00000000       0.02322094       0.03069941       0.06988037
Pt       6.54818678       2.29780401       0.17033323        4       0.00000000      -0.03859750       0.02270676       0.00637726
Pt       9.25216955       2.25953659       0.14611436        4       0.00000000       0.04025639      -0.03250486       0.03399797
Ni       2.66291311       4.59641486       0.14435767        4       1.00000000      -0.03121573      -0.00083813       0.14923728
Pt       5.18167656       4.61497479       0.06248843        4       0.00000000      -0.11913451       0.07159184      -0.08069221
Pt       7.90499951       4.64112765       0.14456186        4       0.00000000      -0.03130920       0.04411363      -0.02831867
Pt      10.60229735       4.63679419       0.21974583        4       0.00000000       0.03025434      -0.02229999       0.12752013
Ni       3.98095264       6.93327536       0.15032278        4       1.00000000       0.05154382       0.13656415       0.16833855
Pt       6.53704439       7.02001576       0.07790510        4       0.00000000      -0.08578960       0.09972211      -0.12373223
Pt       9.20927418       6.96657156       0.17926578        4       0.00000000      -0.06260889      -0.01829121       0.02645884
Pt      12.00084956       6.93236039       0.17439189        4       0.00000000       0.13465295      -0.04157885       0.01428274
Pt       1.28492221       0.69042907       2.32251251        3       0.00000000      -0.02741183      -0.06381613       0.07831216
Pt       3.94655474       0.81037995       2.24934477        3       0.00000000      -0.04940167       0.01360199      -0.08369800
Ni       6.59298230       0.78262658       2.28365325        3       1.00000000       0.01318848      -0.05021270       0.03727299
Pt       9.19674722       0.69301018       2.31440609        3       0.00000000      -0.02728402      -0.06752108       0.12024300
Pt       2.67349086       3.13271226       2.27221094        3       0.00000000       0.07769511       0.04059602       0.02395011
Ni       5.26273555       3.09894625       2.29552560        3       1.00000000      -0.03290850       0.12890019      -0.00036946
Pt       7.89691001       3.08939649       2.32135434        3       0.00000000      -0.03432684      -0.01822907       0.04824009
Ni      10.54596965       3.11466375       2.31677998        3       1.00000000       0.04948227      -0.12132620       0.09767826
Pt       3.92304395       5.46241364       2.36007919        3       0.00000000      -0.03715421       0.06819902       0.08303339
Pt       6.56787312       5.46884626       2.31822694        3       0.00000000      -0.08805876       0.07924403      -0.10588288
Ni       9.24676745       5.40049803       2.30621822        3       1.00000000      -0.03371405       0.00186632       0.06866888
Ni      11.87055226       5.41502813       2.31663573        3       1.00000000       0.03437161       0.03282982       0.12345302
Ni       5.27717718       7.67702367       2.33409885        3       1.00000000      -0.03294447      -0.03367581       0.15409498
Ni       7.90452133       7.69178414       2.30951535        3       1.00000000      -0.04382578       0.00659591       0.02669643
Pt      10.59345546       7.67218886       2.31526121        3       0.00000000       0.05371115       0.00937816       0.01336898
Ni      13.22321220       7.71543661       2.31267923        3       1.00000000       0.04786516      -0.01132665       0.11269802
Ni       0.01851772       1.48482943       4.51925276        2       1.00000000      -0.00575526      -0.09188595      -0.08468229
Pt       2.60006639       1.52857181       4.55024568        2       0.00000000       0.00907082      -0.02840934      -0.07478404
Pt       5.24096798       1.60977475       4.46958644        2       0.00000000       0.00173150       0.00455991      -0.16437544
Pt       7.94495568       1.52289511       4.49752924        2       0.00000000       0.01732708      -0.00873528       0.03774368
Pt       1.39309776       3.85587031       4.46636227        2       0.00000000       0.03500643       0.04455021      -0.02231544
Ni       3.95594362       3.88675479       4.54203481        2       1.00000000      -0.05660216       0.06249557      -0.08846485
Pt       6.48239647       3.92440037       4.51218772        2       0.00000000      -0.07118501       0.08488175      -0.12264936
Pt       9.25007074       3.85953158       4.45064666        2       0.00000000      -0.00249832       0.00797853      -0.05121104
Ni       2.72519516       6.13560870       4.52281487        2       1.00000000       0.09044992       0.02259226       0.00972912
Ni       5.23999132       6.19559717       4.54399859        2       1.00000000      -0.08187733       0.12416912      -0.11020919
Pt       7.82551995       6.22779148       4.49759210        2       0.00000000      -0.07501884       0.03881316      -0.09514194
Pt      10.58301786       6.15824225       4.46648590        2       0.00000000      -0.01025794       0.03005687      -0.00310217
Ni       4.04807743       8.39259483       4.51722181        2       1.00000000       0.12265766      -0.11403189      -0.06623395
Ni       6.55109190       8.44476079       4.53514529        2       1.00000000      -0.14854804      -0.01818842      -0.12358416
Pt       9.18131176       8.46746707       4.50332565        2       0.00000000       0.00396502       0.01188721      -0.12945368
Pt      11.97444866       8.44506644       4.46126624        2       0.00000000       0.11623711      -0.03850794      -0.02183353
Pt       0.08334932      -0.05008672       6.73947801        1       0.00000000       0.05728399      -0.02426637       0.02309279
Ni       2.62255089       0.01875994       6.76924743        1       1.00000000       0.00225257      -0.02107896      -0.12998976
Pt       5.18734562       0.07772918       6.72212475        1       0.00000000       0.00113997       0.00116138      -0.10604066
Pt       7.91262212       0.02869247       6.80569440        1       0.00000000       0.03997119      -0.04117261       0.13691820
Pt       1.38485585       2.26534298       6.72805470        1       0.00000000       0.01265506      -0.00439064       0.02468394
Ni       3.95293111       2.32666229       6.76896692        1       1.00000000       0.01643618      -0.01856143      -0.17081956
Pt       6.50905397       2.37610446       6.74115713        1       0.00000000      -0.03715817      -0.00028401      -0.00433195
Pt       9.23578933       2.33138717       6.71503051        1       0.00000000       0.02647213      -0.01468894       0.01925102
Pt       2.75611966       4.56460215       6.77703242        1       0.00000000       0.07682653      -0.04831273       0.07646768
Ni       5.27092723       4.62593723       6.69523453        1       1.00000000       0.00606240       0.00968459      -0.19719048
Pt       7.83304675       4.68161499       6.72704341        1       0.00000000      -0.03084830       0.01121338      -0.02546943
Pt      10.55476304       4.64754398       6.75872295        1       0.00000000       0.01400694      -0.00883260       0.08434680
Pt       4.06532008       6.86844393       6.73233592        1       0.00000000       0.04581836      -0.02744572       0.03746499
Ni       6.59691743       6.93456246       6.69985009        1       1.00000000      -0.00977340      -0.00264807      -0.21345787
Pt       9.15515499       6.98269227       6.75005027        1       0.00000000      -0.02615656       0.01405362       0.02829273
Pt      11.90003686       6.93531773       6.72868494        1       0.00000000       0.05407118      -0.03877930       0.00171983
