64
Lattice="9.978703525917298 0.017868638062022216 -0.05807661474840812 5.0048264574513865 8.669495321248187 -0.00088935160758202 0.0 0.0 21.40368702549963" Properties=species:S:1:pos:R:3:tags:I:1:initial_magmoms:R:1:forces:R:3 unique_id=4cba929cc2f240cf98ed31eaae75bf05 energy=-362.49392000906613 stress="0.004000114278449955 0.00015570717675461555 -0.0004872156664598489 0.00015570717675461555 0.0041351949404978185 0.00046214922603949997 -0.0004872156664598489 0.00046214922603949997 -0.0022799794811669194" pbc="T T T"
Ni       0.00478274      -0.00215445       0.16041933        2       1.00000000       0.06005606       0.00561498       0.24944462
Ni       2.46880644       0.00039670       0.15059209        2       1.00000000      -0.05762537       0.02668234       0.23344005
Ni       4.93263019       0.07592537       0.07716559        1       1.00000000      -0.01581925      -0.02111760      -0.04805212
Ni       7.53526867       0.06856703       0.07686467        1       1.00000000       0.02592555      -0.08599807       0.00088013
Ni       1.24127552       2.09353040       0.25460996        3       1.00000000      -0.01325504       0.00436793      -0.23119196
Ni       3.76735138       2.12102298       0.23476749        2       1.00000000      -0.01209113       0.05963886      -0.35500050
Ni       6.23964423       2.21297631       0.09561928        1       1.00000000      -0.07789647       0.07949402      -0.05181759
Ni       8.69326135       2.12849528       0.11202032        1       1.00000000       0.06307349       0.06382290       0.11906264
Pt       2.59144041       4.28375866       0.09585403        1       0.00000000       0.01257440      -0.02671310      -0.40341369
Ni       5.05691750       4.35306435       0.24832537        2       1.00000000      -0.10386145       0.02699969      -0.49441067
Ni       7.41160111       4.35285950       0.12745486        1       1.00000000       0.06115656       0.06096716       0.01703828
Pt       9.87974288       4.29958426       0.04704260        0       0.00000000       0.04312620      -0.00327805      -0.32332329
Ni       3.82522081       6.54797980       0.15621528        2       1.00000000      -0.02023235      -0.01244349       0.14428353
Ni       6.23829048       6.52344476       0.14100042        1       1.00000000      -0.05340651       0.02561941       0.22946164
Ni       8.64478240       6.54512970       0.09129632        1       1.00000000      -0.04616499      -0.02557458       0.06599555
Pt      11.25038274       6.61743538       0.00000000        0       0.00000000       0.08414666      -0.07012188      -0.47059646
Ni       1.22870595       0.70621704       2.21764297        5       1.00000000      -0.03266237      -0.05156902       0.17340188
Ni       3.66324728       0.76107858       2.20074855        5       1.00000000      -0.06934990      -0.05055006       0.19778684
Pt       6.26270256       0.79265780       2.17456490        5       0.00000000       0.03286474      -0.01328497      -0.09469546
Ni       8.77823673       0.73601116       2.15831318        5       1.00000000       0.02825187      -0.04449579       0.10196103
Ni       2.50400115       2.82872644       2.24347346        5       1.00000000      -0.07043257       0.05114730       0.15283792
Ni       4.95121429       2.93295596       2.17180988        5       1.00000000      -0.06889542       0.03063526       0.10517486
Ni       7.51895984       2.94069092       2.13331810        4       1.00000000       0.04091537       0.02925979       0.02923686
Ni       9.94745560       2.84032054       2.19578586        5       1.00000000       0.02954635       0.01784302       0.08782937
Ni       3.81010319       5.08986200       2.24078454        5       1.00000000      -0.03351663       0.04760567       0.12910655
Ni       6.23933669       5.10989714       2.16929858        5       1.00000000       0.01325107       0.13592141       0.11324882
Ni       8.64923887       5.05414844       2.20526355        5       1.00000000       0.00734807       0.01088524       0.09620688
Pt      11.25208011       5.03269746       2.25642717        6       0.00000000       0.02035266      -0.03700513       0.01281424
Ni       5.00387991       7.24386239       2.20434696        5       1.00000000      -0.02651586       0.03335790       0.13806666
Ni       7.40218599       7.24484924       2.19118800        5       1.00000000      -0.05088540       0.02547072       0.14573306
Pt       9.88442642       7.25961739       2.22607908        5       0.00000000      -0.11243518      -0.02169390      -0.08201075
Ni      12.55954535       7.26071293       2.18573100        5       1.00000000       0.00891456      -0.03074990       0.05975414
Ni      -0.04470623       1.42651853       4.25291342        8       1.00000000       0.09676604      -0.04804345      -0.02478468
Ni       2.45717996       1.42814325       4.22779699        7       1.00000000      -0.03551449      -0.00635125      -0.01796942
Ni       4.96216996       1.42152153       4.25407472        8       1.00000000      -0.08205077       0.03275936      -0.01471701
Ni       7.51273525       1.43490925       4.28606663        8       1.00000000       0.06528178       0.01397899      -0.07377584
Ni       1.22186802       3.59677989       4.30787244        8       1.00000000       0.02757780      -0.17417794      -0.11326747
Ni       3.68635324       3.63615865       4.23299939        7       1.00000000       0.02163545      -0.03752110      -0.08245936
Pt       6.25298560       3.62778214       4.21462120        7       0.00000000      -0.00527768      -0.02003475       0.12460695
Ni       8.75375474       3.62567126       4.24470673        7       1.00000000       0.05695549      -0.06078199      -0.10632301
Ni       2.51701715       5.82606386       4.32242841        8       1.00000000       0.13437261       0.03236325      -0.13837253
Ni       4.96700619       5.86342455       4.24988163        7       1.00000000       0.07201732      -0.00721691      -0.05095312
Ni       7.48548836       5.84155912       4.27605487        8       1.00000000      -0.03198163       0.03325513      -0.07375709
Ni       9.93579262       5.80602968       4.29880243        8       1.00000000      -0.05636039      -0.01757666      -0.10916855
Ni       3.74098235       7.96358262       4.29746045        8       1.00000000       0.05825997       0.00861484      -0.13445326
Ni       6.22077736       7.96582589       4.27803867        8       1.00000000      -0.02849667       0.03036472      -0.04928079
Ni       8.69103585       7.97574294       4.31572827        8       1.00000000      -0.08460884       0.03111971      -0.00557011
Ni      11.24039705       7.97764003       4.29003160        8       1.00000000       0.06993031       0.02111762      -0.07838573
Ni      -0.06144086      -0.02947022       6.34058575       10       1.00000000      -0.01735305       0.01324744      -0.23993591
Ni       2.46267402      -0.05295893       6.33227378       10       1.00000000       0.00535226       0.08743231      -0.14657650
Ni       4.99862272      -0.04173597       6.30314513       10       1.00000000       0.03517850      -0.04810825      -0.02832605
Ni       7.45892023       0.02233452       6.29372494       10       1.00000000       0.01312738      -0.08502556      -0.15437139
Pt       1.14642020       2.16159707       6.37083205       11       0.00000000      -0.00901453       0.01232343       0.19414953
Pt       3.75412427       2.11844584       6.35590181       11       0.00000000      -0.01974544       0.07220163       0.21263994
Ni       6.27411434       2.14143208       6.33230857       10       1.00000000      -0.10148009       0.02090979      -0.01774295
Ni       8.65326551       2.18422804       6.29907594       10       1.00000000       0.09610916       0.00313076      -0.15840095
Ni       2.43655717       4.40153047       6.23780428        9       1.00000000       0.06748084      -0.05340808       0.42705121
Pt       4.98609726       4.43698712       6.40368703       11       0.00000000      -0.08597183       0.04237551       0.33282038
Ni       7.52816441       4.37306573       6.33567685       10       1.00000000       0.01967122       0.06651686      -0.10666507
Ni       9.93465065       4.40532125       6.19665976        9       1.00000000      -0.01560085      -0.03768943       0.46963194
Ni       3.69722313       6.57666197       6.33675884       10       1.00000000      -0.01699568      -0.03300650      -0.16446733
Ni       6.25005646       6.57323973       6.32940812       10       1.00000000      -0.00925973      -0.07194141      -0.18919934
Ni       8.71818474       6.52879848       6.30527652       10       1.00000000       0.07843495      -0.06597540      -0.07655823
Ni      11.21077035       6.53850260       6.17890910        9       1.00000000       0.01510284       0.00440927       0.54632870
