64
Lattice="10.195336640896503 -0.00257633227898052 0.0038000378801697357 5.095437151246063 8.814088914528828 -0.02857397798219905 0.0 0.0 21.527927003682223" Properties=species:S:1:pos:R:3:tags:I:1:initial_magmoms:R:1:forces:R:3 unique_id=6628e1c086da44d6b5e1bad44531943e energy=-370.4929824636429 stress="0.0036814983234979334 1.6853306273972166e-05 7.634865929677593e-05 1.6853306273972166e-05 0.0035060699356521275 -0.00043212347442027414 7.634865929677593e-05 -0.00043212347442027414 -0.003027430949025187" pbc="T T T"
Ni       0.01417009       0.01757792       0.15250068        2       1.00000000       0.14879070      -0.02222098      -0.52129834
Ni       2.55155079      -0.00366309       0.18762605        2       1.00000000       0.02860568      -0.00628216      -0.30807254
Ni       5.10444841      -0.03122715       0.06499735        1       1.00000000      -0.02581556       0.06873786       0.14329995
Ni       7.64829970      -0.02612401       0.03738201        0       1.00000000      -0.00005435      -0.00610310      -0.04525575
Ni       1.23518690       2.21060111       0.08228532        1       1.00000000       0.00547826       0.00147286       0.30374247
Pt       3.77158985       2.20641682       0.16947430        2       0.00000000       0.02021516       0.02886415      -0.78955471
Pt       6.43225063       2.20168077       0.06283856        1       0.00000000      -0.03807826       0.02166982      -0.13426823
Ni       8.96374757       2.23146777       0.04702017        0       1.00000000       0.02207971       0.09784257       0.14015048
Ni       2.54075973       4.42268992       0.03241805        0       1.00000000       0.02559398      -0.03422749       0.09570634
Ni       5.07281047       4.41665270       0.04652783        0       1.00000000      -0.09704313      -0.05049952       0.10941028
Ni       7.70063283       4.39715558       0.04956683        0       1.00000000       0.15188573       0.04482473       0.14868546
Ni      10.17961565       4.38147407       0.03868149        0       1.00000000      -0.08220377       0.01773194       0.13642832
Ni       3.80998173       6.59030606       0.02093576        0       1.00000000       0.07619521      -0.07274907       0.07037454
Pt       6.36958654       6.63237447       0.00093390        0       0.00000000       0.04990525       0.13728844      -0.31174043
Ni       8.93120344       6.59034662       0.11073463        1       1.00000000      -0.07840560      -0.13796845      -0.18450254
Ni      11.46566807       6.60106619       0.00000000        0       1.00000000      -0.08533376      -0.07729810       0.05908769
Ni       1.29969216       0.74172662       2.12576339        3       1.00000000       0.05581075       0.06852869      -0.02815495
Ni       3.80375020       0.71661947       2.16853355        4       1.00000000      -0.00101435      -0.03761182       0.08646872
Ni       6.35911023       0.74553856       2.15707401        4       1.00000000      -0.01079084       0.06399537       0.03225425
Pt       8.96569868       0.79224474       2.12281128        3       0.00000000      -0.03069016       0.00418536       0.00544272
Ni       2.53548185       2.92995824       2.18239066        4       1.00000000      -0.03112991       0.02794942       0.08555500
Ni       5.08445540       2.93653198       2.19657547        4       1.00000000      -0.01904438       0.04519759       0.19314436
Ni       7.67995856       2.95637895       2.16622074        4       1.00000000       0.06458630       0.10774478       0.13881304
Ni      10.18836558       2.93135349       2.14783582        3       1.00000000       0.01277263       0.03152708       0.07503554
Ni       3.83608299       5.09361097       2.15891774        4       1.00000000       0.01335859      -0.12652648       0.02629833
Pt       6.37587241       5.13244431       2.16680266        4       0.00000000       0.00036175       0.00756141      -0.03123473
Ni       8.90902464       5.09808608       2.16235236        4       1.00000000      -0.02487063      -0.08124629       0.07807274
Pt      11.45394031       5.07071831       2.11422943        3       0.00000000      -0.03788430      -0.01515784      -0.01976823
Ni       5.10990772       7.33481620       2.13487080        3       1.00000000      -0.01381140      -0.04666678       0.02597898
Ni       7.64167293       7.35604844       2.14676369        3       1.00000000      -0.02281950      -0.03360747       0.09794925
Pt      10.12678246       7.36450146       2.16617880        4       0.00000000      -0.01839454       0.01486830       0.10211786
Pt      12.76511145       7.31650652       2.10069200        3       0.00000000       0.05774420      -0.00654237      -0.05388755
Ni      -0.00196543       1.48446921       4.33043555        6       1.00000000       0.01526660      -0.02858430      -0.08676622
Pt       2.51777128       1.46510052       4.22806200        5       0.00000000      -0.03047085      -0.09662827      -0.05454358
Pt       5.11057556       1.39152240       4.26404803        6       0.00000000      -0.06141254      -0.14132995      -0.10889067
Pt       7.70203933       1.47479686       4.36429159        7       0.00000000       0.10375319       0.00158906      -0.01390085
Pt       1.23271287       3.70768568       4.36970852        7       0.00000000      -0.03864381       0.03225144       0.03722399
Ni       3.81761845       3.73297102       4.28851667        6       1.00000000      -0.05721345       0.05984350      -0.19127496
Pt       6.37166176       3.72787664       4.36695550        7       0.00000000      -0.05777041       0.05202145      -0.02573965
Ni       8.93243664       3.69907855       4.32580730        6       1.00000000      -0.01757863       0.14991244      -0.07927643
Ni       2.54205310       5.83957689       4.35196147        7       1.00000000      -0.10178427      -0.06615672      -0.07993409
Ni       5.05501944       5.83015178       4.33246462        6       1.00000000      -0.11428792      -0.07226228      -0.12006730
Ni       7.70002501       5.84593086       4.30359392        6       1.00000000       0.21949145      -0.03371286      -0.19546726
Ni      10.19070283       5.87378214       4.31068765        6       1.00000000      -0.02287791       0.02928588      -0.13676377
Pt       3.78284629       7.98020489       4.33041351        6       0.00000000      -0.04581709      -0.05810800      -0.00088506
Pt       6.39375574       7.97984413       4.22382415        5       0.00000000       0.04009963      -0.08432136      -0.10919331
Ni       8.94493413       8.01803773       4.29717473        6       1.00000000      -0.05899748      -0.05926320      -0.07842249
Ni      11.44516034       8.00449266       4.34808360        6       1.00000000      -0.05507602      -0.14593819      -0.00022167
Pt      -0.06698095       0.00934471       6.52792700       10       0.00000000      -0.02763135       0.05896861       0.39972310
Pt       2.57456474      -0.02795143       6.51925302       10       0.00000000       0.11413940      -0.03090236       0.40100318
Ni       5.15890936      -0.04191890       6.45523174       10       1.00000000      -0.01961365       0.00879071      -0.09956422
Ni       7.59006371      -0.04085317       6.47834134       10       1.00000000      -0.04220377      -0.00274506      -0.01142871
Ni       1.23518138       2.22921170       6.46812593       10       1.00000000       0.02074472      -0.02711292      -0.02169191
Pt       3.84843548       2.28773176       6.42659097        9       0.00000000       0.05203183       0.21997909       0.80248676
Ni       6.40554489       2.18851379       6.40794007        9       1.00000000      -0.03607078       0.04376252       0.45063330
Ni       8.91889619       2.23707711       6.46583728       10       1.00000000       0.02803435       0.12520212      -0.04362751
Ni       2.54008755       4.44968689       6.44354693        9       1.00000000       0.06574495       0.07713424      -0.13534539
Ni       5.09703192       4.44858739       6.44742384        9       1.00000000      -0.07763581       0.06383746      -0.02873444
Ni       7.65131977       4.36603221       6.45386364       10       1.00000000       0.09068032      -0.02431516      -0.04811494
Ni      10.20003204       4.36292093       6.45886151       10       1.00000000      -0.05745516       0.01258617      -0.06420774
Ni       3.79355298       6.53777729       6.43595283        9       1.00000000       0.00983146      -0.02070111      -0.14003391
Ni       6.34340140       6.52724866       6.34127345        8       1.00000000       0.02233924      -0.02488304       0.21982746
Pt       8.97375864       6.51178453       6.42927895        9       0.00000000      -0.02095187       0.00306973       0.09551022
Ni      11.50722846       6.58651427       6.41644000        9       1.00000000       0.04533619      -0.05655208      -0.25859027
