64
Lattice="9.804846541928967 -0.00011069044343311603 0.0010074152200053275 4.902327410228511 8.491080149853344 -4.140781231504447e-15 0.0 0.0 21.126754294633034" Properties=species:S:1:pos:R:3:tags:I:1:initial_magmoms:R:1:forces:R:3 unique_id=f30bf2868d3248d7a790a675b82d999b energy=-355.0321249289211 stress="0.003182944854973309 1.6809771729476718e-05 6.0186413277320795e-06 1.6809771729476718e-05 0.0032023551074397225 -3.4748641908126933e-06 6.0186413277320795e-06 -3.4748641908126933e-06 -0.002492633665482551" pbc="T T T"
Ni      -0.00214336       0.00057969       0.00682060        0       1.00000000       0.00749147      -0.02852691       0.02201370
Ni       2.45331291       0.00091579       0.00657816        0       1.00000000      -0.00687967      -0.02198012       0.01992717
Ni       4.90295481      -0.00020847       0.00077094        0       1.00000000       0.00702682       0.01164562       0.01806691
Ni       7.35375568      -0.00015275       0.00248926        0       1.00000000      -0.00577722       0.00333548       0.03121386
Ni       1.22552489       2.11981417       0.00484974        0       1.00000000      -0.01263521       0.02502225       0.00663895
Ni       3.67724308       2.12248280       0.00000000        0       1.00000000       0.00660447      -0.00381309       0.01475650
Ni       6.12840350       2.12233093       0.00077094        0       1.00000000      -0.00657199      -0.01190822       0.01806691
Ni       8.57936968       2.11956370       0.00718734        0       1.00000000       0.01318036       0.01923539       0.02016042
Ni       2.45369508       4.24706734       0.00484974        0       1.00000000      -0.02798751      -0.00156871       0.00663895
Ni       4.90260892       4.24322091       0.00657816        0       1.00000000       0.01559551       0.01694803       0.01992717
Ni       7.35134330       4.24426651       0.01176418        0       1.00000000       0.00981479       0.02082221       0.01360775
Ni       9.80539030       4.24511545       0.12332663        1       1.00000000       0.00539492      -0.00311476      -0.67379321
Ni       3.67517185       6.36987648       0.00682060        0       1.00000000       0.02845076       0.00777565       0.02201370
Ni       6.12748590       6.36855454       0.12537065        1       1.00000000      -0.00503339       0.00290603      -0.65597496
Ni       8.57910200       6.37080695       0.01176418        0       1.00000000      -0.01312517      -0.01891097       0.01360775
Ni      11.03316179       6.36965632       0.00718734        0       1.00000000      -0.01006815      -0.02103222       0.02016042
Ni       1.22654778       0.70837633       2.01234799        2       1.00000000      -0.00122980      -0.02880719       0.03871016
Ni       3.67966210       0.70992795       2.01561871        2       1.00000000       0.01180455       0.00360880      -0.01042179
Ni       6.12739262       0.70788829       2.01660224        2       1.00000000      -0.00028686       0.00016562      -0.00559700
Ni       8.57696697       0.70675553       2.01901431        2       1.00000000      -0.00908415      -0.00753600       0.01574002
Ni       2.45339819       2.82906997       2.00958397        2       1.00000000      -0.01681779       0.00970975       0.01532853
Ni       4.90176097       2.82666529       2.01561871        2       1.00000000       0.00277696      -0.01202744      -0.01042179
Ni       7.35204932       2.82607998       2.01303646        2       1.00000000       0.01332068      -0.00263914       0.03589929
Ni       9.80585817       2.81701914       2.02999490        2       1.00000000       0.00060605      -0.02480425       0.04816131
Ni       3.67654755       4.95190041       2.01234799        2       1.00000000       0.02433286       0.01546863       0.03871016
Ni       6.12559615       4.93987397       2.03216669        2       1.00000000      -0.00707176      -0.01867895       0.07065822
Ni       8.57051760       4.95806953       2.02678749        2       1.00000000      -0.03924547       0.02265838       0.09321757
Ni      11.04239191       4.95875841       2.02999490        2       1.00000000       0.02178414       0.01187728       0.04816131
Ni       4.89063216       7.08265238       2.03251116        2       1.00000000      -0.02296386       0.01325819       0.07248320
Ni       7.36381469       7.08453139       2.03216669        2       1.00000000       0.01264056       0.01546380       0.07065822
Ni       9.80764057       7.07928879       2.01303646        2       1.00000000       0.00894590      -0.01021648       0.03589929
Ni      12.25548821       7.07814121       2.01901431        2       1.00000000       0.00198430       0.01163511       0.01574002
Ni      -0.00124136       1.41629857       4.04406746        3       1.00000000      -0.00323724      -0.00895242      -0.00583600
Ni       2.45912323       1.41739138       4.03724730        3       1.00000000      -0.00987437      -0.00782091      -0.04728054
Ni       4.90260701       1.41501860       4.04587943        3       1.00000000      -0.00143025       0.00082576      -0.03751723
Ni       7.34792290       1.40972925       4.04357057        3       1.00000000       0.01288860       0.00526788      -0.02611377
Ni       1.24692630       3.52562684       4.01890273        3       1.00000000      -0.01424734       0.00822571      -0.01115271
Ni       3.67881023       3.52995123       4.03724730        3       1.00000000       0.00183592       0.01246191      -0.04728054
Ni       6.12064073       3.52765623       4.04348165        3       1.00000000       0.01096082       0.00854999      -0.00743261
Ni       8.56439610       3.52096090       4.01819754        3       1.00000000      -0.00768039       0.01048043      -0.01141587
Ni       2.44957433       5.66123587       4.04406746        3       1.00000000       0.00613440       0.00727974      -0.00583600
Ni       4.88158165       5.64827817       4.02225630        3       1.00000000       0.01077716       0.00473686       0.01423080
Ni       7.36839332       5.65211631       4.02545020        3       1.00000000      -0.00650168       0.00375375       0.02991908
Ni       9.81202943       5.68192522       4.01819754        3       1.00000000      -0.01291652       0.00141120      -0.01141587
Ni       3.67114552       7.78672332       4.05005456        4       1.00000000      -0.00184085       0.00106282       0.01032424
Ni       6.12831141       7.80767746       4.02225630        3       1.00000000       0.00128634      -0.01170172       0.01423080
Ni       8.58435342       7.79493178       4.04348165        3       1.00000000      -0.00192410      -0.01376734      -0.00743261
Ni      11.03217307       7.79103774       4.04357057        3       1.00000000       0.00188218      -0.01379580      -0.02611377
Ni      -0.02771719       0.04014994       6.06403045        5       1.00000000       0.02024508      -0.09737836       0.03625972
Ni       2.48108505       0.04400555       6.06382953        5       1.00000000      -0.01946981      -0.07760639       0.00637500
Ni       4.91210957       0.01590200       6.06601676        5       1.00000000       0.01992781       0.04069475      -0.03195934
Ni       7.34512019       0.00483296       6.06820171        5       1.00000000      -0.02333542       0.01347271      -0.02704945
Ni       1.25656923       2.08381929       6.06122996        5       1.00000000      -0.04286953       0.08808257       0.00344777
Ni       3.68528573       2.11783936       6.06496923        5       1.00000000       0.02504733      -0.01446108      -0.05885058
Ni       6.11902881       2.10634744       6.06601676        5       1.00000000      -0.02527879      -0.03760536      -0.03195934
Ni       8.54930695       2.07944656       6.06426547        5       1.00000000       0.04726457       0.06187430       0.00746139
Ni       2.50038973       4.23817960       6.06122996        5       1.00000000      -0.09771651      -0.00691519       0.00344777
Ni       4.87917816       4.19762465       6.06382953        5       1.00000000       0.05747420       0.05566455       0.00637500
Ni       7.32383983       4.18933904       6.05991881        5       1.00000000       0.00894985       0.04650373       0.08119104
Pt       9.81399100       4.24014983       6.12458028        5       0.00000000       0.03685817      -0.02128007       0.26697553
Ni       3.62811609       6.37223893       6.06403045        5       1.00000000       0.09445468       0.03115642       0.03625972
Pt       6.11973821       6.37302767       6.12675429        5       0.00000000      -0.02889047       0.01667992       0.29953718
Ni       8.61291885       6.42208939       6.05991881        5       1.00000000      -0.03579849      -0.03100266       0.08119104
Ni      11.05287290       6.41574997       6.06426547        5       1.00000000      -0.02995243      -0.07186946       0.00746139
