64
Lattice="10.261278017192122 0.010446925562766772 -0.022949261432436814 5.139686311524862 8.885502425094083 0.017999440685338514 -0.018737993494401143 0.02778842100962313 8.765991827424166" Properties=species:S:1:pos:R:3:tags:I:1:initial_magmoms:R:1:forces:R:3 unique_id=79d5a7689b054f059e56e2ba01f2b24a stress="0.00021226630630849508 2.3966877201260137e-06 -7.385437813197925e-06 2.3966877201260137e-06 0.00020982935875033665 -1.759464407004841e-05 -7.385437813197925e-06 -1.759464407004841e-05 0.00020879248403556788" energy=-396.34215028603654 pbc="T T T"
Ni      -0.00195607       0.02759864       0.17531090        4       1.00000000       0.00639971       0.06628789       0.25826629
Ni       2.55403267       0.01304199       0.20590806        4       1.00000000      -0.03056274       0.03114165       0.39866482
Ni       5.12526183       0.00025912       0.15000885        4       1.00000000      -0.06850635       0.11449600       0.22229115
Ni       7.69925645      -0.03482421       0.16546675        4       1.00000000      -0.03261994      -0.12110502       0.32523356
Ni       1.24740037       2.23102947       0.11334729        4       1.00000000      -0.13140407       0.03834714       0.20790109
Pt       3.78451524       2.24176932       0.18981322        4       0.00000000      -0.07939241       0.07612086       0.11989458
Pt       6.43856254       2.18157636       0.10726148        4       0.00000000       0.06400138      -0.00435614      -0.06851314
Ni       9.02387698       2.23205411       0.13302745        4       1.00000000       0.10009720       0.06039486       0.14726357
Ni       2.56154805       4.47364849       0.08114182        4       1.00000000       0.06181167       0.08604442      -0.03021358
Ni       5.10063710       4.47042334       0.19293150        4       1.00000000      -0.01644182       0.03488220       0.34622700
Pt       7.76642635       4.45799401       0.10905336        4       0.00000000       0.06823942       0.01718975      -0.08742522
Ni      10.29871942       4.44310910       0.07207771        4       1.00000000       0.09465805      -0.02406739       0.10518113
Ni       3.81098655       6.66351626       0.12676748        4       1.00000000      -0.09462996      -0.01154055       0.21133826
Pt       6.37812787       6.71673840       0.19185305        4       0.00000000      -0.11880797       0.04208449       0.04520698
Ni       8.99708219       6.68193342       0.16795984        4       1.00000000      -0.11984793       0.03292501       0.26956397
Ni      11.57440607       6.67296520       0.06596686        4       1.00000000       0.07903140       0.01364009      -0.01432235
Ni       1.28674334       0.74860047       2.17771928        3       1.00000000      -0.06059748       0.00355446      -0.04058398
Ni       3.83176679       0.76579681       2.20024237        3       1.00000000       0.04020115       0.06594097       0.02475316
Ni       6.40115784       0.78430588       2.21016784        3       1.00000000      -0.02459577       0.15181953       0.12214559
Pt       8.98814937       0.79018383       2.16598022        3       0.00000000      -0.02211055       0.07798159       0.12663348
Ni       2.55596160       2.97533592       2.21973565        3       1.00000000       0.00886341       0.07425082      -0.07088277
Ni       5.11933133       2.99044690       2.23730424        3       1.00000000      -0.11286089       0.00205686       0.00144497
Ni       7.70649411       2.98929023       2.23150051        3       1.00000000       0.07588745       0.04187723      -0.01501169
Ni      10.26368892       2.97292047       2.19082888        3       1.00000000       0.05654161       0.03693032       0.07853803
Ni       3.88434385       5.18951267       2.21819619        3       1.00000000       0.09391706       0.00121858       0.06051253
Ni       6.39953607       5.19672296       2.23862812        3       1.00000000      -0.00294998       0.09515765      -0.06524985
Ni       8.95394862       5.17118615       2.22690422        3       1.00000000      -0.03768402      -0.08996399       0.11424356
Pt      11.59865409       5.13866314       2.15435594        3       0.00000000       0.12096984      -0.03613763      -0.01682342
Ni       5.13193205       7.38886629       2.24266656        3       1.00000000       0.02565749      -0.09487266      -0.01947462
Ni       7.66015481       7.41810911       2.22827542        3       1.00000000      -0.16387423      -0.06966205       0.03928958
Pt      10.25587820       7.43121592       2.12301482        3       0.00000000       0.04722945      -0.08116405      -0.02174048
Ni      12.86468665       7.39401799       2.15689942        3       1.00000000       0.11702096      -0.14637706      -0.00880758
Ni      -0.01773240       1.54034450       4.33678680        2       1.00000000      -0.08516262       0.08973612      -0.10989329
Pt       2.48668809       1.56664363       4.24157429        2       0.00000000       0.00056324      -0.06555735       0.04291963
Ni       5.13574579       1.53367458       4.30656024        2       1.00000000      -0.08313488       0.02595762      -0.16738163
Ni       7.70234719       1.53060170       4.32295864        2       1.00000000       0.06456153      -0.03554277      -0.08737619
Ni       1.28051308       3.70260863       4.39104479        2       1.00000000       0.00581685      -0.02754610      -0.07538135
Ni       3.82251044       3.77032179       4.29970892        2       1.00000000      -0.03446496       0.06173501      -0.23947691
Pt       6.42366412       3.71718029       4.28215886        2       0.00000000      -0.07100342      -0.00855903       0.00915642
Ni       8.97985291       3.69982445       4.30460289        2       1.00000000       0.02047796      -0.09547779      -0.29781031
Ni       2.60167830       5.88169133       4.38957169        2       1.00000000       0.08336730      -0.10379387      -0.12031727
Ni       5.11356037       5.91384272       4.29327618        2       1.00000000       0.04504115      -0.14922627      -0.24082727
Ni       7.66883130       5.91474800       4.29998402        2       1.00000000      -0.01973690      -0.03377566      -0.24769541
Pt      10.27809119       5.83012057       4.35267422        2       0.00000000      -0.02560401      -0.01546992       0.03277520
Pt       3.91182669       8.09890517       4.32332360        2       0.00000000       0.02761664      -0.08136957       0.16190234
Ni       6.40093986       8.14652103       4.29476585        2       1.00000000      -0.02810667      -0.00817063      -0.22962579
Pt       8.90954188       8.15845622       4.29116455        2       0.00000000      -0.03611955      -0.03492112       0.15841295
Pt      11.57270211       8.17852047       4.29007827        2       0.00000000       0.08715370       0.02171238       0.08654238
Pt      -0.01190963       0.05246713       6.53238283        1       0.00000000       0.06605901       0.10233599       0.07085616
Pt       2.53501044       0.04791950       6.55530597        1       0.00000000       0.00074191       0.00421910       0.21217542
Pt       5.14096866       0.02877368       6.53532747        1       0.00000000       0.09925045      -0.03878315      -0.00498785
Pt       7.69130781      -0.00479963       6.54766718        1       0.00000000      -0.05540023      -0.05885247       0.14763347
Ni       1.25799401       2.31180503       6.49324995        1       1.00000000      -0.00678311       0.13236703      -0.15588318
Pt       3.80089163       2.30726643       6.42926095        1       0.00000000      -0.12078635       0.07286566      -0.30396711
Ni       6.42067295       2.26385010       6.40921417        1       1.00000000      -0.01155845       0.01118016      -0.27887875
Pt       8.97903299       2.34785685       6.46456547        1       0.00000000      -0.02918971       0.09702223       0.00469098
Ni       2.50522097       4.49697952       6.48428722        1       1.00000000      -0.08588713       0.04420974      -0.26302981
Pt       5.08361249       4.47985721       6.51163714        1       0.00000000      -0.05837328       0.04398714       0.10305779
Ni       7.69246172       4.44714551       6.41137112        1       1.00000000      -0.08810057       0.00643214      -0.31404788
Ni      10.31519359       4.43915125       6.49569675        1       1.00000000       0.23052771      -0.06488606      -0.11386744
Ni       3.79202543       6.63982620       6.50749225        1       1.00000000      -0.07762708      -0.08732178      -0.13675704
Pt       6.39026454       6.65327314       6.40042196        1       0.00000000      -0.01971436       0.03478851      -0.33959477
Pt       9.02208473       6.57352606       6.56060917        1       0.00000000       0.14975730      -0.21161473       0.10671134
Ni      11.58527278       6.62480541       6.50796719        1       1.00000000       0.11217739      -0.11277636      -0.17557945
