64
Lattice="10.288576251783192 0.028767427145224348 -0.037849451533139046 5.1692014486008775 8.97180138436848 -0.05356014027701807 0.0 0.0 21.663392840987708" Properties=species:S:1:pos:R:3:tags:I:1:initial_magmoms:R:1:forces:R:3 unique_id=9e2cd2b1d7d6471db2c2a4da3b31b60e energy=-377.5322832706705 stress="0.004508637679252234 9.578620336290718e-05 -0.000146598948353102 9.578620336290718e-05 0.004676786052822252 -0.0004951032677801805 -0.000146598948353102 -0.0004951032677801805 -0.00248787577492395" pbc="T T T"
Ni       0.03154444       0.03803815       0.18637874        2       1.00000000       0.11902049       0.09840634      -0.31965674
Ni       2.57365545       0.00711460       0.22079552        2       1.00000000      -0.00937483      -0.02566934      -0.12542805
Ni       5.11120960      -0.02308633       0.09444878        1       1.00000000      -0.03301700       0.01271733       0.27141264
Pt       7.72893553      -0.07193326       0.03009341        0       0.00000000      -0.08913642      -0.17898683      -0.13930481
Ni       1.26913516       2.23987881       0.10321484        1       1.00000000       0.05430964      -0.05881591       0.32487984
Pt       3.78648308       2.23877200       0.20543042        2       0.00000000      -0.01392715      -0.02137679      -0.52838284
Pt       6.43521267       2.26321179       0.14845930        1       0.00000000      -0.03870293       0.03127362      -0.60246679
Ni       9.05493257       2.25234124       0.04747022        0       1.00000000      -0.05364963      -0.06797539       0.13661706
Ni       2.57910164       4.49650895       0.08782549        1       1.00000000       0.00488073      -0.03577967       0.27612635
Ni       5.10921963       4.50187987       0.17703496        2       1.00000000      -0.05934561      -0.06509604      -0.30495596
Pt       7.84325404       4.49592451       0.02487270        0       0.00000000       0.15434002       0.07071758      -0.19271657
Ni      10.34766288       4.50065121       0.03233652        0       1.00000000       0.11803480       0.09062905       0.16345882
Ni       3.84798149       6.66958972       0.07135115        1       1.00000000      -0.13226433      -0.14832095       0.18870643
Pt       6.46150163       6.78073693       0.00000000        0       0.00000000       0.18990260       0.05186188      -0.36007841
Ni       9.04949933       6.75789136       0.11834243        1       1.00000000      -0.04290686      -0.04703126      -0.03636368
Ni      11.58813527       6.72060196       0.09798670        1       1.00000000       0.01363325      -0.00096544      -0.07347575
Ni       1.32506341       0.75107976       2.20559691        3       1.00000000       0.05777753       0.01279081      -0.02962980
Ni       3.81796601       0.73434298       2.25338451        4       1.00000000      -0.03490970      -0.07070693       0.18719070
Pt       6.36698188       0.76605420       2.34139394        4       0.00000000      -0.07559469       0.04236060       0.16752682
Pt       8.99890318       0.80849822       2.23424340        3       0.00000000      -0.05002304       0.11152504       0.06893949
Ni       2.56879069       2.98353005       2.23877470        3       1.00000000      -0.04785883       0.01470600       0.02933535
Ni       5.10936020       3.00263287       2.24649597        3       1.00000000      -0.03688324      -0.00305815       0.15930694
Ni       7.74005282       3.00789008       2.24274181        3       1.00000000       0.02523739       0.02261930       0.17088710
Pt      10.29508464       3.02755022       2.17236720        3       0.00000000      -0.00458929       0.06224753       0.03635103
Ni       3.84974567       5.21143626       2.18181181        3       1.00000000       0.05092366      -0.04214601      -0.02700582
Pt       6.47609843       5.20497597       2.21864774        3       0.00000000       0.11426871      -0.02337516       0.04321876
Ni       9.01709697       5.25213020       2.24302998        3       1.00000000       0.03346401       0.01267785       0.22706133
Pt      11.63341698       5.26359246       2.16854733        3       0.00000000      -0.00942373      -0.01094859       0.12330907
Pt       5.12575720       7.46802163       2.16383376        3       0.00000000      -0.08665636      -0.01257926      -0.10042467
Ni       7.74682979       7.50038657       2.19924145        3       1.00000000      -0.05484526      -0.01002212       0.17349155
Pt      10.23621055       7.48394182       2.21858248        3       0.00000000      -0.02205402       0.02400577       0.13697517
Ni      12.86364441       7.46594215       2.18563001        3       1.00000000      -0.04144234       0.03946658       0.11866702
Ni      -0.05028770       1.50816850       4.46158294        7       1.00000000      -0.06509617       0.02545832      -0.09476457
Pt       2.56723252       1.45844440       4.31800104        5       0.00000000      -0.04896708      -0.01474178      -0.05064941
Ni       5.14530779       1.43286602       4.41324559        6       1.00000000      -0.08593386      -0.09838796      -0.03948565
Ni       7.73781956       1.50129298       4.40649169        6       1.00000000       0.14114066       0.08445061      -0.05766665
Pt       1.20119937       3.76195408       4.50277663        7       0.00000000       0.00673186       0.07260599       0.12994533
Pt       3.84148625       3.74037664       4.32012686        5       0.00000000      -0.02726755       0.01608794      -0.10870360
Pt       6.52014900       3.69027369       4.35642476        6       0.00000000      -0.03873914      -0.04073529      -0.13612047
Ni       9.00488312       3.74881163       4.41500891        6       1.00000000       0.02277848       0.03333096      -0.09178636
Ni       2.53460806       5.98300254       4.40231991        6       1.00000000      -0.16964311       0.01663391      -0.16979074
Pt       5.12625865       5.98381755       4.40708768        6       0.00000000       0.04283166      -0.02873362      -0.06719213
Ni       7.78691899       5.95954748       4.37265815        6       1.00000000       0.16309900      -0.02038064      -0.26069286
Ni      10.26568622       6.00165934       4.36464760        6       1.00000000      -0.06942323       0.06804641      -0.20234945
Pt       3.75131946       8.22361383       4.40976600        6       0.00000000      -0.07977666      -0.02774198      -0.05936878
Pt       6.48997737       8.19495215       4.33488410        5       0.00000000       0.10166496       0.00896799      -0.10165998
Ni       9.06023784       8.19960789       4.36558672        6       1.00000000       0.00332367       0.01620094      -0.07337614
Ni      11.52926917       8.22841472       4.38566266        6       1.00000000      -0.20988287      -0.01001013      -0.04649436
Pt      -0.08080235       0.02918440       6.65431497       10       0.00000000      -0.03348795       0.11705437       0.09455311
Pt       2.56260988      -0.02602828       6.66339284       10       0.00000000       0.00139836      -0.04992220       0.16349027
Ni       5.14608715      -0.02386259       6.55901181        9       1.00000000      -0.05200146      -0.01732517      -0.16303107
Ni       7.66847314      -0.00344703       6.48789154        8       1.00000000      -0.03771631      -0.01659839       0.30881205
Ni       1.22480812       2.25977561       6.59739235        9       1.00000000       0.01987903      -0.07719587      -0.18748884
Pt       3.82143470       2.24906074       6.55475314        9       0.00000000       0.21835157       0.04246066       0.61392610
Pt       6.49428921       2.17474368       6.50312620        8       0.00000000      -0.07536275       0.07415955       0.63569181
Ni       9.01778613       2.28804489       6.53201910        8       1.00000000      -0.00763033       0.12727222      -0.32999015
Ni       2.53121897       4.47896804       6.59421949        9       1.00000000       0.08120260       0.01975467      -0.15762990
Pt       5.13565767       4.54142809       6.65199272       10       0.00000000       0.13628238      -0.17925123       0.35950164
Ni       7.75112002       4.46944824       6.46098631        8       1.00000000       0.08543988      -0.08823857       0.11924147
Ni      10.26115217       4.45060867       6.55488606        9       1.00000000      -0.08250117       0.05582183      -0.14992376
Ni       3.84169988       6.71692560       6.57256391        9       1.00000000      -0.00342183       0.02255863      -0.09116142
Ni       6.42918608       6.71549457       6.47192958        8       1.00000000       0.11990516       0.04833412       0.37491369
Pt       8.99676087       6.65040973       6.52018180        8       0.00000000       0.00208441      -0.05191412      -0.10048231
Pt      11.61976131       6.72946233       6.51867245        8       0.00000000      -0.05844978      -0.00317365      -0.22383846
