64
Lattice="10.424539218143881 0.01003152598921862 0.02706451256254837 5.220957165417386 8.985357890892903 0.022970077493235718 0.0 0.0 21.651009462049597" Properties=species:S:1:pos:R:3:tags:I:1:initial_magmoms:R:1:forces:R:3 unique_id=a1e39abeaf194900aa6db75461c6e2b0 stress="0.006989093015113941 0.00016640844797368478 0.0004734904237078876 0.00016640844797368478 0.006804982288079683 0.00018360606161559886 0.0004734904237078876 0.00018360606161559886 -0.002192849005486816" energy=-380.4724525791639 pbc="T T T"
Ni      -0.03716175      -0.00163466       0.16474602        2       1.00000000      -0.05167133       0.00654253       0.00354437
Ni       2.63449163      -0.01499082       0.08341108        1       1.00000000       0.06681348       0.04300144       0.35518468
Ni       5.21582158      -0.00640322       0.13075210        1       1.00000000       0.02496743       0.14645466      -0.33682831
Ni       7.84825775      -0.03874507       0.09587980        1       1.00000000      -0.01824730      -0.02657502       0.46791665
Pt       1.28290848       2.21103438       0.11448658        1       0.00000000       0.20302200      -0.10514462      -0.76571086
Pt       3.91275790       2.24358227       0.16889940        2       0.00000000       0.00011089      -0.00497496      -0.50197979
Pt       6.53723630       2.16454423       0.12478513        1       0.00000000      -0.12015440      -0.12912776      -0.69470839
Ni       9.13190141       2.21778005       0.13195936        1       1.00000000       0.01354671      -0.10820161      -0.04287298
Ni       2.62450288       4.52091884       0.11572814        1       1.00000000      -0.00349296      -0.07463783      -0.22306927
Ni       5.22126327       4.50344421       0.14931232        1       1.00000000       0.17859510      -0.06007406      -0.18030379
Pt       7.87362200       4.51738322       0.00000000        0       0.00000000      -0.15711252      -0.00930702      -0.06889187
Ni      10.44965504       4.53839374       0.04642635        0       1.00000000       0.05039345       0.04111353       0.28343434
Ni       3.88860706       6.77613863       0.16224157        2       1.00000000      -0.02244628       0.10819534      -0.01227345
Pt       6.50595130       6.80824897       0.18650552        2       0.00000000      -0.04422935      -0.03482732      -0.39631676
Ni       9.15671866       6.78075651       0.05323511        1       1.00000000      -0.04338048      -0.01872461       0.29347506
Ni      11.75712955       6.77270598       0.05505266        1       1.00000000       0.11535106       0.07336577       0.32667541
Ni       1.31493142       0.70071982       2.17200431        4       1.00000000       0.03789675      -0.10483235       0.07642503
Ni       3.91226029       0.75958760       2.20973496        4       1.00000000       0.00530661       0.01072880       0.13078661
Ni       6.53111861       0.73628202       2.24141974        4       1.00000000       0.02738402      -0.01014269       0.20578576
Ni       9.12035875       0.70757101       2.17991979        4       1.00000000      -0.03817153      -0.07946834       0.04156994
Ni       2.63959359       2.99868118       2.21419988        4       1.00000000       0.02199029       0.08674718       0.23871273
Ni       5.19810276       2.97377321       2.26040255        5       1.00000000      -0.03030500      -0.05025436       0.32929932
Pt       7.80712598       2.92440692       2.26002170        5       0.00000000       0.02117686       0.04003113       0.20904029
Pt      10.42391810       2.92757541       2.27144300        5       0.00000000      -0.03587882       0.07091852       0.18861017
Pt       3.95432431       5.23814414       2.17360166        4       0.00000000       0.07327889       0.01823674       0.12589420
Ni       6.52120714       5.25338677       2.21894471        4       1.00000000       0.02110321      -0.08498657       0.23783778
Pt       9.08479662       5.29915018       2.28455850        5       0.00000000      -0.00387507      -0.02704816       0.11685655
Pt      11.76461592       5.29192162       2.17879397        4       0.00000000      -0.03044815      -0.01761425       0.04093835
Ni       5.20284097       7.53614240       2.19045204        4       1.00000000      -0.05724093       0.04456733       0.15914686
Ni       7.81948031       7.53982398       2.21756876        4       1.00000000       0.04519313       0.11487580       0.09810710
Pt      10.44038905       7.56836508       2.14322423        3       0.00000000      -0.00917423       0.02955916      -0.00279109
Ni      13.06869486       7.54435469       2.19479157        4       1.00000000      -0.00252830       0.08033860       0.02090153
Ni      -0.02762366       1.51883000       4.36462804        7       1.00000000      -0.04832343       0.02121073      -0.17254288
Pt       2.65042383       1.53673084       4.25639609        6       0.00000000       0.01017489      -0.03367949      -0.21033895
Ni       5.24270836       1.50756747       4.32882709        6       1.00000000       0.00454309       0.00876112      -0.34471016
Ni       7.84804742       1.50594511       4.37854361        7       1.00000000       0.01868351       0.01521235      -0.21150720
Pt       1.28264279       3.81840173       4.37546910        7       0.00000000      -0.00746986       0.09193394      -0.06339561
Ni       3.92470404       3.74906066       4.35921994        7       1.00000000       0.01297845       0.00356156      -0.24752771
Pt       6.54573784       3.73863876       4.36275771        7       0.00000000      -0.02527656       0.02079764      -0.10673121
Ni       9.13628100       3.77928531       4.43658865        7       1.00000000      -0.00624279      -0.02537209      -0.14099085
Ni       2.60258551       6.00196014       4.38681113        7       1.00000000       0.02305298       0.03832936      -0.15814660
Pt       5.21313470       5.98594775       4.34313984        6       0.00000000      -0.09100539       0.02901777      -0.09378884
Ni       7.88028264       5.96335797       4.41492088        7       1.00000000       0.00568620      -0.04370213      -0.11917658
Ni      10.42146706       5.99134815       4.47044115        8       1.00000000      -0.00816934       0.05785512      -0.03519876
Pt       3.90272318       8.29922028       4.30381303        6       0.00000000       0.01484741       0.03851224      -0.06053004
Pt       6.53543642       8.26359133       4.30631094        6       0.00000000      -0.03839065       0.15070653      -0.13357734
Pt       9.13780677       8.18842450       4.40554650        7       0.00000000      -0.03797628       0.00865676      -0.06906297
Pt      11.75960889       8.24458271       4.40508827        7       0.00000000      -0.04667042      -0.00708631      -0.01999942
Pt       0.00427673       0.00410050       6.62320654       10       0.00000000       0.07282419       0.13133508       0.00229749
Ni       2.63767154      -0.01720498       6.57761550       10       1.00000000      -0.02839592      -0.00780031      -0.17874627
Pt       5.21745495      -0.11231520       6.65100946       11       0.00000000      -0.01045696       0.17241748       0.09942487
Ni       7.81658175       0.00473098       6.58587948       10       1.00000000      -0.03510393       0.02565612      -0.22035450
Pt       1.30202437       2.24552019       6.50494283        9       0.00000000      -0.20821588      -0.09045020       0.69451152
Pt       3.92189903       2.21406729       6.50491129        9       0.00000000       0.22669114       0.06304734       0.46582201
Pt       6.56026064       2.19118747       6.49882587        9       0.00000000      -0.14832851      -0.17645380       0.67269012
Pt       9.12687598       2.32378909       6.56949389       10       0.00000000       0.06749506      -0.02387731      -0.12631413
Pt       2.54001419       4.55294907       6.60708628       10       0.00000000       0.17521105      -0.05032926       0.13253565
Pt       5.25483970       4.50733260       6.63104138       10       0.00000000      -0.03732552      -0.04250846       0.26351644
Ni       7.89732396       4.52301847       6.47041593        9       1.00000000      -0.00517346       0.04847164       0.17309715
Ni      10.38671906       4.57672900       6.56990168       10       1.00000000      -0.07592640      -0.01638953      -0.28790030
Pt       3.83772112       6.79482674       6.64268943       10       0.00000000       0.07123195      -0.10934337      -0.03027283
Pt       6.66268862       6.74165236       6.54582870        9       0.00000000      -0.00001194      -0.10549798       0.33542138
Ni       9.17932085       6.68287041       6.58057140       10       1.00000000      -0.01469986      -0.09037657      -0.26763429
Ni      11.69703481       6.72514107       6.58702346       10       1.00000000      -0.06803004      -0.07135096      -0.26526534
