64
Lattice="10.345526480638018 -0.01918856625718657 0.025851631372557065 5.156145454478088 8.929571948603234 -0.005486819191335623 0.021107768627096776 -0.017359598641963746 8.888448324609957" Properties=species:S:1:pos:R:3:tags:I:1:initial_magmoms:R:1:forces:R:3 unique_id=c0d250955525482e9c766249c17aed94 stress="0.0004243090584185108 3.1035842561699206e-06 -2.1389231793292352e-05 3.1035842561699206e-06 0.0004193576306443514 -1.2453571596253908e-05 -2.1389231793292352e-05 -1.2453571596253908e-05 0.0003934158161378598" energy=-401.1377646441633 pbc="T T T"
Ni       0.05390447       0.00227243       0.16393523        4       1.00000000       0.18142893       0.08031683       0.29255344
Ni       2.54006480       0.00870731       0.20038628        4       1.00000000      -0.15469727       0.09390578       0.44142690
Pt       5.07780668      -0.02554297       0.13379281        4       0.00000000      -0.09309439      -0.02201650       0.16011901
Pt       7.82928868      -0.08104526       0.17498134        4       0.00000000       0.10272696      -0.04459678       0.33580271
Ni       1.29943905       2.23799505       0.09812122        4       1.00000000       0.00578883       0.03073721       0.27766376
Pt       3.78415357       2.29006030       0.10987329        4       0.00000000      -0.00087137       0.04962438      -0.09927695
Pt       6.43559143       2.28831959       0.07385984        4       0.00000000      -0.01906208       0.11274067      -0.10592078
Pt       9.15333599       2.25064804       0.16613183        4       0.00000000       0.04969380      -0.02371588       0.22638661
Ni       2.58786486       4.45184220       0.06957504        4       1.00000000       0.07334404      -0.01752866       0.09210332
Ni       5.12468530       4.49014720       0.10411823        4       1.00000000      -0.08784580       0.13360459       0.27206147
Pt       7.78728099       4.51862541       0.12323948        4       0.00000000       0.02784761       0.07720679      -0.03904361
Ni      10.37148160       4.43428398       0.09583422        4       1.00000000       0.14041803      -0.08597589       0.21560985
Ni       3.88684190       6.65000449       0.17467828        4       1.00000000       0.04176947      -0.17715898       0.40110334
Pt       6.41917798       6.73531858       0.19351752        4       0.00000000      -0.04186448       0.02367565       0.00172764
Ni       9.02347443       6.67412320       0.16907909        4       1.00000000      -0.10400066       0.01213084       0.32776778
Pt      11.64928045       6.57976087       0.04896273        4       0.00000000       0.03232089      -0.08611188      -0.19396991
Ni       1.33572431       0.73850596       2.22772023        3       1.00000000       0.15415706       0.01741497       0.07987496
Ni       3.81803866       0.77055358       2.25406088        3       1.00000000      -0.09985152       0.10277059       0.03684569
Pt       6.42165948       0.80851510       2.30076930        3       0.00000000      -0.16450470       0.11411938      -0.13251479
Pt       9.18415028       0.72471441       2.30043038        3       0.00000000       0.10586969       0.07403192      -0.04849405
Ni       2.59034755       2.95661769       2.24722207        3       1.00000000       0.05789118      -0.02552455       0.05859365
Ni       5.12852015       3.02581715       2.27169097        3       1.00000000      -0.19897619       0.19758290       0.08631923
Ni       7.77288488       3.02699775       2.27376899        3       1.00000000       0.04662536       0.16549321       0.02092524
Ni      10.37675366       2.96221773       2.29891930        3       1.00000000       0.11792267      -0.03929599       0.24800178
Ni       3.91318211       5.19239124       2.24206075        3       1.00000000       0.14946527      -0.08405602       0.12395844
Ni       6.44337713       5.20507140       2.28117007        3       1.00000000      -0.07549726       0.08699542       0.04806044
Ni       9.01158392       5.15525491       2.26836007        3       1.00000000      -0.08444489      -0.18132683       0.17400758
Pt      11.69679915       5.08336027       2.27411139        3       0.00000000       0.17992256      -0.09436481      -0.01267121
Ni       5.18622637       7.39667247       2.25281081        3       1.00000000       0.10049932      -0.17910160       0.10886333
Ni       7.69691878       7.43160730       2.25340048        3       1.00000000      -0.21400413      -0.05166528       0.10192861
Pt      10.26659065       7.35732916       2.23923569        3       0.00000000       0.02914588      -0.12469594      -0.16349412
Ni      12.96960617       7.36031855       2.25808429        3       1.00000000       0.09159012      -0.24078940       0.03532505
Ni       0.04677096       1.52618056       4.40034389        2       1.00000000       0.07075732       0.12638444      -0.01869174
Pt       2.55900986       1.57144210       4.36640894        2       0.00000000       0.02199094      -0.01101484      -0.00499572
Ni       5.14671148       1.53186020       4.43133067        2       1.00000000      -0.15597837       0.18716693      -0.13321859
Pt       7.78129903       1.54913397       4.41265769        2       0.00000000       0.07340143       0.03077628       0.10944006
Ni       1.30501696       3.69909805       4.44238523        2       1.00000000       0.01895848      -0.03981298       0.02333214
Ni       3.86965689       3.74444934       4.42811970        2       1.00000000      -0.09004189       0.16442104      -0.13940861
Pt       6.41486675       3.78013554       4.40671381        2       0.00000000      -0.06791958       0.01511148      -0.15515518
Ni       9.06688944       3.71429699       4.39560722        2       1.00000000      -0.07202749      -0.05122311      -0.29475690
Ni       2.61788824       5.86612695       4.40912495        2       1.00000000       0.11196849      -0.28359838      -0.14622452
Ni       5.16389340       5.91019810       4.36522121        2       1.00000000      -0.05714224      -0.06345386      -0.26081644
Ni       7.73702286       5.91374570       4.37597824        2       1.00000000      -0.04973605      -0.00984660      -0.26640341
Pt      10.34199428       5.79858854       4.44487154        2       0.00000000      -0.10334645      -0.05564178       0.00346823
Pt       3.96488174       8.09565035       4.34110299        2       0.00000000       0.00312430      -0.15277854       0.18195624
Ni       6.45967308       8.15672355       4.36498614        2       1.00000000      -0.02927961      -0.01452258      -0.18509167
Pt       8.95305723       8.16633709       4.35111992        2       0.00000000      -0.06424123       0.01247476       0.08017476
Pt      11.65285136       8.10174689       4.38769124        2       0.00000000       0.06654145      -0.07939291       0.00974866
Pt       0.03115643       0.03149211       6.60628689        1       0.00000000       0.02560178       0.01659655       0.06213198
Pt       2.59765443       0.06287053       6.64970927        1       0.00000000      -0.04322860       0.13368415       0.21671358
Pt       5.17832081       0.05560092       6.53695176        1       0.00000000       0.05776996       0.15495538      -0.37299584
Pt       7.76720874      -0.02169521       6.58681346        1       0.00000000      -0.05383293       0.05217718      -0.19975510
Ni       1.32715298       2.29339012       6.58135258        1       1.00000000       0.09572127       0.19901316      -0.15236176
Ni       3.88729527       2.29491912       6.52012743        1       1.00000000      -0.04074843       0.26454311      -0.27752558
Ni       6.44729327       2.26963314       6.52580436        1       1.00000000      -0.05561288       0.18161313      -0.29273851
Pt       9.10838263       2.33546782       6.54523015        1       0.00000000       0.07056171       0.17445168      -0.17831487
Ni       2.57280457       4.40827715       6.56814166        1       1.00000000      -0.08710993      -0.21911148      -0.27109879
Ni       5.16085887       4.38905755       6.58618116        1       1.00000000      -0.10488100      -0.18037072      -0.12373732
Ni       7.74725574       4.42293738       6.52964565        1       1.00000000      -0.08738292      -0.00990822      -0.26736727
Ni      10.41044236       4.42972000       6.60802866        1       1.00000000       0.30699745       0.03969224      -0.09404461
Pt       3.82762108       6.55193011       6.59857814        1       0.00000000      -0.07822468      -0.23255804       0.17611017
Pt       6.45816975       6.59624684       6.49784368        1       0.00000000      -0.06432743      -0.06877039      -0.17837899
Pt       9.08801637       6.58726688       6.64828042        1       0.00000000       0.02249280      -0.05159082       0.13723577
Ni      11.64414239       6.61656510       6.53302724        1       1.00000000       0.00946141      -0.12389243      -0.35887456
