64
Lattice="10.20910265459939 0.02602113274466009 -0.035842158648706095 5.12708628929182 8.865658037677756 -0.02476426613673835 -0.029264999989737576 -0.006451818399951987 8.766465039753625" Properties=species:S:1:pos:R:3:tags:I:1:initial_magmoms:R:1:forces:R:3 unique_id=3eaaf6fa88aa47a4be0996a68d6fc9e0 stress="-0.003091078052944604 -6.237784787525196e-06 1.6736918543107512e-05 -6.237784787525196e-06 -0.0031054473250880094 3.4498779947639155e-06 1.6736918543107512e-05 3.4498779947639155e-06 -0.0027340089904255363" energy=-395.4618947190804 pbc="T T T"
Pt      -0.00916262      -0.02578662       0.00654691        4       0.00000000      -0.05674723       0.00846676      -0.14147216
Ni       2.55678389       0.00535478       0.09578856        4       1.00000000      -0.01352167      -0.00584332       0.19983821
Pt       5.11582627       0.08489592       0.02640146        4       0.00000000      -0.02266213       0.05931836      -0.09660367
Ni       7.64328759       0.03330082       0.12192698        4       1.00000000      -0.04837621       0.02091098       0.20884817
Pt       1.33697925       2.25903786       0.01120367        4       0.00000000       0.00883063       0.04743738      -0.27300134
Ni       3.83197413       2.23414232       0.06860451        4       1.00000000       0.01457244       0.08723875       0.06796353
Ni       6.43527438       2.23955549       0.06174112        4       1.00000000       0.10677469       0.03729979       0.10503138
Ni       8.89142776       2.27726892       0.03398707        4       1.00000000      -0.01453775       0.05123086       0.09940298
Ni       2.54738124       4.47004815       0.09243919        4       1.00000000      -0.02623306       0.09206941       0.13401137
Pt       5.11657703       4.48045556       0.11900431        4       0.00000000      -0.02834546       0.07173276      -0.09227437
Ni       7.68419835       4.40393456       0.07402597        4       1.00000000      -0.00004415      -0.10522474       0.16502477
Ni      10.21489709       4.46065138       0.04223547        4       1.00000000      -0.01515728       0.01934220       0.10262993
Ni       3.80600111       6.63525320       0.04425301        4       1.00000000      -0.14991448       0.00862198      -0.01086929
Ni       6.40710320       6.64315686       0.05001055        4       1.00000000       0.00692812      -0.02997706       0.08248270
Pt       8.89092863       6.59860160      -0.00294807        4       0.00000000      -0.04487643      -0.04146090      -0.19117983
Ni      11.51861150       6.62338755       0.12040779        4       1.00000000      -0.08019435      -0.07182477       0.20998457
Ni       1.32641704       0.75021477       2.21387604        3       1.00000000       0.00359825       0.04120918      -0.01535672
Ni       3.76238906       0.76717405       2.17912861        3       1.00000000      -0.08593515       0.05099098       0.04021086
Ni       6.37674582       0.76766848       2.19471354        3       1.00000000       0.01184843      -0.02728138       0.09374483
Pt       8.90083638       0.80542475       2.22425666        3       0.00000000       0.09479115      -0.02031954       0.03470473
Ni       2.56127490       2.95617582       2.19461082        3       1.00000000       0.00945436      -0.04414697      -0.03639683
Pt       5.12362255       2.93497721       2.17881580        3       0.00000000       0.01196993      -0.04910406       0.02663272
Ni       7.64305223       3.00349207       2.15519583        3       1.00000000       0.04077210       0.00913242       0.04930611
Pt      10.24524825       3.02713583       2.17158357        3       0.00000000       0.06818428      -0.01208388      -0.03195956
Ni       3.79654892       5.14453366       2.19761188        3       1.00000000      -0.03896990      -0.06881559       0.04305514
Ni       6.43475565       5.15286619       2.18426283        3       1.00000000       0.05373069      -0.08870948       0.01957518
Ni       8.89805082       5.16561477       2.15246794        3       1.00000000      -0.03581741       0.00059380       0.02134601
Ni      11.52887743       5.15502963       2.13433951        3       1.00000000       0.06519096      -0.05358210       0.06391995
Pt       5.16886696       7.30788836       2.18448727        3       0.00000000       0.00299482      -0.06311455      -0.08296884
Ni       7.66151692       7.40313304       2.15026052        3       1.00000000      -0.00412149       0.00829488      -0.00009645
Pt      10.18416463       7.40886461       2.16889727        3       0.00000000      -0.07207817       0.02890924      -0.03709376
Pt      12.77069605       7.35557467       2.17872491        3       0.00000000       0.00534022      -0.00555268       0.12161828
Ni      -0.00289788       1.47890346       4.40094355        2       1.00000000      -0.02452515       0.01970237      -0.06340695
Ni       2.50004334       1.51302355       4.35587577        2       1.00000000      -0.02669104       0.03314042      -0.12858194
Pt       5.15220216       1.49861410       4.39151184        2       0.00000000       0.00806032       0.02242003       0.00935789
Ni       7.65934824       1.47375505       4.33599027        2       1.00000000       0.00248435      -0.08583903      -0.02552849
Ni       1.27616775       3.64757747       4.38733554        2       1.00000000      -0.05400818      -0.06590976      -0.02578720
Pt       3.73445576       3.72769346       4.32406981        2       0.00000000      -0.05198122      -0.01368181      -0.02806592
Ni       6.38091216       3.68616808       4.32838777        2       1.00000000      -0.03114561      -0.03048655      -0.09157019
Pt       8.90744620       3.61629181       4.38105783        2       0.00000000      -0.05949375      -0.02511036      -0.00227196
Ni       2.58884297       5.92589215       4.36346008        2       1.00000000       0.01015129       0.04768990       0.07285581
Ni       5.05530441       5.92800000       4.33509546        2       1.00000000      -0.10041724       0.02436327      -0.09357658
Pt       7.57818069       5.87659068       4.32949893        2       0.00000000      -0.06449833      -0.00934289      -0.03984778
Pt      10.28199016       5.86179569       4.30525929        2       0.00000000       0.04532000      -0.03989511      -0.01697401
Ni       3.80801219       8.11147819       4.37195797        2       1.00000000      -0.04422153       0.00552516       0.00465552
Pt       6.32494948       8.19078954       4.37758215        2       0.00000000      -0.01460801       0.00778458      -0.06754893
Pt       8.91888711       8.17747386       4.36704307        2       0.00000000      -0.03316121      -0.00534635      -0.04306602
Ni      11.54180217       8.14477694       4.31845313        2       1.00000000       0.02367467      -0.03885024       0.03037800
Ni      -0.01347833       0.02496469       6.40499290        1       1.00000000      -0.01999953       0.15719080      -0.15060823
Ni       2.52176373       0.03199427       6.51453734        1       1.00000000      -0.01985583       0.11303983       0.05974744
Ni       5.07257829       0.02509797       6.42028033        1       1.00000000       0.07426317      -0.03507307      -0.09289492
Pt       7.67338462       0.07008203       6.46694540        1       0.00000000       0.02329382       0.03842370       0.16616813
Ni       1.25915655       2.21060742       6.36867147        1       1.00000000      -0.00083691      -0.02649726      -0.26400122
Ni       3.77988460       2.19279087       6.48962766        1       1.00000000      -0.06764211      -0.02101187      -0.03790367
Ni       6.39598399       2.24693146       6.48371220        1       1.00000000       0.13986846       0.11626663      -0.00205461
Ni       8.94304660       2.24114592       6.47899015        1       1.00000000       0.13524397      -0.00665565       0.04491267
Ni       2.51874194       4.38802863       6.48549782        1       1.00000000      -0.02355329      -0.12945011      -0.01206481
Pt       5.12683811       4.45633142       6.40222161        1       0.00000000       0.06685100       0.04119622      -0.00043315
Ni       7.67490259       4.42091320       6.49828891        1       1.00000000       0.08440976      -0.02123881       0.06720925
Ni      10.20205578       4.40444747       6.48099063        1       1.00000000       0.06241974      -0.10200982       0.01436466
Ni       3.86054592       6.65998556       6.44966359        1       1.00000000       0.11329453       0.08050842      -0.14962464
Ni       6.37888762       6.68279210       6.49239669        1       1.00000000       0.01813416       0.11970684      -0.00046584
Ni       8.89854301       6.64143479       6.39194912        1       1.00000000       0.00380121      -0.06723789      -0.20194173
Pt      11.50488550       6.62269049       6.51039989        1       0.00000000       0.05791973      -0.05908031       0.18851082
