64
Lattice="10.137167035706236 0.0073153132474198055 -0.08151066212486797 5.0749187649620815 8.780560884676348 0.0012532617271205488 0.0 0.0 21.54473814877445" Properties=species:S:1:pos:R:3:tags:I:1:initial_magmoms:R:1:forces:R:3 unique_id=b81af0acc65d4304a424fdd2c193d293 stress="0.005074421946212923 6.066469942601929e-05 -0.0005723593357059819 6.066469942601929e-05 0.004450935387279965 0.0002825705705365638 -0.0005723593357059819 0.0002825705705365638 -0.001651028941968351" energy=-369.63336995656596 pbc="T T T"
Ni       0.02674962      -0.02014287       0.22444793        2       1.00000000       0.09628794       0.04666511      -0.50799972
Ni       2.48930358      -0.00109388       0.23683682        2       1.00000000      -0.04774999      -0.05256923      -0.05013331
Ni       5.07520706      -0.02457753       0.14234225        1       1.00000000      -0.06393848      -0.02379746       0.20099778
Ni       7.57717284      -0.05887702       0.17755370        2       1.00000000      -0.07295162      -0.06715256      -0.31143391
Ni       1.26670626       2.21560141       0.18069537        2       1.00000000      -0.03963165      -0.00734521       0.23347828
Pt       3.71362287       2.21121917       0.24051683        2       0.00000000       0.05683959       0.03377794      -0.56441828
Pt       6.30648013       2.18943639       0.08027369        1       0.00000000      -0.14817823      -0.05788853      -0.37268366
Pt       8.94483257       2.24364008       0.00000000        0       0.00000000       0.01692779      -0.02883504      -0.41669238
Ni       2.50084493       4.43940532       0.18134082        2       1.00000000       0.03154753       0.05115199       0.36365124
Ni       5.04802195       4.45365638       0.24847089        2       1.00000000      -0.10545400       0.00702567      -0.12679454
Ni       7.57807527       4.44119450       0.10573203        1       1.00000000      -0.01982074       0.09984837       0.05585902
Ni      10.18939668       4.42116566       0.10847201        1       1.00000000       0.03143719       0.12317874       0.27831259
Ni       3.77317535       6.56742754       0.15316691        2       1.00000000      -0.09922351      -0.02801370       0.24078781
Ni       6.31504186       6.58000640       0.12686291        1       1.00000000       0.08164049      -0.00142926       0.10210838
Pt       8.87416519       6.59523125       0.20113251        2       0.00000000       0.00469569       0.04967708      -0.35052926
Ni      11.43700054       6.58826625       0.11297015        1       1.00000000      -0.05893446      -0.01727947       0.37482382
Ni       1.30621215       0.76771648       2.25486112        4       1.00000000       0.07041176       0.09058956       0.17250679
Ni       3.76300961       0.69534959       2.24496019        3       1.00000000      -0.04310702      -0.14702645       0.02023170
Ni       6.27851223       0.68905716       2.20659669        3       1.00000000      -0.04900780      -0.05488349       0.02032943
Pt       8.86493100       0.75013686       2.19469766        3       0.00000000       0.04423467       0.06925794       0.02137182
Ni       2.49426756       2.95927561       2.28688261        4       1.00000000       0.01959289       0.02694882       0.14297149
Ni       5.01042504       2.97541677       2.25235554        4       1.00000000      -0.07151693       0.09379498       0.12769532
Pt       7.60593921       3.01267444       2.24308751        3       0.00000000       0.03029137       0.08882532      -0.00983965
Ni      10.18621182       2.97714657       2.18650420        3       1.00000000       0.06318799       0.03913549       0.02777986
Ni       3.74952115       5.10353939       2.24810052        3       1.00000000      -0.15296072      -0.03554356       0.13752703
Ni       6.33624070       5.15226723       2.20233421        3       1.00000000       0.17154337      -0.00345804       0.04436456
Ni       8.89305269       5.16090850       2.26206797        4       1.00000000       0.14940093       0.10518674       0.19217040
Ni      11.39373972       5.15666770       2.16359307        3       1.00000000      -0.04763666       0.07097052       0.03755431
Pt       5.10371770       7.25044666       2.22489125        3       0.00000000      -0.04686809      -0.04070191       0.02463348
Ni       7.61972407       7.33996942       2.27457550        4       1.00000000       0.05668307      -0.01732297       0.23795118
Ni      10.14817272       7.33361851       2.25681182        4       1.00000000       0.01244277      -0.03546679       0.17316026
Ni      12.60220689       7.27602895       2.17017364        3       1.00000000      -0.04183175      -0.14153504       0.08914747
Ni      -0.01463292       1.49847480       4.39472215        6       1.00000000       0.08109928      -0.07811825      -0.12997609
Ni       2.46386787       1.46011770       4.30741624        5       1.00000000      -0.02840125      -0.10183382      -0.21817130
Pt       5.03411867       1.41436388       4.27752178        5       0.00000000      -0.01178855      -0.09758975       0.04462949
Ni       7.59566568       1.49533161       4.34934096        5       1.00000000       0.07608823      -0.05560191      -0.17084497
Pt       1.23307887       3.69169567       4.38530551        6       0.00000000       0.06235103      -0.01265226       0.03418186
Ni       3.75256444       3.72526445       4.31466677        5       1.00000000       0.01523358       0.05391164      -0.25444931
Pt       6.32239471       3.74309735       4.35857871        6       0.00000000      -0.01179955       0.05323185      -0.01090485
Ni       8.86531205       3.71513635       4.36180380        6       1.00000000       0.02736677       0.19273678      -0.11582959
Ni       2.49035605       5.85763551       4.39493634        6       1.00000000      -0.05232738      -0.08163577      -0.13564754
Ni       5.03809551       5.87852863       4.37178097        6       1.00000000       0.02060500      -0.00912734      -0.06125102
Ni       7.58124270       5.90445379       4.30616214        5       1.00000000       0.02530932       0.11391057      -0.20906982
Ni      10.12172007       5.89052400       4.28488531        5       1.00000000       0.04171113       0.01036362      -0.24067686
Pt       3.74377250       8.00643214       4.38364281        6       0.00000000      -0.04718271      -0.06247806       0.08340450
Ni       6.35038091       8.05360048       4.34245699        5       1.00000000       0.10281784      -0.02841732      -0.16439231
Ni       8.83697047       8.03855201       4.29020982        5       1.00000000      -0.03358659      -0.06569408      -0.25944839
Ni      11.33786229       8.00732564       4.30227341        5       1.00000000      -0.07544795      -0.17398554      -0.16589282
Pt      -0.04773265       0.04143220       6.54473815        9       0.00000000      -0.03629210       0.16386184       0.31395671
Pt       2.51103264       0.00718078       6.47511668        9       0.00000000       0.02497799       0.01136045       0.09752426
Ni       5.03140204       0.00609163       6.46387364        9       1.00000000      -0.06138401      -0.07548037      -0.09091204
Pt       7.48010457       0.02549708       6.47944826        9       0.00000000       0.00118760       0.08195178       0.21265441
Ni       1.18825599       2.26529556       6.51057073        9       1.00000000       0.01703737      -0.06543343      -0.12461179
Pt       3.73698775       2.26638301       6.42254169        8       0.00000000      -0.07433147       0.17638042       0.62578055
Ni       6.32862468       2.23361960       6.38080873        8       1.00000000      -0.01994194       0.04677699       0.42762649
Ni       8.83288469       2.27990857       6.31113275        7       1.00000000       0.00951736      -0.02544353       0.31418224
Ni       2.45225036       4.46292814       6.51355085        9       1.00000000       0.04823340       0.02021453      -0.17475809
Pt       5.03504703       4.49674744       6.53893917        9       0.00000000      -0.10230270      -0.09377051       0.26034618
Ni       7.60180107       4.39470077       6.46510004        9       1.00000000       0.13097698      -0.03163782      -0.05750019
Ni      10.11504308       4.38652011       6.44178393        8       1.00000000      -0.03326077      -0.00712468      -0.24603038
Ni       3.72865255       6.58809698       6.51544792        9       1.00000000      -0.12524099       0.04064226      -0.04422979
Ni       6.30375068       6.60122452       6.46484852        9       1.00000000       0.11738626       0.03979241      -0.19341784
Pt       8.88218006       6.53520700       6.37102844        8       0.00000000       0.07328731      -0.09521411       0.35938706
Ni      11.38772271       6.56867199       6.42706825        8       1.00000000       0.00974809      -0.07968220      -0.31454808
