64
Lattice="10.335961583006476 -0.00014326815064414012 0.01269741850801249 5.1678567176452255 8.900937939675714 -0.017583492104350208 0.0 0.0 21.56474147386147" Properties=species:S:1:pos:R:3:tags:I:1:initial_magmoms:R:1:forces:R:3 unique_id=1a98f4927dc4408c8f057c65547464c4 energy=-375.40510313129903 stress="0.00560984450577682 0.0001948317163899616 0.000142960260260469 0.0001948317163899616 0.005819934494324038 -3.272723648526713e-05 0.000142960260260469 -3.272723648526713e-05 -0.0017395763380455929" pbc="T T T"
Ni       0.00313789       0.01904129       0.11792109        1       1.00000000       0.11155238      -0.02913084      -0.17584915
Ni       2.58349987       0.00444508       0.15252004        2       1.00000000      -0.02054421       0.03066804      -0.09001559
Ni       5.16688321      -0.01172526       0.11287352        1       1.00000000      -0.00794303       0.20124366      -0.32252137
Ni       7.75907895      -0.04651401       0.13506386        1       1.00000000      -0.10620148      -0.12968114      -0.19756182
Ni       1.26254493       2.23111602       0.04193140        0       1.00000000      -0.05543550       0.02085372       0.48398740
Pt       3.81546798       2.23654751       0.13416655        1       0.00000000       0.00190844       0.00981369      -0.48790287
Pt       6.48569930       2.17882730       0.14064728        1       0.00000000       0.00416137      -0.04954718      -0.45488568
Ni       9.08866498       2.22629672       0.09181096        1       1.00000000       0.07312530       0.11958629      -0.04724180
Ni       2.58096160       4.47393833       0.00489898        0       1.00000000       0.06714034      -0.01536272       0.29970527
Ni       5.13931690       4.46763568       0.12874600        1       1.00000000      -0.02053206       0.01035828      -0.01588965
Pt       7.83105423       4.46092546       0.04661040        0       0.00000000       0.01708544       0.00656489       0.00977990
Ni      10.36971868       4.44369832       0.01585493        0       1.00000000       0.06908655      -0.07473043       0.31925976
Ni       3.84156996       6.67243752       0.03682151        0       1.00000000      -0.02790816      -0.00491577       0.43905653
Pt       6.43415237       6.71961335       0.12566181        1       0.00000000      -0.04380911       0.02395213      -0.58935577
Ni       9.06840701       6.68801780       0.00889457        0       1.00000000      -0.10306651      -0.02909364       0.12744076
Ni      11.65228594       6.67094965       0.00000000        0       1.00000000       0.12308481      -0.00285881       0.23777160
Ni       1.30396229       0.76134462       2.10002998        4       1.00000000       0.00715056       0.15565317      -0.08174139
Ni       3.87054267       0.74915876       2.15591430        5       1.00000000       0.05016064       0.02269901       0.19339439
Ni       6.45453387       0.75190287       2.18978344        5       1.00000000      -0.04248383       0.14251222       0.28955422
Pt       9.05399121       0.77906002       2.12918863        4       0.00000000      -0.00149266       0.13087745       0.11936661
Ni       2.57507374       2.96905962       2.16080011        5       1.00000000      -0.02415109       0.08801583       0.01640142
Ni       5.14929364       2.97482913       2.18875553        5       1.00000000      -0.14515237       0.01065770       0.21476826
Ni       7.78463296       2.97826418       2.18298203        5       1.00000000       0.17894617       0.07335046       0.16438487
Ni      10.34322148       2.95850928       2.15614087        5       1.00000000       0.07325699       0.03417835       0.08596065
Ni       3.88607996       5.17396177       2.11101672        4       1.00000000      -0.01367381      -0.10003281      -0.09900331
Ni       6.46672598       5.17621604       2.14505281        4       1.00000000       0.08900230      -0.08017175       0.06704012
Ni       9.02876097       5.16459165       2.17454703        5       1.00000000      -0.01361159      -0.13177802       0.20926035
Pt      11.67268508       5.12875088       2.11571639        4       0.00000000       0.02204703      -0.05538250       0.03126455
Ni       5.13898654       7.40258408       2.11641708        4       1.00000000      -0.19168822      -0.04322015      -0.04532658
Ni       7.75526240       7.40895447       2.13106841        4       1.00000000       0.05846155      -0.07163612       0.06502274
Pt      10.32272280       7.41562878       2.04520159        3       0.00000000       0.03269606      -0.15659975      -0.09629799
Ni      12.94878979       7.38878628       2.09980838        4       1.00000000       0.06756594      -0.09222367      -0.02439068
Ni      -0.00506965       1.54425336       4.28601446        7       1.00000000      -0.04384802       0.14071439      -0.20844186
Pt       2.54660939       1.57392006       4.19967608        6       0.00000000      -0.04557092       0.01610646      -0.02203678
Ni       5.17378715       1.49719915       4.26309549        7       1.00000000      -0.05685289       0.06812674      -0.36016412
Ni       7.78564497       1.49663600       4.28083325        7       1.00000000       0.08151723       0.00455563      -0.25864787
Ni       1.29291752       3.69503829       4.33066580        7       1.00000000      -0.02276859      -0.01424893      -0.06436311
Ni       3.84746846       3.71876535       4.26260164        7       1.00000000      -0.06998463      -0.01574867      -0.29937421
Pt       6.51447030       3.67601861       4.19923447        6       0.00000000      -0.00747049      -0.04460434      -0.00781380
Ni       9.06459890       3.67654778       4.28254933        7       1.00000000       0.04610153      -0.14547842      -0.34114989
Ni       2.57736037       5.86758113       4.32962673        7       1.00000000      -0.03452712      -0.13545853      -0.06475682
Pt       5.11736732       5.86986889       4.19467613        6       0.00000000      -0.05659886      -0.07923740      -0.14763467
Ni       7.78286764       5.87802243       4.27850437        7       1.00000000      -0.00398491      -0.05966135      -0.34246562
Pt      10.33816752       5.81716320       4.37189720        8       0.00000000       0.03104307      -0.00344726      -0.06775335
Pt       3.86724593       8.15262529       4.24626897        6       0.00000000      -0.05257090       0.04216782       0.02804003
Pt       6.45644799       8.16229402       4.16912136        6       0.00000000      -0.09672753       0.05799708      -0.25981528
Pt       9.03482241       8.13841853       4.25310281        7       0.00000000      -0.09151366       0.05127167      -0.03749338
Pt      11.64649696       8.15827489       4.24003881        6       0.00000000       0.01446567       0.00539385      -0.05591472
Pt       0.01322244       0.00004116       6.53097936       10       0.00000000       0.05442064       0.09523802       0.26734942
Pt       2.58371240      -0.01119981       6.56095060       11       0.00000000       0.01188415      -0.01014875       0.36560758
Pt       5.17020496      -0.10483844       6.54568117       10       0.00000000       0.00379514       0.12819980       0.48172882
Pt       7.76356287      -0.09418124       6.56474147       11       0.00000000      -0.00566625       0.14397636       0.38372616
Ni       1.28733511       2.27969887       6.45819946       10       1.00000000       0.00660042       0.12950418      -0.28506400
Pt       3.81326086       2.26884641       6.41494433        9       0.00000000       0.15952843       0.01277627       0.52500615
Pt       6.49237932       2.22240347       6.41274504        9       0.00000000      -0.07388759      -0.08365365       0.62466164
Pt       9.11991154       2.31540370       6.45826280       10       0.00000000      -0.06369957      -0.04061476       0.00959464
Ni       2.52354717       4.47250794       6.44298420        9       1.00000000      -0.09528958       0.02447134      -0.36496420
Pt       5.10623450       4.47522450       6.51225387       10       0.00000000      -0.07148530      -0.09785170       0.14431752
Ni       7.81006687       4.46146372       6.38742462        9       1.00000000       0.06638944       0.08428201      -0.03141727
Ni      10.37630305       4.45254362       6.48049021       10       1.00000000       0.09770722      -0.01629594      -0.20489974
Ni       3.83185582       6.62330483       6.46721785       10       1.00000000      -0.06296363      -0.04288905      -0.25374726
Pt       6.51731417       6.61082296       6.41800426        9       0.00000000       0.12250493      -0.03788942       0.46746885
Ni       9.07904571       6.58685714       6.47686548       10       1.00000000      -0.01899490      -0.13148137      -0.09692156
Ni      11.64501453       6.58292098       6.48339318       10       1.00000000       0.04970921      -0.06069170      -0.16809702
