64
Lattice="10.678704714473541 -0.007202793207322036 -0.001209885132940152 5.333114555341088 9.255912737157505 0.008994862155533651 -0.0009878670743609195 0.009050782689327248 9.269292061674685" Properties=species:S:1:pos:R:3:tags:I:1:initial_magmoms:R:1:forces:R:3 unique_id=3d6c5ad9c76f4fdd99d5a7eae842b4aa stress="0.00705525625128868 -1.836996866015503e-06 -1.4012989165959642e-05 -1.836996866015503e-06 0.00696062474235188 2.086797552229407e-05 -1.4012989165959642e-05 2.086797552229407e-05 0.005343679298822887" energy=-422.3485729374556 pbc="T T T"
Pt       0.02326542      -0.00020869       0.08864418        4       0.00000000      -0.04775032      -0.00562016       0.04285150
Ni       2.69118139       0.00342944       0.04898397        4       1.00000000       0.01984569       0.00315837       0.13502419
Ni       5.32669101      -0.01128507       0.10560290        4       1.00000000      -0.00682877       0.00361336       0.19482148
Pt       7.93497160      -0.04910747       0.00938080        4       0.00000000      -0.12330645      -0.06491526      -0.09343405
Pt       1.35282969       2.29263509       0.11114854        4       0.00000000      -0.01836408      -0.00078275       0.04229574
Pt       4.00416355       2.23527825       0.02924621        4       0.00000000      -0.01388657      -0.09478268      -0.14772135
Pt       6.64400301       2.28029543       0.11694471        4       0.00000000      -0.00465037       0.00204629       0.07447670
Pt       9.34568419       2.30704653       0.11125713        4       0.00000000      -0.02569756      -0.01799953       0.02830587
Pt       2.65268894       4.65111121       0.09245315        4       0.00000000      -0.00341326      -0.00448100      -0.03157522
Pt       5.32736469       4.60586980       0.11804910        4       0.00000000      -0.02284905      -0.02795728       0.07856204
Pt       8.01690996       4.63793053       0.02255183        4       0.00000000       0.02481097       0.05853661      -0.08015674
Pt      10.68383897       4.65422436       0.11088790        4       0.00000000      -0.02206369       0.06665187       0.01027007
Pt       3.95888953       6.94979611       0.01252043        4       0.00000000      -0.03511823       0.01272374      -0.09380473
Pt       6.69488853       6.97060038       0.09912312        4       0.00000000       0.03524609       0.02554490       0.05831529
Pt       9.38504607       7.02653065       0.09816124        4       0.00000000       0.05148161       0.12569670       0.03423618
Ni      12.00558416       6.95359663       0.10463238        4       1.00000000      -0.00947710       0.02097412       0.16697186
Pt       1.32546763       0.80803980       2.36788715        3       0.00000000      -0.01412101       0.04218251       0.11188040
Pt       4.01452429       0.78172982       2.32039865        3       0.00000000      -0.00705155       0.02042370       0.01368590
Pt       6.66167988       0.78091201       2.35465485        3       0.00000000       0.07314992       0.00519969       0.05657784
Pt       9.36409445       0.80233826       2.38632098        3       0.00000000       0.02834957      -0.01283876       0.07998596
Pt       2.67375411       3.08227363       2.35712135        3       0.00000000       0.04751268      -0.00411595      -0.00013205
Ni       5.33356220       3.07648998       2.33632547        3       1.00000000      -0.00707964      -0.03527021       0.06846153
Pt       8.02324726       3.08577678       2.38751282        3       0.00000000       0.05199815       0.00914100       0.05872867
Ni      10.67403135       3.07628376       2.35857806        3       1.00000000      -0.00314023      -0.01870052       0.08768748
Pt       3.99781796       5.38717231       2.38687693        3       0.00000000      -0.01532057       0.03590426       0.07343440
Pt       6.66764586       5.36645865       2.36763095        3       0.00000000       0.02082024      -0.00431393       0.07042181
Pt       9.35857609       5.35521186       2.40095349        3       0.00000000       0.05168016      -0.02466285       0.10441260
Pt      12.00486739       5.38852443       2.36698379        3       0.00000000       0.02960339       0.00760902       0.05693702
Pt       5.32233132       7.71483574       2.36582720        3       0.00000000      -0.01099553      -0.00111906       0.05585893
Pt       8.02375943       7.74198865       2.36688695        3       0.00000000       0.02924316       0.01246620       0.11405036
Pt      10.68693062       7.73186120       2.34933953        3       0.00000000       0.01587922       0.03749097       0.09387994
Pt      13.32310118       7.70796699       2.40287917        3       0.00000000       0.00635314       0.02717868       0.13292671
Ni      -0.01259666       1.56510613       4.61799161        2       1.00000000      -0.02651317      -0.00198604      -0.04739527
Pt       2.68169343       1.50722224       4.66136330        2       0.00000000       0.06648854      -0.07499468       0.00217714
Pt       5.33444769       1.48416416       4.61148665        2       0.00000000       0.04266510      -0.07529230      -0.05246507
Pt       8.03831448       1.51607420       4.63315124        2       0.00000000      -0.01994201      -0.05677035       0.01949042
Pt       1.26261512       3.83568314       4.57906825        2       0.00000000      -0.11275238      -0.10693356      -0.06540124
Pt       3.99051722       3.84332400       4.61121405        2       0.00000000       0.00107624      -0.08692463      -0.03112065
Pt       6.71045448       3.84467234       4.61682404        2       0.00000000      -0.00635392      -0.05584760      -0.00919251
Ni       9.35385869       3.84018271       4.61613342        2       1.00000000       0.02642946      -0.05577908      -0.08453607
Ni       2.65231990       6.19399388       4.64294814        2       1.00000000      -0.06199747      -0.02805568      -0.01714304
Pt       5.28195557       6.19334397       4.65214496        2       0.00000000      -0.03291273      -0.03344554       0.02473081
Pt       8.04329389       6.14992631       4.63873750        2       0.00000000       0.04760921      -0.03993011      -0.00474536
Pt      10.72187543       6.23193041       4.61592646        2       0.00000000       0.11686950       0.13544064       0.03325964
Pt       3.92848298       8.46959469       4.68546605        2       0.00000000      -0.07679559      -0.06628629       0.02060800
Pt       6.69411990       8.51868328       4.63847465        2       0.00000000      -0.02364183      -0.02386295       0.00890442
Ni       9.35091473       8.48904052       4.63879375        2       1.00000000       0.04199997      -0.00990450      -0.04186789
Ni      12.00325457       8.47509970       4.64215514        2       1.00000000      -0.05156270       0.02722737       0.00063068
Pt      -0.02771093      -0.01076690       6.81999601        1       0.00000000      -0.04571480       0.02048845      -0.03530514
Ni       2.68383097       0.01604482       6.88974494        1       1.00000000       0.02557743       0.01620631      -0.13351815
Pt       5.31094448       0.01670598       6.89171941        1       0.00000000      -0.05018089       0.03587433       0.06164976
Ni       8.00231233      -0.01264328       6.81964504        1       1.00000000      -0.05132383       0.04068221      -0.22258226
Pt       1.37431920       2.27946082       6.82696095        1       0.00000000       0.01713563      -0.00756112      -0.02903782
Ni       4.00058483       2.29637228       6.83433350        1       1.00000000       0.01666459      -0.02867821      -0.25382187
Pt       6.66014998       2.30296838       6.84787506        1       0.00000000      -0.01536635      -0.05083333       0.01134675
Pt       9.33161494       2.31950098       6.80052215        1       0.00000000       0.03867510       0.04071505      -0.04950653
Pt       2.68288970       4.66165393       6.81723907        1       0.00000000      -0.05426906       0.03665200      -0.13044292
Pt       5.34056999       4.62337791       6.85109626        1       0.00000000       0.00445835      -0.04351034       0.00522575
Ni       8.00317152       4.62905566       6.83004176        1       1.00000000       0.00974785      -0.00703376      -0.24723650
Pt      10.63547714       4.63441537       6.81602594        1       0.00000000      -0.02783564       0.07346515      -0.08878247
Ni       3.98311659       6.95852212       6.82852767        1       1.00000000      -0.01863099      -0.00420155      -0.21816081
Pt       6.66839304       6.95655006       6.84652845        1       0.00000000       0.00133843       0.01828451      -0.01184270
Pt       9.32367565       6.98418956       6.83260971        1       0.00000000       0.02945178       0.09395599      -0.03797111
Pt      12.08015928       7.00085199       6.87531834        1       0.00000000       0.09474619       0.11985755       0.02581568
