64
Lattice="10.178293758632154 0.03843089007447614 -0.021427528766190074 5.122429006410618 8.790541044611118 -0.06510777809093882 0.0 0.0 21.486620224106744" Properties=species:S:1:pos:R:3:tags:I:1:initial_magmoms:R:1:forces:R:3 unique_id=bdfbf3b0d09e48bebc61d335aed4763b energy=-369.4779439304622 stress="0.0016238851842713137 -3.646356020861112e-05 -8.837510531970397e-05 -3.646356020861112e-05 0.0011946183784829652 -0.00019900998863488475 -8.837510531970397e-05 -0.00019900998863488475 -0.00512295614436014" pbc="T T T"
Ni       0.03176784      -0.04793456       0.18206490        2       1.00000000       0.07563377      -0.01488912      -0.27439625
Ni       2.49611923       0.01934569       0.15725323        2       1.00000000       0.03216290       0.18729364      -0.49307136
Pt       5.12142716      -0.00289198       0.15475052        2       0.00000000      -0.08978247       0.21542336      -1.20601486
Ni       7.65574365      -0.01870469       0.16349073        2       1.00000000      -0.02291927      -0.06879209      -0.36591039
Ni       1.27213980       2.21561407       0.09692979        1       1.00000000      -0.05151864       0.06503808       0.31493300
Pt       3.78523444       2.28548016       0.15852396        2       0.00000000       0.01459863      -0.02868728      -0.69790886
Ni       6.37644323       2.26601672       0.08465197        1       1.00000000      -0.03807342       0.00606506       0.14889035
Pt       8.91925916       2.28000154       0.08467793        1       0.00000000       0.06186524       0.14382587      -0.66850605
Ni       2.53691999       4.43780708       0.06299964        1       1.00000000       0.03804326       0.01328494       0.38985077
Ni       5.12177277       4.44610219       0.05980011        1       1.00000000      -0.11428497       0.01650550       0.27549971
Ni       7.61670323       4.44640605       0.06136601        1       1.00000000       0.05347846       0.02526842       0.24183689
Ni      10.22799755       4.45066833       0.05199702        1       1.00000000       0.00802232      -0.00487155       0.36773900
Ni       3.84288673       6.56266664       0.04825769        0       1.00000000       0.00600987      -0.02806428       0.28269909
Ni       6.33631450       6.56349031       0.00047006        0       1.00000000      -0.08848664      -0.00851410       0.10860286
Ni       8.92422785       6.53683627       0.10606275        1       1.00000000       0.05935093      -0.09629578      -0.63648053
Ni      11.52352431       6.55968429       0.00000000        0       1.00000000       0.04115562       0.04528631       0.22155457
Ni       1.28012037       0.78978914       2.18706729        5       1.00000000       0.00967947       0.15601888       0.15366865
Ni       3.76304828       0.77593475       2.16832634        5       1.00000000      -0.15679958       0.00468209       0.22046935
Ni       6.39315956       0.78057859       2.16683634        5       1.00000000       0.07753156       0.06742160       0.12879401
Pt       8.92527296       0.76249113       2.18231574        5       0.00000000       0.07656462      -0.08277263       0.21260000
Ni       2.51476780       2.95633771       2.22040829        5       1.00000000       0.00577575       0.01407164       0.12429282
Ni       5.10175318       2.98697771       2.13650651        4       1.00000000       0.00602858       0.04913657       0.04629648
Ni       7.62131417       2.98222679       2.15490114        5       1.00000000      -0.03634000       0.02660384       0.09283518
Ni      10.23376717       2.99132847       2.18148668        5       1.00000000       0.09304838       0.01958611       0.12819564
Ni       3.82100340       5.10576613       2.13545757        4       1.00000000      -0.04781647      -0.09165145       0.04590768
Ni       6.32921425       5.09715837       2.07996159        4       1.00000000      -0.05937862      -0.04221602       0.02434072
Ni       8.93498951       5.05664906       2.10817541        4       1.00000000       0.02747249      -0.15162288       0.05937241
Ni      11.51192271       5.07849142       2.13057570        4       1.00000000       0.07573766      -0.11073140       0.13498839
Ni       5.07941147       7.24713519       2.08747032        4       1.00000000      -0.13842922      -0.10143283       0.07174568
Pt       7.56205719       7.31397272       2.03942446        3       0.00000000      -0.05067167      -0.03471837      -0.00089694
Pt      10.29510297       7.22959504       2.14049388        4       0.00000000       0.04810279      -0.23462433       0.15700893
Ni      12.77952955       7.27201055       2.07307010        4       1.00000000       0.08669973      -0.11513605       0.07860707
Ni       0.05115144       1.48034173       4.27235282        7       1.00000000       0.09453482       0.00522270      -0.13456603
Ni       2.47080945       1.51089661       4.24196156        6       1.00000000      -0.05669179       0.04098308      -0.17864715
Pt       5.08996595       1.47713799       4.17905879        6       0.00000000       0.04726746      -0.00732628      -0.19759993
Ni       7.64654369       1.46768731       4.26045893        7       1.00000000      -0.03126216      -0.08878392      -0.20260906
Ni       1.28397640       3.64156178       4.28133975        7       1.00000000       0.04293182      -0.03955185      -0.11300732
Ni       3.75644772       3.72056241       4.22652511        6       1.00000000      -0.05817855       0.06383826      -0.19331450
Pt       6.35560023       3.65707702       4.27193846        7       0.00000000      -0.00548499      -0.05919868      -0.00801144
Ni       8.98475238       3.67110770       4.19851974        6       1.00000000       0.09441087       0.00445292      -0.24363960
Ni       2.53668921       5.77447430       4.26614256        7       1.00000000      -0.05032026      -0.04459679      -0.17522652
Ni       5.05541485       5.81050476       4.26178897        7       1.00000000      -0.02190103      -0.07588002      -0.15773326
Pt       7.63116178       5.82382586       4.23748273        6       0.00000000      -0.01746604       0.02596040      -0.03302796
Ni      10.26416240       5.78565536       4.26083209        7       1.00000000       0.04102331      -0.03624954      -0.08080464
Pt       3.83689507       7.94284787       4.21384197        6       0.00000000      -0.00963018       0.00432827      -0.00155886
Ni       6.34778626       8.06191866       4.21124031        6       1.00000000      -0.05086098       0.04503037      -0.17960639
Pt       8.90012683       8.05593252       4.19401409        6       0.00000000      -0.07432308      -0.00058989      -0.19412094
Ni      11.50989858       7.99458647       4.21436178        6       1.00000000       0.01363637      -0.11412600      -0.13504219
Pt      -0.00141991      -0.07667976       6.48662022       10       0.00000000      -0.18049581       0.18715056       0.20963019
Pt       2.50506143      -0.00707463       6.47351803       10       0.00000000       0.18824206       0.12845309       0.42034816
Pt       5.10933845      -0.01163693       6.37947531        9       0.00000000      -0.07610428      -0.04735736       1.33014534
Pt       7.61985425      -0.04885756       6.47016439       10       0.00000000       0.11850903       0.16489880       0.33249357
Ni       1.26108527       2.23613134       6.38329253        9       1.00000000       0.03125305       0.02571332      -0.17444218
Pt       3.78469716       2.32546108       6.33933099        8       0.00000000      -0.13715245      -0.03521856       0.62382480
Ni       6.36043168       2.24119704       6.42130754        9       1.00000000       0.02209152       0.00439801       0.03278722
Pt       8.91379171       2.30065173       6.27586833        8       0.00000000      -0.00919290      -0.17285629       0.73627960
Ni       2.51687985       4.42685947       6.37246574        9       1.00000000       0.05131152      -0.03656208      -0.35135254
Ni       5.09523255       4.43722140       6.40448018        9       1.00000000      -0.09108177       0.02646928      -0.20777315
Ni       7.57956451       4.38154967       6.42327861        9       1.00000000      -0.00739436      -0.01264605      -0.03225348
Ni      10.26779865       4.38426559       6.35951200        9       1.00000000       0.02963950       0.00892730      -0.26112037
Ni       3.82478846       6.46692574       6.38907140        9       1.00000000      -0.01678598      -0.02142292      -0.24395143
Ni       6.33384672       6.50757972       6.38311049        9       1.00000000      -0.01863413       0.04292306      -0.10656070
Pt       8.95096734       6.44612175       6.46254231       10       0.00000000       0.15905966       0.07035104       0.40568110
Ni      11.50895393       6.51382967       6.34495387        8       1.00000000      -0.02341133       0.10277406      -0.17276434
