64
Lattice="10.302926966105014 -0.004094643918485638 -0.016888299058769037 5.14791741739965 8.858704996912953 -0.016772967779156954 -0.013789238439169883 -0.007852485151579183 8.773898558459111" Properties=species:S:1:pos:R:3:tags:I:1:initial_magmoms:R:1:forces:R:3 unique_id=b14710fcdc904634a5e04cd4aaae88ce stress="-0.00034903527079481467 1.4392039585687647e-06 -1.2168171631726995e-06 1.4392039585687647e-06 -0.000345254942969761 5.901104794347072e-06 -1.2168171631726995e-06 5.901104794347072e-06 -0.0002912521612338584" energy=-398.10465259300156 pbc="T T T"
Ni      -0.00071644       0.02532289       0.18787090        4       1.00000000       0.00914903       0.10700760       0.22545155
Ni       2.56722543       0.00852463       0.21236775        4       1.00000000      -0.02780847       0.04553630       0.32055723
Ni       5.14694454      -0.01397767       0.14406837        4       1.00000000      -0.06279148       0.04659291       0.17728738
Ni       7.72976351      -0.04875300       0.16103046        4       1.00000000      -0.03650114      -0.12080245       0.28824816
Ni       1.25318654       2.21908415       0.19174953        4       1.00000000      -0.12304726       0.01231032       0.26087646
Pt       3.79812727       2.21943120       0.09638806        4       0.00000000      -0.08757760       0.04535441      -0.16980999
Pt       6.45589809       2.14867519       0.09350256        4       0.00000000       0.05210867      -0.11596905      -0.06734245
Ni       9.05660619       2.21017486       0.13189100        4       1.00000000       0.09642525       0.04418115       0.12180579
Ni       2.55175324       4.44885359       0.04831179        4       1.00000000      -0.07478118       0.02339412      -0.07121567
Ni       5.13722745       4.43672503       0.14763279        4       1.00000000       0.10462740      -0.07428101       0.24400516
Pt       7.76443439       4.42281814       0.02329780        4       0.00000000       0.11453458       0.01767404      -0.15370461
Ni      10.33852939       4.41592345       0.04765973        4       1.00000000       0.05688764      -0.03946305       0.03041562
Ni       3.82264911       6.66253354       0.07192673        4       1.00000000      -0.09540613       0.07455784       0.06289446
Pt       6.39987358       6.70049457       0.08973414        4       0.00000000      -0.07558466       0.04058026      -0.11982179
Ni       9.03196826       6.66563988       0.13159908        4       1.00000000      -0.03475068       0.02626233       0.18195538
Ni      11.60898057       6.64261748       0.03724473        4       1.00000000       0.06131006      -0.02756935      -0.06090889
Ni       1.29407374       0.75687433       2.16368343        3       1.00000000      -0.01238928       0.07949613       0.03236019
Ni       3.85437513       0.76082807       2.19276078        3       1.00000000       0.07773945       0.04918769       0.01705326
Ni       6.43446117       0.75488891       2.23910390        3       1.00000000       0.01575913       0.07056961       0.19296707
Pt       9.01430980       0.77274414       2.16849805        3       0.00000000      -0.01548267       0.09843405       0.07906787
Ni       2.55537701       2.92906793       2.19422349        3       1.00000000      -0.01217086       0.03987824      -0.03683092
Ni       5.14936726       2.91450365       2.22306620        3       1.00000000      -0.07086837      -0.12965799       0.00260164
Ni       7.71504647       2.92877292       2.21764398        3       1.00000000       0.02648889       0.00694382      -0.07151787
Ni      10.31806058       2.91940876       2.19368543        3       1.00000000       0.03774653       0.00966547       0.13935897
Pt       3.87941897       5.14814167       2.15167640        3       0.00000000      -0.03315119      -0.05493120      -0.03094575
Ni       6.43483431       5.15955720       2.19373040        3       1.00000000       0.05141218       0.01679989      -0.06679779
Pt       8.97618497       5.13339547       2.26479477        3       0.00000000      -0.08478462      -0.04023491      -0.06843596
Pt      11.59810619       5.11377178       2.18919493        3       0.00000000       0.02030400      -0.05504199      -0.01871498
Ni       5.14198851       7.39185033       2.16836355        3       1.00000000      -0.07658410      -0.00321279      -0.05721650
Ni       7.70460576       7.40168230       2.16836846        3       1.00000000       0.03255317      -0.02379294      -0.00710636
Pt      10.34746457       7.43279509       2.13129771        3       0.00000000       0.09014532       0.01960392       0.00881703
Ni      12.87460820       7.38477470       2.14801558        3       1.00000000       0.03270861      -0.05791517      -0.03249619
Ni      -0.02308419       1.53308705       4.33490711        2       1.00000000       0.01422644       0.11816378       0.00575514
Pt       2.58631502       1.57010888       4.26697279        2       0.00000000      -0.04555131       0.08504799       0.04958417
Ni       5.17723432       1.47984179       4.31842705        2       1.00000000       0.02791300      -0.05812044      -0.16040144
Ni       7.70171552       1.46830657       4.31831460        2       1.00000000      -0.00348985      -0.08074727      -0.04982141
Ni       1.25846121       3.73726177       4.35539217        2       1.00000000      -0.00586295      -0.00623547      -0.03387660
Ni       3.83143729       3.69611464       4.34758497        2       1.00000000      -0.03321868       0.05783347      -0.12594507
Pt       6.47709927       3.62243346       4.28592101        2       0.00000000      -0.01345440      -0.00933132      -0.08577956
Ni       9.04922009       3.69153747       4.33509182        2       1.00000000       0.12159523      -0.07229489      -0.04646369
Ni       2.51167355       5.87134961       4.39954221        2       1.00000000      -0.05835452      -0.03830862      -0.03770926
Pt       5.12336749       5.86920190       4.33746229        2       0.00000000       0.03666496      -0.02501406       0.03463517
Ni       7.73878272       5.86124826       4.34537113        2       1.00000000      -0.00572776       0.01572039      -0.04190541
Ni      10.33682678       5.85220397       4.36843638        2       1.00000000       0.06599442       0.00824154       0.00979773
Pt       3.76652913       8.10899263       4.28777949        2       0.00000000      -0.05293758      -0.06267397       0.12862833
Pt       6.43453610       8.12704972       4.24848660        2       0.00000000      -0.07834644       0.09242327       0.00482205
Pt       9.05944359       8.09456399       4.27168024        2       0.00000000       0.00010311      -0.04114426       0.05941102
Ni      11.57921358       8.10205267       4.31232404        2       1.00000000      -0.01241477      -0.03484441      -0.04334000
Pt      -0.02044034      -0.06106971       6.56882337        1       0.00000000       0.02379410      -0.05470122       0.10451651
Pt       2.57849072      -0.00920967       6.58397447        1       0.00000000      -0.05816854       0.00267403       0.22763834
Pt       5.16026498       0.02917781       6.51711648        1       0.00000000       0.05422612       0.00819999       0.02904690
Pt       7.68932727      -0.05711467       6.53497471        1       0.00000000      -0.02930611      -0.09065031       0.13755153
Pt       1.30384154       2.32642504       6.52942506        1       0.00000000       0.08787430       0.07354041       0.18363040
Ni       3.86945023       2.24187938       6.41207024        1       1.00000000       0.00808821       0.04074239      -0.29537635
Ni       6.41884373       2.22012603       6.41347066        1       1.00000000      -0.00952805      -0.02101137      -0.23437486
Pt       8.96011445       2.29097069       6.46181055        1       0.00000000      -0.02443157       0.05829897       0.00789341
Ni       2.55262788       4.47838774       6.46914350        1       1.00000000      -0.00308839       0.12080307      -0.23710091
Pt       5.10852095       4.39705649       6.54462367        1       0.00000000      -0.01642689      -0.00750231       0.09075806
Ni       7.69950714       4.42520681       6.38401310        1       1.00000000      -0.10077916       0.00422319      -0.36275587
Ni      10.32567949       4.44773601       6.45110743        1       1.00000000       0.12239446       0.02907907      -0.20569831
Ni       3.81064880       6.59140800       6.49833098        1       1.00000000      -0.08665334      -0.08312728      -0.11622626
Ni       6.42838177       6.59535893       6.41970410        1       1.00000000       0.05468894      -0.05949623      -0.24317385
Pt       9.02857549       6.52062803       6.50045367        1       0.00000000       0.04443140      -0.03288876       0.09658168
Ni      11.60365383       6.56754236       6.45148475        1       1.00000000       0.01952539      -0.06805756      -0.20315908
