102
Lattice="13.791587736635215 -1.8112103385096306e-07 5.378664298030767e-07 6.895793711462199 11.943865620083509 -5.369412600478491e-07 0.0 0.0 37.15138878154366" Properties=species:S:1:pos:R:3:tags:I:1:initial_magmoms:R:1:forces:R:3 energy=-588.5422973632812 free_energy=-588.5422973632812 stress="0.009432919028555031 -0.00011639342037176329 -5.277294132370017e-05 -0.00011639342037176329 0.009567327194492117 -3.0466172978092383e-05 -5.277294132370017e-05 -3.0466172978092383e-05 0.0013534119015576537" pbc="T T T"
Pt       0.00000009       0.00000010       0.00000050        0       0.00000000      -0.00166570      -0.00096194       0.13105711
Pt       2.75831763       0.00000006       0.00000053        0       0.00000000       0.00327909       0.00042598       0.14525837
Pt       5.51663515      -0.00000014       0.00000071        0       0.00000000       0.00200755      -0.00335296       0.13130608
Pt       8.27495278      -0.00000004       0.00000082        0       0.00000000      -0.00218906       0.00047382       0.13305226
Pt      11.03327025      -0.00000010       0.00000087        0       0.00000000      -0.00165473      -0.00060387       0.12639430
Pt       1.37915882       2.38877325       0.00000031        0       0.00000000       0.00200727       0.00262775       0.14525700
Pt       4.13747636       2.38877307       0.00000042        0       0.00000000       0.00190201       0.00109632       0.12269592
Pt       6.89579384       2.38877307       0.00000072        0       0.00000000      -0.00140812       0.00038784       0.13126740
Pt       9.65411145       2.38877301       0.00000079        0       0.00000000       0.00159508       0.00010361       0.13306180
Pt      12.41242897       2.38877302       0.00000074        0       0.00000000      -0.00206319      -0.00310732       0.13051718
Pt       2.75831757       4.77754637       0.00000030        0       0.00000000      -0.00189960       0.00341385       0.13130417
Pt       5.51663503       4.77754616       0.00000039        0       0.00000000      -0.00036797      -0.00141188       0.13126436
Pt       8.27495256       4.77754613       0.00000040        0       0.00000000       0.00011751       0.00007112       0.13190818
Pt      11.03327011       4.77754616       0.00000064        0       0.00000000       0.00042452       0.00058118       0.13242844
Pt      13.79158766       4.77754604       0.00000062        0       0.00000000       0.00352211       0.00020093       0.13938674
Pt       4.13747629       7.16631935       0.00000003        0       0.00000000      -0.00067915      -0.00213476       0.13305140
Pt       6.89579371       7.16631933       0.00000023        0       0.00000000       0.00088648       0.00133202       0.13306177
Pt       9.65411137       7.16631934       0.00000033        0       0.00000000       0.00071596       0.00007508       0.13243151
Pt      12.41242886       7.16631934       0.00000052        0       0.00000000       0.00161730       0.00093540       0.13627660
Pt      15.17074637       7.16631925       0.00000049        0       0.00000000       0.00128197       0.00680662       0.12329540
Pt       5.51663495       9.55509252       0.00000000        0       0.00000000      -0.00134295      -0.00113480       0.12639600
Pt       8.27495257       9.55509239       0.00000014        0       0.00000000      -0.00372541      -0.00023417       0.13051462
Pt      11.03327014       9.55509235       0.00000017        0       0.00000000       0.00193542       0.00294925       0.13938722
Pt      13.79158763       9.55509238       0.00000047        0       0.00000000       0.00653575      -0.00229234       0.12329537
Pt      16.54990513       9.55509229       0.00000038        0       0.00000000       0.00139091       0.00081136       0.13344043
Pt       1.37915871       0.79625751       2.38854620        1       0.00000000       0.02670753       0.01541480      -0.06329096
Pt       4.13747621       0.79625759       2.38854657        1       0.00000000      -0.04050087      -0.03795128      -0.08360614
Pt       6.89579369       0.79625747       2.38854643        1       0.00000000      -0.00335676      -0.01045970      -0.15163176
Pt       9.65411133       0.79625730       2.38854679        1       0.00000000       0.00132113      -0.00007437      -0.14402553
Pt      12.41242891       0.79625740       2.38854668        1       0.00000000       0.00153944       0.01943834      -0.17211455
Pt       2.75831728       3.18503037       2.38854627        1       0.00000000      -0.05311196      -0.01610119      -0.08360993
Pt       5.51663489       3.18503067       2.38854644        1       0.00000000       0.00281838       0.00162546      -0.17226833
Pt       8.27495261       3.18503085       2.38854636        1       0.00000000       0.00168632       0.00049355      -0.14300263
Pt      11.03327032       3.18503042       2.38854670        1       0.00000000       0.00261219      -0.00143932      -0.14194578
Pt      13.79158776       3.18503064       2.38854676        1       0.00000000       0.04202733      -0.00312099      -0.07361337
Pt       4.13747609       5.57380380       2.38854634        1       0.00000000      -0.01072939       0.00232109      -0.15163751
Pt       6.89579384       5.57380384       2.38854617        1       0.00000000       0.00128323       0.00121677      -0.14299445
Pt       9.65411142       5.57380378       2.38854628        1       0.00000000       0.00210900       0.00122707      -0.13352728
Pt      12.41242912       5.57380366       2.38854642        1       0.00000000       0.00447889      -0.00099532      -0.14237657
Pt      15.17074656       5.57380372       2.38854658        1       0.00000000      -0.00655776      -0.03760279      -0.10585804
Pt       5.51663498       7.96257672       2.38854615        1       0.00000000       0.00059501       0.00118467      -0.14403462
Pt       8.27495261       7.96257687       2.38854597        1       0.00000000       0.00005335       0.00297077      -0.14193019
Pt      11.03327016       7.96257699       2.38854653        1       0.00000000       0.00137626       0.00437792      -0.14238176
Pt      13.79158772       7.96257660       2.38854616        1       0.00000000      -0.00785283      -0.00453181      -0.12674189
Pt      16.54990518       7.96257671       2.38854636        1       0.00000000      -0.01208696      -0.00866637      -0.13886756
Pt       6.89579364      10.35134986       2.38854591        1       0.00000000       0.01760853      -0.00838575      -0.17211190
Pt       9.65411124      10.35134989       2.38854587        1       0.00000000       0.01831415       0.03796137      -0.07361250
Pt      12.41242889      10.35134988       2.38854639        1       0.00000000      -0.03584073       0.01312649      -0.10585783
Pt      15.17074648      10.35134982       2.38854620        1       0.00000000      -0.01355251      -0.00613220      -0.13886769
Pt      17.92906403      10.35134982       2.38854660        1       0.00000000      -0.00693637      -0.00400280      -0.14980432
Pt       0.00516672       1.59819567       4.74592496        2       0.00000000      -0.00050506       0.00157915      -0.00821389
Pt       2.74983982       1.58762040       4.76467843        2       0.00000000       0.00207624       0.00120197       0.00182364
Pt       5.51689202       1.59077873       4.72222121        2       0.00000000       0.00242497       0.00123330       0.00601117
Pt       8.27441217       1.59008023       4.72958006        2       0.00000000       0.00274208      -0.00196316       0.00094086
Pt      11.03284073       1.59096613       4.73084756        2       0.00000000       0.00062399      -0.00026538      -0.00101805
Pt       1.37760933       3.95840336       4.76953227        2       0.00000000       0.00137341       0.00474026      -0.00195485
Pt       4.13610000       3.98237976       4.72221974        2       0.00000000       0.00228922       0.00148625       0.00601706
Pt       6.89643386       3.98165627       4.73013567        2       0.00000000       0.00080648       0.00048275      -0.00070578
Pt       9.65308514       3.98087607       4.73219161        2       0.00000000       0.00038753      -0.00159917      -0.00098236
Pt      12.40860713       3.98099545       4.73059922        2       0.00000000       0.00124546      -0.00048971       0.00261278
Pt       2.75053964       6.36338896       4.73034539        2       0.00000000       0.00121888       0.00159407       0.00136173
Pt       5.51425717       6.37081229       4.72957545        2       0.00000000      -0.00033368       0.00333139       0.00096233
Pt       8.27408316       6.36937692       4.73219976        2       0.00000000      -0.00120269       0.00114017      -0.00103995
Pt      11.03259176       6.36967194       4.73289326        2       0.00000000      -0.00325000      -0.00189002      -0.00125100
Pt      13.79035662       6.36270923       4.73266601        2       0.00000000      -0.00185055       0.00144808      -0.00154063
Pt       4.12968985       8.75348035       4.72879082        2       0.00000000       0.00064997       0.00195300       0.00089282
Pt       6.89423644       8.75923602       4.73084733        2       0.00000000       0.00011060       0.00068441      -0.00102699
Pt       9.65194704       8.75567063       4.73059946        2       0.00000000       0.00018466       0.00133251       0.00261374
Pt      12.40544582       8.76144412       4.73266538        2       0.00000000       0.00033249      -0.00231996      -0.00153604
Pt      15.16236308       8.75399473       4.73172282        2       0.00000000       0.00120164       0.00068663      -0.00014131
Pt       5.51089193      11.14429147       4.71849640        2       0.00000000      -0.00041827      -0.00023264      -0.00257131
Pt       8.28245614      11.14924211       4.74592399        2       0.00000000       0.00110741      -0.00123271      -0.00821149
Pt      11.01267488      11.15770811       4.76953380        2       0.00000000       0.00479973      -0.00118014      -0.00196227
Pt      13.78191929      11.14420913       4.73034626        2       0.00000000       0.00198176       0.00025271       0.00135410
Pt      16.54137301      11.14354116       4.72879163        2       0.00000000       0.00204262      -0.00039651       0.00088972
Pt      -0.04976694      -0.02873227       7.04023996        3       0.00000000      -0.00243187      -0.00140325      -0.00763774
Pt       2.75326463       0.01384604       7.20953707        3       0.00000000      -0.00908650      -0.01150955      -0.02106164
Pt       5.52091479       0.00041647       7.09161359        3       0.00000000      -0.00663378       0.00180906      -0.00064838
Pt       8.26807290      -0.00373802       7.08888657        3       0.00000000       0.00105822       0.00056449      -0.00036192
Pt      11.01097553      -0.00574622       7.08495019        3       0.00000000       0.00146449      -0.00133062       0.00353181
Pt       1.38862336       2.37747388       7.20953513        3       0.00000000      -0.01451284      -0.00210875      -0.02106252
Pt       4.17111544       2.40819520       7.05806541        3       0.00000000      -0.00611565      -0.00353351       0.00599179
Pt       6.90527075       2.38883440       7.08567667        3       0.00000000       0.00046276       0.00468839       0.00106195
Pt       9.65272755       2.38766448       7.08849617        3       0.00000000       0.00003439      -0.00002490       0.00144780
Pt      12.40869661       2.38639739       7.08894702        3       0.00000000      -0.00721343       0.00149830       0.00091943
Pt       2.76081799       4.78104514       7.09161330        3       0.00000000      -0.00175289      -0.00665162      -0.00065345
Pt       5.52142734       4.78572272       7.08567207        3       0.00000000       0.00428884      -0.00193967       0.00107038
Pt       8.27628758       4.77831631       7.09019334        3       0.00000000       0.00551234       0.00317941      -0.00129715
Pt      11.03371147       4.77424610       7.09136178        3       0.00000000       0.00161876       0.00209075       0.00061843
Pt      13.78833644       4.76850899       7.09514382        3       0.00000000      -0.00080276       0.00625713       0.00187483
Pt       4.13079877       7.16223114       7.08888541        3       0.00000000       0.00102484       0.00063536      -0.00036833
Pt       6.89414147       7.16567496       7.08849565        3       0.00000000      -0.00001678       0.00004130       0.00145900
Pt       9.65147063       7.16835347       7.09136656        3       0.00000000       0.00264726       0.00035275       0.00061017
Pt      12.40771651       7.16359901       7.08929551        3       0.00000000       0.00110211       0.00063805       0.00121909
Pt      15.16383130       7.16044478       7.09020717        3       0.00000000       0.00295529      -0.00021501      -0.00069010
Pt       5.50051217       9.53865777       7.08494849        3       0.00000000      -0.00042459       0.00193778       0.00353757
Pt       8.27102889       9.55304911       7.08894575        3       0.00000000      -0.00231094      -0.00700173       0.00092068
Pt      11.02381707       9.55679523       7.09514333        3       0.00000000       0.00502241      -0.00382297       0.00187764
Pt      13.78304279       9.55204221       7.09020703        3       0.00000000       0.00128684       0.00266914      -0.00068870
Pt      16.53916216       9.54889021       7.08809542        3       0.00000000       0.00090840       0.00052373       0.00182578
O        1.86301370       1.07560957       9.13568715        0       0.00000000       0.02054369       0.01185867      -0.02928317
O        2.56037720       1.47823195      10.13343691        0       0.00000000       0.03510484       0.02026758      -0.00513361
