102
Lattice="13.791587736635215 -1.8112103385096306e-07 5.378664298030767e-07 6.895793711462199 11.943865620083509 -5.369412600478491e-07 0.0 0.0 37.15138878154366" Properties=species:S:1:pos:R:3:tags:I:1:initial_magmoms:R:1:forces:R:3 energy=-588.4268798828125 free_energy=-588.4268798828125 stress="0.009442597577214057 -6.491894861350348e-09 4.080931679016834e-09 -6.491894861350348e-09 0.009442613946223165 -1.570854720544045e-09 4.080931679016834e-09 -1.570854720544045e-09 0.0011496405245470169" pbc="T T T"
Pt       0.00000009       0.00000010       0.00000050        0       0.00000000      -0.00000003      -0.00000010       0.14659622
Pt       2.75831763       0.00000006       0.00000053        0       0.00000000       0.00077511      -0.00269256       0.13243556
Pt       5.51663515      -0.00000014       0.00000071        0       0.00000000      -0.00134882       0.00002989       0.13275373
Pt       8.27495278      -0.00000004       0.00000082        0       0.00000000       0.00134836       0.00002647       0.13275117
Pt      11.03327025      -0.00000010       0.00000087        0       0.00000000      -0.00077487      -0.00269406       0.13243654
Pt       1.37915882       2.38877325       0.00000031        0       0.00000000      -0.00194543       0.00201804       0.13243493
Pt       4.13747636       2.38877307       0.00000042        0       0.00000000      -0.00028519      -0.00016537       0.13173047
Pt       6.89579384       2.38877307       0.00000072        0       0.00000000      -0.00000151       0.00003988       0.13206074
Pt       9.65411145       2.38877301       0.00000079        0       0.00000000       0.00028431      -0.00016454       0.13173139
Pt      12.41242897       2.38877302       0.00000074        0       0.00000000       0.00194626       0.00201870       0.13243681
Pt       2.75831757       4.77754637       0.00000030        0       0.00000000      -0.00064848      -0.00118444       0.13275120
Pt       5.51663503       4.77754616       0.00000039        0       0.00000000       0.00003466      -0.00001913       0.13205978
Pt       8.27495256       4.77754613       0.00000040        0       0.00000000      -0.00003564      -0.00001808       0.13206223
Pt      11.03327011       4.77754616       0.00000064        0       0.00000000       0.00064911      -0.00118423       0.13275090
Pt      13.79158766       4.77754604       0.00000062        0       0.00000000       0.00000102       0.00419117       0.12481022
Pt       4.13747629       7.16631935       0.00000003        0       0.00000000       0.00070188       0.00115336       0.13275233
Pt       6.89579371       7.16631933       0.00000023        0       0.00000000      -0.00000253       0.00033054       0.13172993
Pt       9.65411137       7.16631934       0.00000033        0       0.00000000      -0.00069960       0.00115331       0.13275194
Pt      12.41242886       7.16631934       0.00000052        0       0.00000000      -0.00007127      -0.00003957       0.13252360
Pt      15.17074637       7.16631925       0.00000049        0       0.00000000       0.00007017      -0.00004214       0.13252357
Pt       5.51663495       9.55509252       0.00000000        0       0.00000000      -0.00271308       0.00067329       0.13243797
Pt       8.27495257       9.55509239       0.00000014        0       0.00000000       0.00271769       0.00067356       0.13243416
Pt      11.03327014       9.55509235       0.00000017        0       0.00000000       0.00363120      -0.00209625       0.12480906
Pt      13.79158763       9.55509238       0.00000047        0       0.00000000      -0.00000032       0.00008311       0.13252121
Pt      16.54990513       9.55509229       0.00000038        0       0.00000000      -0.00363432      -0.00208966       0.12480795
Pt       1.37915871       0.79625751       2.38854620        1       0.00000000      -0.03457560      -0.01996629      -0.08071392
Pt       4.13747621       0.79625759       2.38854657        1       0.00000000      -0.00012065      -0.00026941      -0.15420878
Pt       6.89579369       0.79625747       2.38854643        1       0.00000000      -0.00000316       0.00017158      -0.14519474
Pt       9.65411133       0.79625730       2.38854679        1       0.00000000       0.00012543      -0.00026367      -0.15420851
Pt      12.41242891       0.79625740       2.38854668        1       0.00000000       0.03457317      -0.01996342      -0.08071894
Pt       2.75831728       3.18503037       2.38854627        1       0.00000000      -0.00029165       0.00002912      -0.15420543
Pt       5.51663489       3.18503067       2.38854644        1       0.00000000       0.00073277       0.00042184      -0.13934356
Pt       8.27495261       3.18503085       2.38854636        1       0.00000000      -0.00073163       0.00042400      -0.13934343
Pt      11.03327032       3.18503042       2.38854670        1       0.00000000       0.00029360       0.00002761      -0.15421312
Pt      13.79158776       3.18503064       2.38854676        1       0.00000000       0.00000066      -0.02262684      -0.13954836
Pt       4.13747609       5.57380380       2.38854634        1       0.00000000       0.00015729      -0.00009058      -0.14519367
Pt       6.89579384       5.57380384       2.38854617        1       0.00000000       0.00000133      -0.00084606      -0.13934578
Pt       9.65411142       5.57380378       2.38854628        1       0.00000000      -0.00015689      -0.00009195      -0.14519587
Pt      12.41242912       5.57380366       2.38854642        1       0.00000000       0.00270412      -0.00168520      -0.14140338
Pt      15.17074656       5.57380372       2.38854658        1       0.00000000      -0.00270287      -0.00168755      -0.14140493
Pt       5.51663498       7.96257672       2.38854615        1       0.00000000      -0.00017093       0.00024013      -0.15420845
Pt       8.27495261       7.96257687       2.38854597        1       0.00000000       0.00016686       0.00023826      -0.15420705
Pt      11.03327016       7.96257699       2.38854653        1       0.00000000      -0.00011012       0.00318269      -0.14140627
Pt      13.79158772       7.96257660       2.38854616        1       0.00000000      -0.00000126      -0.00000354      -0.14171073
Pt      16.54990518       7.96257671       2.38854636        1       0.00000000       0.00011308       0.00317875      -0.14140753
Pt       6.89579364      10.35134986       2.38854591        1       0.00000000       0.00000210       0.03992462      -0.08071788
Pt       9.65411124      10.35134989       2.38854587        1       0.00000000      -0.01959377       0.01131635      -0.13954599
Pt      12.41242889      10.35134988       2.38854639        1       0.00000000      -0.00281092      -0.00149074      -0.14140847
Pt      15.17074648      10.35134982       2.38854620        1       0.00000000       0.00280815      -0.00149145      -0.14140734
Pt      17.92906403      10.35134982       2.38854660        1       0.00000000       0.01959945       0.01131320      -0.13954572
Pt      -0.00000018       1.57944357       4.75757787        2       0.00000000       0.00000287      -0.00729070      -0.00048885
Pt       2.76021143       1.59360856       4.72723879        2       0.00000000       0.00027901       0.00016736      -0.00075403
Pt       5.51763980       1.59238896       4.73085192        2       0.00000000      -0.00046205       0.00060180       0.00089191
Pt       8.27394837       1.59238889       4.73085213        2       0.00000000       0.00040257       0.00063498       0.00092399
Pt      11.03137654       1.59360881       4.72723895        2       0.00000000      -0.00028571       0.00015990      -0.00075021
Pt       1.37736377       3.97951076       4.72796895        2       0.00000000       0.00122099       0.00119251       0.00045301
Pt       4.13786935       3.98222135       4.73085170        2       0.00000000       0.00045879      -0.00060422       0.00098659
Pt       6.89579333       3.98128833       4.73253831        2       0.00000000       0.00000554      -0.00000189      -0.00065039
Pt       9.65371859       3.98222138       4.73085216        2       0.00000000      -0.00035374      -0.00066981       0.00092778
Pt      12.41422389       3.97951036       4.72796968        2       0.00000000      -0.00121531       0.00120224       0.00044973
Pt       2.75762157       6.37046366       4.73028742        2       0.00000000      -0.00036649       0.00021208       0.00169334
Pt       5.51602351       6.36925439       4.73085144        2       0.00000000       0.00074971      -0.00003102       0.00095205
Pt       8.27556408       6.36925462       4.73085171        2       0.00000000      -0.00074937      -0.00002974       0.00095516
Pt      11.03396603       6.37046357       4.73028758        2       0.00000000       0.00031103       0.00024333       0.00172262
Pt      13.79158752       6.37046838       4.73120675        2       0.00000000      -0.00000083       0.00046571       0.00025105
Pt       4.13811846       8.76127809       4.72796948        2       0.00000000      -0.00042914      -0.00165978       0.00044857
Pt       6.89579394       8.75664758       4.72723808        2       0.00000000       0.00000606      -0.00032198      -0.00075148
Pt       9.65346963       8.76127841       4.72796960        2       0.00000000       0.00042320      -0.00165455       0.00044940
Pt      12.41278292       8.75863054       4.73120412        2       0.00000000       0.00039549      -0.00023469       0.00026983
Pt      15.17039308       8.75863046       4.73120407        2       0.00000000      -0.00039194      -0.00023127       0.00027242
Pt       5.52795571      11.15414392       4.75757782        2       0.00000000       0.00631461       0.00364605      -0.00048877
Pt       8.26363232      11.15414369       4.75757753        2       0.00000000      -0.00631553       0.00364479      -0.00048923
Pt      11.03083305      11.14694203       4.72796877        2       0.00000000       0.00164544       0.00045885       0.00044999
Pt      13.79158796      11.14680411       4.73028805        2       0.00000000       0.00000464      -0.00034831       0.00174816
Pt      16.55234266      11.14694194       4.72796960        2       0.00000000      -0.00165210       0.00045869       0.00045346
Pt       0.00000003       0.00000006       7.22915427        3       0.00000000      -0.00000139      -0.00000273       0.01099658
Pt       2.77549765       0.00214631       7.07890214        3       0.00000000      -0.00028400       0.00057489      -0.00032008
Pt       5.51993613      -0.00006807       7.08712559        3       0.00000000       0.00030559       0.00030549       0.00210360
Pt       8.27165220      -0.00006790       7.08712640        3       0.00000000      -0.00030631       0.00030017       0.00210077
Pt      11.01609024       0.00214646       7.07890308        3       0.00000000       0.00028367       0.00057683      -0.00032198
Pt       1.38960776       2.40257814       7.07890229        3       0.00000000       0.00036157      -0.00053308      -0.00032097
Pt       4.13954118       2.38996466       7.08730519        3       0.00000000      -0.00019439      -0.00010628       0.00221550
Pt       6.89579374       2.38944646       7.09016564        3       0.00000000       0.00000003      -0.00028142      -0.00109905
Pt       9.65204664       2.38996460       7.08730573        3       0.00000000       0.00019421      -0.00010702       0.00221220
Pt      12.40197993       2.40257786       7.07890261        3       0.00000000      -0.00035900      -0.00053298      -0.00032061
Pt       2.75990955       4.78043842       7.08712636        3       0.00000000       0.00041558       0.00010807       0.00209898
Pt       5.51721830       4.77720930       7.09016577        3       0.00000000      -0.00024425       0.00013803      -0.00109911
Pt       8.27436906       4.77720917       7.09016551        3       0.00000000       0.00024196       0.00014065      -0.00110003
Pt      11.03167842       4.78043830       7.08712651        3       0.00000000      -0.00041494       0.00010853       0.00209782
Pt      13.79158740       4.77945732       7.08613164        3       0.00000000      -0.00000093       0.00072274       0.00238734
Pt       4.13576758       7.16349425       7.08712619        3       0.00000000       0.00011066      -0.00041120       0.00210047
Pt       6.89579366       7.16393557       7.08730495        3       0.00000000       0.00000094       0.00021879       0.00221580
Pt       9.65582028       7.16349425       7.08712620        3       0.00000000      -0.00011301      -0.00041229       0.00209948
Pt      12.41305107       7.16667844       7.08970600        3       0.00000000      -0.00080678      -0.00046484      -0.00075632
Pt      15.17012440       7.16667829       7.08970602        3       0.00000000       0.00080947      -0.00046540      -0.00075439
Pt       5.50990409       9.53914027       7.07890216        3       0.00000000       0.00064429      -0.00004193      -0.00031739
Pt       8.28168370       9.53914060       7.07890211        3       0.00000000      -0.00064567      -0.00004371      -0.00032020
Pt      11.03492503       9.55413662       7.08613199        3       0.00000000       0.00062613      -0.00036069       0.00238129
Pt      13.79158788       9.55437382       7.08970539        3       0.00000000       0.00000070       0.00093248      -0.00075570
Pt      16.54825018       9.55413698       7.08613183        3       0.00000000      -0.00062923      -0.00036499       0.00237989
O        0.00000013       0.00000052       9.51688003        0       0.00000000       0.00000017      -0.00000049       0.04858643
O       -0.00000006       0.00000026      10.76827062        0       0.00000000       0.00000013      -0.00000031       0.04029754
