64
Lattice="10.158674037236116 0.008731223947861261 0.010160565166335307 5.086898480363092 8.76439330562266 -0.0012894779010972116 0.008296066718606191 -0.0060054677772771944 8.677855205848267" Properties=species:S:1:pos:R:3:tags:I:1:initial_magmoms:R:1:forces:R:3 unique_id=fda58b5f8e0a47a79c73b4537a3fcf44 stress="-0.006101035220386922 1.724365292501628e-05 8.963326063289316e-06 1.724365292501628e-05 -0.006059999827034063 -1.3971176064162631e-05 8.963326063289316e-06 -1.3971176064162631e-05 -0.005186239169852801" energy=-390.812750181724 pbc="T T T"
Ni       0.03033010      -0.01775969       0.18030317        4       1.00000000       0.04999193       0.02912524       0.11545993
Ni       2.49104813      -0.00011523       0.20207561        4       1.00000000      -0.00504222      -0.00413944       0.04530967
Pt       5.13814215      -0.00774798       0.21975947        4       0.00000000       0.00944929      -0.01283410      -0.08079429
Ni       7.64660249      -0.03941431       0.17739973        4       1.00000000       0.05859113      -0.08345031       0.06461481
Ni       1.26957343       2.20842175       0.13297850        4       1.00000000      -0.00074062       0.04916294       0.11955272
Pt       3.77317659       2.26529378       0.20781570        4       0.00000000      -0.03540155       0.02286855      -0.08325707
Ni       6.35749871       2.24355090       0.13558970        4       1.00000000      -0.02144173       0.05369339       0.12962530
Pt       8.89570434       2.25650644       0.16293050        4       0.00000000       0.00932265       0.07430281      -0.14038502
Ni       2.51964289       4.42683746       0.11392985        4       1.00000000       0.00060259       0.03895547       0.05604745
Ni       5.09954686       4.42727610       0.11501038        4       1.00000000      -0.06263643       0.06690723       0.04118454
Ni       7.56187453       4.38058574       0.12181049        4       1.00000000      -0.06255758      -0.01253257       0.04954869
Ni      10.22956349       4.38724776       0.12876906        4       1.00000000       0.12125680       0.01941259       0.05723412
Ni       3.79882178       6.54208570       0.08259353        4       1.00000000      -0.02315773      -0.03335812      -0.01794163
Ni       6.32530677       6.55176565       0.08361780        4       1.00000000      -0.01688432       0.00433356      -0.05838097
Pt       8.87109030       6.50744251       0.21941854        4       0.00000000       0.01474645      -0.03521253      -0.08170003
Ni      11.48747869       6.53536059       0.13192325        4       1.00000000       0.01228242      -0.01215273       0.06582212
Ni       1.32138700       0.75858174       2.17162395        3       1.00000000      -0.04529248       0.04932989       0.06763177
Ni       3.75575842       0.70882212       2.21168823        3       1.00000000      -0.05964651      -0.01216459       0.00646952
Ni       6.35970784       0.73723101       2.21145992        3       1.00000000       0.02519178       0.00452649       0.05763283
Pt       8.83971291       0.71887383       2.22867479        3       0.00000000       0.03992804      -0.05177407       0.14368825
Ni       2.50772698       2.95979860       2.25221130        3       1.00000000      -0.02702796       0.05012256       0.07263064
Ni       5.08967820       2.97242201       2.17809549        3       1.00000000      -0.02570224       0.08085757       0.02106407
Ni       7.59702664       2.96594258       2.21235928        3       1.00000000       0.01671059      -0.01056005       0.10447914
Ni      10.21535215       2.99260676       2.20786320        3       1.00000000       0.07154871       0.02418120       0.05273893
Ni       3.77535593       5.07318577       2.18391152        3       1.00000000      -0.05906176      -0.03682392      -0.01324088
Ni       6.36374719       5.07949177       2.12452002        3       1.00000000       0.03830275      -0.01174192      -0.02666164
Ni       8.93453603       5.06218033       2.21626839        3       1.00000000       0.08940372      -0.09337168       0.00883110
Ni      11.44460262       5.11818883       2.20407342        3       1.00000000       0.02445790      -0.00545127       0.05414941
Pt       5.10206240       7.21987633       2.19616885        3       0.00000000      -0.03465335      -0.07243701       0.03878558
Ni       7.63921219       7.34257878       2.20499062        3       1.00000000      -0.04102904       0.05421492       0.00691486
Ni      10.19616377       7.26780914       2.27649034        3       1.00000000       0.00884295      -0.07304784       0.05627918
Ni      12.65986077       7.24216432       2.20445349        3       1.00000000       0.01134941      -0.10478186       0.03562230
Pt       0.07983185       1.49669099       4.26716186        2       0.00000000       0.05041873       0.00679274       0.02248712
Ni       2.54874192       1.48290009       4.24647945        2       1.00000000       0.03344478       0.03553892      -0.07785353
Pt       5.06419191       1.42953350       4.19314051        2       0.00000000      -0.00091692       0.01750397      -0.10178413
Ni       7.61242134       1.44165426       4.30621114        2       1.00000000      -0.03653688      -0.03579387      -0.00515486
Ni       1.31096071       3.70766939       4.30205476        2       1.00000000       0.05883115       0.05830725      -0.06435621
Ni       3.75589149       3.72904959       4.25218652        2       1.00000000      -0.01633149       0.06571396      -0.12517430
Pt       6.33793377       3.66400281       4.30968708        2       0.00000000      -0.03002145       0.01702989      -0.03210136
Ni       8.94622744       3.70963378       4.25840615        2       1.00000000       0.06029969       0.06646701      -0.10927803
Ni       2.54504437       5.82906402       4.29664865        2       1.00000000       0.00536853       0.00982796      -0.14751347
Ni       5.02064713       5.84640590       4.34143522        2       1.00000000      -0.03777514      -0.03816726      -0.04442933
Pt       7.62607894       5.87797894       4.21942619        2       0.00000000      -0.03205401      -0.00710561      -0.11501353
Ni      10.24334599       5.82427407       4.26570082        2       1.00000000       0.05261781      -0.02341699      -0.08078196
Ni       3.79487624       7.96029508       4.29808563        2       1.00000000      -0.01485085      -0.05192552       0.01262622
Ni       6.36308831       8.02727179       4.27016935        2       1.00000000      -0.00042677       0.05976136      -0.05229788
Ni       8.90286728       8.02260130       4.23566373        2       1.00000000       0.00877566      -0.02276361      -0.05799549
Ni      11.46524457       7.95550235       4.24279464        2       1.00000000       0.02772887      -0.03753251      -0.06485745
Pt       0.00249013      -0.08818272       6.46230773        1       0.00000000      -0.07549311      -0.06485590       0.13055945
Pt       2.52363227      -0.00107773       6.41647370        1       0.00000000       0.06232458       0.00155807       0.04390992
Pt       5.10671666      -0.01732605       6.36080993        1       0.00000000      -0.07360980      -0.05559478       0.07288264
Pt       7.62295752      -0.06604296       6.42313263        1       0.00000000       0.03654924      -0.03886757       0.07936323
Ni       1.27472553       2.25735402       6.42116757        1       1.00000000       0.02065745       0.04557850       0.01649382
Pt       3.79262878       2.33622154       6.35294598        1       0.00000000      -0.03916833       0.06776255       0.03311510
Ni       6.34740472       2.23797200       6.43939284        1       1.00000000      -0.05099992      -0.00061296       0.02820784
Pt       8.87524487       2.30761686       6.34926364        1       0.00000000      -0.07211360       0.05579433       0.09839279
Ni       2.52054734       4.44476464       6.39133910        1       1.00000000       0.00733121       0.05111325      -0.08615993
Ni       5.08654453       4.44937716       6.43148527        1       1.00000000      -0.05864257       0.06833153       0.00254346
Ni       7.56240421       4.39665523       6.44540215        1       1.00000000      -0.13675682       0.00418037       0.01021422
Ni      10.25216452       4.38342136       6.40208227        1       1.00000000       0.13397154      -0.03413880      -0.09343305
Ni       3.80990413       6.47858275       6.39158795        1       1.00000000      -0.04465656      -0.06183989      -0.09828710
Ni       6.32397804       6.50446803       6.41199352        1       1.00000000       0.00554915      -0.02547551      -0.14052997
Pt       8.93601096       6.45416197       6.37531457        1       0.00000000       0.06642194      -0.06272250       0.08696456
Ni      11.48840017       6.49884565       6.39554446        1       1.00000000       0.00836029      -0.02660879      -0.10971415
