64
Lattice="10.165825708363647 0.010475748565604468 -0.008692105665009154 5.0919851185633505 8.748562451943306 -0.005408976968404779 -0.007097074556542516 -0.0010021344858424253 8.662168120162407" Properties=species:S:1:pos:R:3:tags:I:1:initial_magmoms:R:1:forces:R:3 unique_id=7fd51fdb930d4ec59ba1750097f6c00f stress="-0.0012270558973118614 -3.7342877589744587e-06 5.434487958446175e-06 -3.7342877589744587e-06 -0.0012199710827307114 4.253392079714563e-06 5.434487958446175e-06 4.253392079714563e-06 -0.0010448160762561026" energy=-389.842048839413 pbc="T T T"
Ni       0.03277539      -0.01443029       0.18250934        4       1.00000000       0.13595765      -0.04179082       0.34199713
Ni       2.51151859      -0.02876396       0.20586096        4       1.00000000      -0.04822014      -0.05401815       0.34925260
Ni       5.07994525      -0.00498227       0.15494382        4       1.00000000      -0.03098608       0.10220372       0.25348245
Ni       7.63248955      -0.00381448       0.14340498        4       1.00000000       0.03024920       0.06949496       0.24404745
Ni       1.23280079       2.19416648       0.11228774        4       1.00000000      -0.09329513       0.01335250       0.20048617
Pt       3.75691702       2.20601644       0.16865723        4       0.00000000      -0.11456728       0.04992727       0.18918969
Pt       6.40820982       2.21914241       0.09529890        4       0.00000000       0.07736311       0.10499908      -0.04966876
Ni       8.93862294       2.23708279       0.13676417        4       1.00000000       0.08387403       0.14929925       0.16843593
Ni       2.53721020       4.40476729       0.06174886        4       1.00000000      -0.00721182       0.07673290       0.01046596
Ni       5.09443550       4.43830708       0.09906826        4       1.00000000       0.05141940       0.09041427       0.13909662
Ni       7.64541963       4.42399894       0.10348932        4       1.00000000       0.01997646       0.12419564       0.15181707
Ni      10.15341411       4.37239022       0.06534999        4       1.00000000      -0.09287745       0.01160604       0.02792626
Ni       3.85093266       6.54181383       0.06477636        4       1.00000000       0.16372650      -0.03867795      -0.01345488
Ni       6.35719162       6.55922805       0.10634256        4       1.00000000      -0.00321491      -0.00756929       0.05713475
Ni       8.86264008       6.54320968       0.15027091        4       1.00000000      -0.20063883      -0.06099481       0.18449428
Ni      11.44142606       6.55292307       0.03051851        4       1.00000000      -0.05464017      -0.07108640      -0.13003640
Ni       1.30737162       0.73891622       2.18902787        3       1.00000000       0.04269408       0.03649597       0.16962824
Ni       3.77841101       0.76282486       2.20351291        3       1.00000000      -0.01862519       0.09294277       0.04739167
Ni       6.32911094       0.78003339       2.21638435        3       1.00000000      -0.01615220       0.09632668       0.13652236
Pt       8.93639412       0.81502706       2.16649644        3       0.00000000      -0.02766044       0.04732841       0.03759079
Ni       2.53425175       2.88569772       2.24127010        3       1.00000000       0.02442135      -0.08842070       0.09677777
Ni       5.07860633       2.94304845       2.21564104        3       1.00000000      -0.06859370       0.00374333      -0.07336679
Ni       7.63659693       2.97825853       2.19046488        3       1.00000000       0.03712086       0.09918463       0.01647473
Ni      10.17190929       2.92566068       2.17851792        3       1.00000000       0.03121881       0.00598316       0.12368234
Ni       3.87336795       5.06393683       2.17237848        3       1.00000000       0.09475561      -0.08271554       0.00513710
Ni       6.35921536       5.12405800       2.14648266        3       1.00000000      -0.00156248       0.02419520      -0.04737450
Ni       8.84440178       5.07348915       2.17365965        3       1.00000000      -0.06655318      -0.02664163       0.10254229
Pt      11.43446267       5.01246150       2.17985283        3       0.00000000       0.04256272      -0.13344774       0.00366038
Ni       5.15613256       7.25231312       2.15297244        3       1.00000000       0.04286217      -0.09941812       0.01637655
Ni       7.56189449       7.27329732       2.15096524        3       1.00000000      -0.07015916      -0.10936163       0.06678830
Pt      10.12479734       7.29430883       2.13085699        3       0.00000000      -0.08121391      -0.04947329       0.00424223
Pt      12.74929673       7.25854752       2.12424919        3       0.00000000       0.11208701      -0.10555184      -0.08078776
Ni       0.04590059       1.50365375       4.28909574        2       1.00000000       0.09122267       0.05642482       0.01081374
Ni       2.49550608       1.50517101       4.24308213        2       1.00000000      -0.03386347       0.05069450      -0.03983990
Ni       5.09057238       1.47696061       4.23994996        2       1.00000000      -0.07641997       0.02244786      -0.13582061
Ni       7.61019094       1.47762065       4.27670979        2       1.00000000       0.01698176      -0.00079276      -0.04072798
Ni       1.27430209       3.63026984       4.33595441        2       1.00000000       0.02564261      -0.05012272      -0.02418926
Ni       3.78029136       3.69318571       4.23977549        2       1.00000000      -0.04752128       0.06499467      -0.20633199
Pt       6.35013245       3.67135697       4.27214787        2       0.00000000      -0.00733996       0.00194036      -0.07764922
Ni       8.92770678       3.68433464       4.25702753        2       1.00000000       0.06158753       0.06570717      -0.17096306
Ni       2.53725697       5.77712474       4.34672203        2       1.00000000      -0.00139938      -0.07598299      -0.10547672
Ni       5.09038381       5.81611632       4.30113341        2       1.00000000       0.01175744      -0.04482254      -0.18189773
Ni       7.60648106       5.82264261       4.26636050        2       1.00000000      -0.00760548       0.01569878      -0.18901217
Ni      10.19198972       5.78390719       4.31014002        2       1.00000000      -0.00325577      -0.06152975      -0.05746927
Pt       3.85175585       7.96523708       4.27808525        2       0.00000000       0.07745779      -0.03959304       0.18939588
Ni       6.35688759       7.99648977       4.23979677        2       1.00000000      -0.03026542      -0.02333821      -0.11774529
Pt       8.85463171       8.03152304       4.23181798        2       0.00000000      -0.08952083      -0.02301219       0.11841815
Ni      11.44112001       8.00769618       4.27093012        2       1.00000000      -0.00626361      -0.05452095      -0.07675175
Pt       0.00627404      -0.04005442       6.46952056        1       0.00000000       0.10422471      -0.08475940       0.15586091
Pt       2.51239936       0.00767823       6.45513860        1       0.00000000      -0.13421379       0.01923741       0.21716228
Pt       5.09810553       0.00261763       6.43108775        1       0.00000000       0.13102477      -0.01966536      -0.00992572
Pt       7.61252717      -0.03719550       6.44195882        1       0.00000000      -0.10613622      -0.10315733       0.01300572
Ni       1.26627544       2.25275298       6.38801089        1       1.00000000       0.04402997       0.06131211      -0.14322656
Pt       3.80102692       2.30970815       6.30893378        1       0.00000000       0.01663858       0.23320593      -0.37126454
Ni       6.35219596       2.23442111       6.33099993        1       1.00000000      -0.03044922       0.01256735      -0.27821656
Pt       8.90226021       2.29494246       6.39158597        1       0.00000000       0.00084897       0.12183902      -0.04713217
Ni       2.51632461       4.42145506       6.38340496        1       1.00000000      -0.00585753       0.05864205      -0.20123087
Ni       5.08785123       4.43297818       6.40611646        1       1.00000000      -0.02825406       0.09190633      -0.11787018
Ni       7.57158426       4.37985532       6.41156594        1       1.00000000      -0.20646769      -0.03614630      -0.08406850
Ni      10.23590707       4.37548450       6.38191946        1       1.00000000       0.23908580      -0.02711649      -0.20085192
Ni       3.81111926       6.46823203       6.40828222        1       1.00000000      -0.01110326      -0.16941399      -0.16691500
Ni       6.32417653       6.49358840       6.39620379        1       1.00000000      -0.02433090      -0.05117083      -0.19253343
Pt       8.89900940       6.42970028       6.43584017        1       0.00000000       0.00741530      -0.19793395       0.06451648
Ni      11.47075406       6.49472642       6.37864977        1       1.00000000       0.02823305      -0.04279744      -0.28201477
