64
Lattice="10.29842755454343 -0.027230728591146686 0.006566036074482629 5.125631274548219 8.88093569943619 -0.013715051623982235 0.0 0.0 21.54648140171438" Properties=species:S:1:pos:R:3:tags:I:1:initial_magmoms:R:1:forces:R:3 unique_id=eba41e5d1b034f41bf96f517cb76e3fa stress="0.005382285704283203 8.947002476641153e-06 0.0001593078349296504 8.947002476641153e-06 0.005470044678197454 -0.00010167565106545137 0.0001593078349296504 -0.00010167565106545137 -0.002016703914994084" energy=-374.87665709726144 pbc="T T T"
Ni      -0.02152377       0.02421408       0.15245454        2       1.00000000      -0.03713307       0.00810535      -0.03145228
Ni       2.57057612      -0.00496403       0.16010020        2       1.00000000      -0.03686453       0.02188239      -0.16664795
Ni       5.14826130      -0.02422468       0.11352783        1       1.00000000       0.00524440       0.21469714      -0.43352428
Ni       7.74811172      -0.06039839       0.06921320        1       1.00000000       0.01900559      -0.05230870       0.37168440
Ni       1.26059961       2.21218347       0.03103167        0       1.00000000      -0.01132893      -0.08190157       0.26307512
Pt       3.78976846       2.21955674       0.05491240        1       0.00000000       0.06527661      -0.01810349      -0.05569464
Pt       6.45442884       2.14632523       0.14017892        1       0.00000000      -0.00592221      -0.06091583      -0.50850378
Ni       9.02273843       2.15724915       0.09431322        1       1.00000000      -0.09610156      -0.11824378      -0.09123743
Ni       2.56576942       4.45509301       0.01110699        0       1.00000000       0.11390993       0.02657691       0.17436753
Ni       5.10420844       4.44647946       0.12886453        1       1.00000000      -0.03705014       0.02811935       0.04531911
Pt       7.78001934       4.43523132       0.04711363        0       0.00000000      -0.01699590      -0.05534282       0.00615362
Ni      10.31780146       4.42586137       0.00452877        0       1.00000000       0.04148877       0.01155047       0.14178803
Ni       3.81031897       6.66355013       0.13135902        1       1.00000000      -0.02936503      -0.02523555       0.05493709
Pt       6.38719138       6.69681752       0.13161971        1       0.00000000      -0.09739973       0.03381525      -0.51648847
Ni       9.01409615       6.65744163       0.01523047        0       1.00000000      -0.09306817      -0.01121447       0.10335043
Ni      11.59145344       6.64841265       0.00000000        0       1.00000000       0.15353779       0.04877036       0.13873108
Ni       1.28585042       0.72090852       2.10601492        4       1.00000000      -0.01772489      -0.01203284      -0.00420019
Ni       3.85557002       0.75328851       2.14009559        4       1.00000000       0.07175002       0.09004849       0.14521004
Ni       6.46634281       0.73093596       2.18721059        5       1.00000000       0.10331642       0.10832747       0.19248201
Ni       8.98585443       0.69177480       2.12849351        4       1.00000000      -0.09696017      -0.01038511       0.04726033
Ni       2.59504207       2.95337159       2.14695229        4       1.00000000       0.07606082       0.05050082       0.11323189
Ni       5.11537312       2.95933621       2.17580848        5       1.00000000      -0.15770203       0.00935048       0.15278670
Ni       7.71969413       2.92645678       2.18507872        5       1.00000000       0.02585551      -0.05023876       0.14956170
Pt      10.26032011       2.87624278       2.12927915        4       0.00000000       0.06079774       0.01215074       0.00636149
Ni       3.89304531       5.17655721       2.14963628        4       1.00000000       0.15633478      -0.02554301       0.12752828
Ni       6.40412828       5.16936009       2.17063463        5       1.00000000      -0.06488419       0.05596736       0.12693807
Ni       8.96593352       5.16168542       2.17225787        5       1.00000000      -0.09996494      -0.06095868       0.16964811
Pt      11.65134964       5.15720169       2.08489491        4       0.00000000       0.11890224      -0.04991857      -0.00940596
Ni       5.09034680       7.38766857       2.12943440        4       1.00000000      -0.10921149      -0.10228073       0.02452112
Ni       7.70198594       7.38573771       2.13349657        4       1.00000000       0.04513542      -0.08042507       0.03460506
Pt      10.26521425       7.40345079       2.04733436        3       0.00000000       0.04070565      -0.06587256      -0.09769424
Ni      12.89233577       7.39171179       2.09694567        4       1.00000000       0.02986910       0.05208564      -0.01973676
Ni      -0.02488576       1.49445386       4.28202604        7       1.00000000      -0.00825157      -0.05692959      -0.20225165
Pt       2.60973351       1.52156519       4.24412222        6       0.00000000      -0.01433212      -0.00581733      -0.11410028
Ni       5.15151621       1.49390067       4.25987588        7       1.00000000       0.04330943       0.10872373      -0.34590417
Ni       7.75036703       1.47917313       4.25445034        7       1.00000000       0.09689842       0.06741872      -0.34808722
Pt       1.29247069       3.69809809       4.36632976        8       0.00000000      -0.02878062      -0.04665458      -0.00757489
Ni       3.86893303       3.71905935       4.26654932        7       1.00000000       0.08781524       0.09726173      -0.29411907
Pt       6.44148189       3.70167571       4.18966911        6       0.00000000      -0.07035866       0.00883651      -0.00921948
Ni       8.98201715       3.65981353       4.28967993        7       1.00000000      -0.06948162      -0.09190166      -0.28169025
Ni       2.59252087       5.88437968       4.28572144        7       1.00000000       0.13644378      -0.01489976      -0.17962379
Ni       5.10622190       5.87437788       4.24017822        6       1.00000000      -0.09453682      -0.01860506      -0.34077463
Ni       7.71254624       5.85763409       4.25731414        7       1.00000000      -0.07397636      -0.01604328      -0.32609250
Pt      10.24812772       5.84965889       4.35783091        8       0.00000000       0.02065657       0.04075756      -0.08711691
Pt       3.83761147       8.14637084       4.19723259        6       0.00000000       0.00597215       0.04467152      -0.01673499
Pt       6.39301300       8.10054597       4.16471983        6       0.00000000      -0.05378945      -0.02826825      -0.14696663
Pt       8.97798870       8.11465212       4.24974904        6       0.00000000      -0.08418637       0.01031228      -0.02808648
Pt      11.60364372       8.15052568       4.27212815        7       0.00000000       0.05823909       0.06985859      -0.00374627
Pt      -0.01781286       0.03066162       6.51189871       10       0.00000000       0.09222939       0.04671089       0.16129783
Pt       2.59405810       0.03699260       6.54648140       10       0.00000000       0.02015042      -0.01364207       0.39716464
Pt       5.18950337      -0.08784933       6.52792623       10       0.00000000      -0.07276800       0.06851554       0.49967936
Ni       7.72599049      -0.03562744       6.47478411       10       1.00000000       0.01856055       0.10104785      -0.06424179
Ni       1.30429677       2.26357240       6.46866000       10       1.00000000      -0.00357046      -0.03619292      -0.03444166
Ni       3.83138220       2.23139566       6.38290870        9       1.00000000       0.04101429      -0.08153084       0.12598652
Pt       6.44733196       2.17709110       6.38107234        9       0.00000000      -0.00812883      -0.03687064       0.52737773
Pt       9.05038256       2.27463151       6.44016953        9       0.00000000       0.03225251       0.08997607       0.04528910
Ni       2.51859789       4.40908248       6.45493671       10       1.00000000      -0.01342294       0.04637955      -0.09101643
Pt       5.06998035       4.38422253       6.45404657       10       0.00000000      -0.08942782       0.08022181       0.09918870
Ni       7.76581146       4.43323884       6.36184259        9       1.00000000       0.05602544       0.03796595      -0.00632143
Ni      10.30308427       4.43659433       6.47757106       10       1.00000000      -0.00414738       0.04164124      -0.02886867
Pt       3.73632690       6.63215319       6.47301014       10       0.00000000       0.14058344      -0.17753138       0.00186626
Pt       6.48050544       6.58586475       6.38301476        9       0.00000000      -0.15582484      -0.05237915       0.50386864
Ni       9.02222774       6.58173599       6.46499530       10       1.00000000      -0.08309458      -0.02062298       0.00794362
Ni      11.55142455       6.58387770       6.46910477       10       1.00000000      -0.04158605      -0.15343674      -0.06763844
