64
Lattice="10.358479449269936 -0.03854485261188221 -0.0005926803447743608 5.145858903087949 8.931844297228338 -0.033343613589382835 0.0 0.0 21.607246290349714" Properties=species:S:1:pos:R:3:tags:I:1:initial_magmoms:R:1:forces:R:3 unique_id=91d1d835fee04ddd93290cc95c1c62da stress="0.005861696441081121 -0.0002406950321683903 9.992465652907781e-05 -0.0002406950321683903 0.00591318016106287 -0.00023256183702631385 9.992465652907781e-05 -0.00023256183702631385 -0.0016792534457040643" energy=-376.9750263579843 pbc="T T T"
Ni       0.01422873       0.01095005       0.12330880        1       1.00000000       0.17896039      -0.07524854      -0.20026790
Ni       2.58220776      -0.00844264       0.16061773        2       1.00000000      -0.05583060       0.00398605      -0.03730167
Ni       5.16289454      -0.04230902       0.11081510        1       1.00000000      -0.08532351       0.13722316      -0.36413557
Ni       7.77946284      -0.07983945       0.13382574        1       1.00000000      -0.03241916      -0.15815154      -0.29497339
Ni       1.25581383       2.23521651       0.05521642        1       1.00000000      -0.08919372      -0.00020429       0.52571980
Pt       3.80142045       2.22971862       0.06878467        1       0.00000000       0.02761140      -0.00606089       0.07532340
Pt       6.47896436       2.21435294       0.09312390        1       0.00000000      -0.02864327       0.10893889      -0.80995013
Ni       9.09564420       2.20553170       0.11033755        1       1.00000000       0.06112109       0.17102346      -0.12340038
Ni       2.56906124       4.47596950       0.01723888        0       1.00000000       0.07379732       0.00710195       0.30198971
Ni       5.12609641       4.47149772       0.12241466        1       1.00000000      -0.07625787       0.07099134       0.12444751
Pt       7.83092624       4.46655762       0.05248623        1       0.00000000       0.03973696       0.03328519       0.01655819
Ni      10.36904644       4.42455458       0.01355919        0       1.00000000       0.06239397      -0.06933436       0.32241282
Ni       3.82818314       6.69025876       0.12394188        1       1.00000000      -0.03590361      -0.04641561       0.15189370
Pt       6.42287812       6.72472729       0.12632575        1       0.00000000      -0.08077360       0.04562621      -0.46221380
Ni       9.05302662       6.68474150       0.00000000        0       1.00000000      -0.12145976      -0.00350831       0.11270888
Ni      11.64403017       6.65773724       0.00109348        0       1.00000000       0.14358640      -0.01464370       0.25452264
Ni       1.31818608       0.75044495       2.13565501        4       1.00000000       0.10853925       0.12064172      -0.04879634
Ni       3.84301279       0.74286748       2.16250655        5       1.00000000      -0.08448046       0.04899137       0.15620028
Pt       6.43105991       0.72787579       2.19458885        5       0.00000000      -0.09727837       0.11053508       0.06873502
Pt       9.14225100       0.72184451       2.11282256        4       0.00000000       0.08554649       0.05968910       0.13030484
Ni       2.58326982       2.95836357       2.16561240        5       1.00000000       0.01574191       0.01518158       0.10377678
Ni       5.12375248       3.00134884       2.18952377        5       1.00000000      -0.19585155       0.09874823       0.15827663
Ni       7.79293536       3.00014479       2.17782637        5       1.00000000       0.10818887       0.14322458       0.16455752
Ni      10.35393065       2.93694649       2.14875631        4       1.00000000       0.13688614       0.03323623       0.03303879
Ni       3.89531081       5.19685566       2.16333431        5       1.00000000       0.10223650      -0.07023241       0.12010550
Ni       6.43831492       5.19689775       2.17911060        5       1.00000000      -0.08075304       0.07116734       0.13425050
Ni       9.01893133       5.15256001       2.18440431        5       1.00000000      -0.06695862      -0.15072308       0.19468363
Pt      11.68313196       5.12431497       2.09196423        4       0.00000000       0.09518401      -0.11472733      -0.00776437
Ni       5.13706642       7.39228593       2.14203208        4       1.00000000      -0.09400455      -0.20952664       0.09217447
Ni       7.72687378       7.41810806       2.14263408        4       1.00000000      -0.00273189      -0.08689501       0.03190770
Pt      10.27266269       7.36766304       2.04811169        3       0.00000000      -0.01704794      -0.18626249      -0.06949571
Ni      12.95325269       7.36397403       2.10659783        4       1.00000000       0.03839669      -0.13047948       0.03156321
Ni       0.01354788       1.50268331       4.33065712        7       1.00000000       0.08083662      -0.06248261      -0.21814762
Pt       2.61221034       1.52170362       4.28761765        7       0.00000000      -0.00289247      -0.03464027      -0.15301486
Ni       5.14608473       1.49605864       4.33221138        7       1.00000000       0.00558197       0.12416769      -0.23409196
Pt       7.82156886       1.51083961       4.29464824        7       0.00000000       0.16944443      -0.03060699      -0.01029466
Pt       1.28182876       3.70287293       4.37402452        8       0.00000000      -0.04135671      -0.02807185      -0.09065741
Ni       3.87441058       3.72944094       4.30754356        7       1.00000000       0.04624999       0.12201304      -0.31451918
Pt       6.44027341       3.77221916       4.22704495        6       0.00000000      -0.07040385       0.05526455      -0.15119299
Ni       9.04509902       3.69873822       4.31263771        7       1.00000000      -0.03754835      -0.00561616      -0.31835557
Ni       2.59317178       5.88932923       4.32069926        7       1.00000000       0.10087605      -0.18291828      -0.20712237
Ni       5.13092371       5.89729789       4.27276790        7       1.00000000      -0.12053811      -0.04289328      -0.39892770
Ni       7.75303993       5.88671624       4.29298788        7       1.00000000      -0.04862644       0.00001282      -0.36133491
Pt      10.28562015       5.84895519       4.38967841        8       0.00000000      -0.01668431      -0.02354721      -0.10470963
Pt       3.86886060       8.10470300       4.24099249        6       0.00000000       0.03177600      -0.09215407      -0.09205980
Pt       6.43180045       8.13279674       4.19173315        6       0.00000000      -0.08012381       0.01021110      -0.20504794
Pt       9.00825512       8.14289706       4.26866136        7       0.00000000      -0.04369890      -0.00467040      -0.08597202
Pt      11.63597450       8.09913719       4.30297013        7       0.00000000       0.06184369      -0.07615641      -0.03675933
Pt       0.02269585       0.02593759       6.56628194       11       0.00000000       0.04004190       0.07540838       0.18432635
Pt       2.60100580       0.02561463       6.59996859       11       0.00000000       0.00267485       0.03849550       0.23717850
Pt       5.15922070      -0.09331726       6.58001206       11       0.00000000      -0.03175350       0.11665152       0.43473967
Pt       7.76029831      -0.06982106       6.60724629       11       0.00000000       0.04845535       0.19430400       0.52406877
Ni       1.31428914       2.27177919       6.51898147       10       1.00000000       0.04658897       0.03762132      -0.14911624
Ni       3.83959373       2.23386687       6.44159860        9       1.00000000      -0.01235237      -0.03590112       0.06438776
Pt       6.44176099       2.22488486       6.44685784        9       0.00000000      -0.04566811      -0.05911980       0.81655811
Pt       9.13360643       2.31083648       6.53719607       10       0.00000000       0.03104151       0.10266360       0.14802827
Ni       2.52321488       4.41989449       6.50489062       10       1.00000000      -0.06319642      -0.02004141      -0.22620035
Pt       5.08771380       4.40105664       6.50892265       10       0.00000000      -0.11691964       0.06040005       0.04954579
Ni       7.80037764       4.45267135       6.42243419        9       1.00000000       0.09265074       0.07601140      -0.07476893
Ni      10.36370655       4.45253510       6.52056677       10       1.00000000       0.05085599       0.05110520      -0.13954666
Pt       3.78181993       6.60973894       6.52091623       10       0.00000000       0.07127555      -0.10529163       0.05150860
Pt       6.51406550       6.61164701       6.42867950        9       0.00000000      -0.12693417      -0.07811790       0.36310268
Ni       9.06326223       6.60496191       6.50632810       10       1.00000000      -0.07462883      -0.05059903      -0.09863165
Ni      11.59881287       6.58639492       6.51256268       10       1.00000000       0.02011650      -0.08867960      -0.08982499
