64
Lattice="10.31537712044891 -0.004854622750088633 0.023817537660300068 5.15348433359709 8.833554623002643 -0.04607354759861911 0.01944693806575237 -0.054666252180915996 8.80213290782545" Properties=species:S:1:pos:R:3:tags:I:1:initial_magmoms:R:1:forces:R:3 unique_id=a7e8aca57cf4460b80ab755a5a6bc045 stress="0.0003019258755301568 3.92013073869504e-07 -4.7654949067839225e-08 3.92013073869504e-07 0.0003113584463622712 7.719640024242983e-06 -4.7654949067839225e-08 7.719640024242983e-06 0.00029452718313765364" energy=-397.84817788315274 pbc="T T T"
Ni       0.00620562       0.01584916       0.07772306        4       1.00000000      -0.03497846       0.01077091       0.06872208
Ni       2.57059052       0.01944545       0.08687049        4       1.00000000      -0.00837715       0.06868988       0.09753238
Ni       5.18642477       0.02948345       0.12485969        4       1.00000000       0.16074448       0.11067430       0.24541961
Ni       7.71678361       0.02456768       0.12452413        4       1.00000000      -0.06980269       0.05184227       0.25695370
Ni       1.28779010       2.22211623       0.16543440        4       1.00000000       0.01575596       0.12664189       0.21544725
Pt       3.88165904       2.19658976       0.18784010        4       0.00000000       0.01682239      -0.02431212       0.13683414
Ni       6.44934314       2.19471684       0.11733028        4       1.00000000       0.00984229      -0.06576742       0.23479818
Pt       9.01702778       2.18421147       0.20022119        4       0.00000000       0.01802297      -0.03806437       0.20536544
Ni       2.55563705       4.38480784       0.08024636        4       1.00000000      -0.02494258      -0.05277729       0.19525809
Ni       5.18242052       4.38014744       0.15337160        4       1.00000000       0.10234754      -0.10044486       0.30212209
Ni       7.70408971       4.37483545       0.16658158        4       1.00000000      -0.13488449      -0.12382704       0.25339805
Ni      10.34566898       4.37497970       0.18172651        4       1.00000000       0.11134846      -0.07859190       0.28956789
Pt       3.86390130       6.65213056       0.02556790        4       0.00000000      -0.00588474      -0.00028151      -0.17499114
Pt       6.44460952       6.62237181       0.07446483        4       0.00000000       0.01720552      -0.02735002       0.01345972
Pt       9.02593275       6.67802289       0.11934643        4       0.00000000       0.03251461       0.08430687       0.21096046
Pt      11.60793374       6.62867511       0.17630896        4       0.00000000       0.01656572       0.01361119       0.23747025
Pt       1.26553994       0.71420855       2.15756699        3       0.00000000      -0.09536398      -0.08908599      -0.03613958
Ni       3.92777125       0.68978576       2.22700871        3       1.00000000       0.17109029      -0.09884925      -0.03997006
Ni       6.45457293       0.71605490       2.23462563        3       1.00000000       0.04253496      -0.00314470       0.03570600
Ni       8.98901029       0.68824072       2.27308431        3       1.00000000      -0.12251775      -0.07264956       0.17733070
Ni       2.58310592       2.94265050       2.19011621        3       1.00000000       0.07879119      -0.02646767      -0.01783561
Ni       5.18925801       2.89293645       2.21237610        3       1.00000000      -0.04067521      -0.18305927       0.01263103
Ni       7.68188941       2.87890539       2.20340258        3       1.00000000      -0.14868805      -0.22909467       0.01394017
Ni      10.34001376       2.91811367       2.20985957        3       1.00000000       0.01361861      -0.07542575       0.07724451
Pt       3.87159916       5.12504852       2.24469390        3       0.00000000       0.00685118       0.05064461      -0.06447401
Ni       6.44027322       5.13372284       2.19947667        3       1.00000000      -0.07726813       0.07270746       0.10633487
Pt       8.99546004       5.11312257       2.19030588        3       0.00000000      -0.09097698       0.09506292      -0.09123960
Ni      11.62844420       5.12147798       2.19827416        3       1.00000000       0.08164144       0.03172485      -0.01247646
Ni       5.13419419       7.35429575       2.20802319        3       1.00000000      -0.17589297      -0.03513128       0.06355364
Ni       7.73824645       7.36093754       2.22935317        3       1.00000000       0.03984486      -0.01455312       0.12489005
Ni      10.33527743       7.42742563       2.22670522        3       1.00000000       0.07073677       0.24500702       0.01624856
Ni      12.89372000       7.39915375       2.25901020        3       1.00000000      -0.00113666       0.10664915       0.17562295
Ni      -0.02151231       1.38623643       4.33732781        2       1.00000000      -0.06655282      -0.12566635      -0.12344460
Pt       2.66455868       1.40132552       4.29142499        2       0.00000000       0.12400761       0.11788415       0.03687000
Ni       5.21747377       1.38455056       4.34202216        2       1.00000000       0.10791695      -0.15821423      -0.21547162
Ni       7.71121177       1.35886606       4.34429883        2       1.00000000      -0.02222613      -0.09273880      -0.21173623
Pt       1.36573405       3.67455960       4.27759066        2       0.00000000       0.01632588      -0.01351374       0.08873474
Ni       3.88096250       3.67877380       4.34031807        2       1.00000000       0.00967775      -0.05576096      -0.03310070
Pt       6.38629708       3.61664787       4.27528818        2       0.00000000      -0.02493893      -0.01946371       0.12719149
Pt       9.01785751       3.58305887       4.30151017        2       0.00000000      -0.00476289      -0.17816464       0.13267421
Ni       2.65107698       5.90747458       4.33051850        2       1.00000000       0.06043352       0.18408658      -0.07093861
Ni       5.12820951       5.87491780       4.34699991        2       1.00000000      -0.04422505      -0.00873861      -0.12530703
Ni       7.70760020       5.86980101       4.33155620        2       1.00000000      -0.05396995      -0.08592829      -0.09760950
Pt      10.35911589       5.96132750       4.26491923        2       0.00000000       0.13854735       0.10949927       0.06868006
Ni       3.83371996       8.07541545       4.32566248        2       1.00000000      -0.10511326       0.06119720      -0.17153436
Pt       6.40494130       8.01124809       4.34876014        2       0.00000000      -0.03868297      -0.03691531      -0.09497521
Ni       9.06251908       8.10581059       4.29478576        2       1.00000000       0.11572129       0.00490132      -0.23094841
Ni      11.64405649       8.13600341       4.31030529        2       1.00000000       0.08687588       0.05840697      -0.18892053
Ni      -0.00257627      -0.10472773       6.51824892        1       1.00000000      -0.11510142      -0.14836463      -0.17256125
Ni       2.56922017      -0.04836052       6.53399526        1       1.00000000      -0.08793043       0.03183624      -0.19680931
Ni       5.21221717      -0.01159876       6.50870184        1       1.00000000       0.19139881       0.04534318      -0.26858172
Ni       7.74467677      -0.04391914       6.51246665        1       1.00000000      -0.01735100       0.02438554      -0.25121383
Pt       1.31301199       2.09269391       6.56503343        1       0.00000000      -0.01805412      -0.04991739       0.04599782
Pt       3.94581152       2.12387218       6.47243434        1       0.00000000       0.02068261      -0.05075102      -0.21487457
Ni       6.45341238       2.11115109       6.51880649        1       1.00000000       0.02335821      -0.06804865      -0.18980720
Pt       8.98287379       2.04122268       6.47842991        1       0.00000000      -0.02088219      -0.05041814      -0.13882509
Ni       2.60912622       4.39679514       6.49565748        1       1.00000000      -0.06312189       0.01679543      -0.18072271
Pt       5.10062368       4.45829419       6.52291420        1       0.00000000      -0.08752310       0.18027261       0.14597144
Pt       7.69646663       4.38405899       6.55975867        1       0.00000000      -0.10752101       0.01273222       0.08992215
Pt      10.36131682       4.39333057       6.58895026        1       0.00000000       0.00408443       0.05561058       0.12325294
Ni       3.89811068       6.63929815       6.37852151        1       1.00000000       0.05006975       0.26849239      -0.37073317
Ni       6.41611718       6.62627289       6.42377484        1       1.00000000      -0.08521174       0.03461472      -0.16829054
Pt       8.98679127       6.70468751       6.42212086        1       0.00000000      -0.00264678       0.15025694      -0.35245117
Pt      11.71792197       6.66290881       6.44334831        1       0.00000000       0.04182624       0.05683362      -0.12012284
