64
Lattice="10.130088718871537 -0.034407142598723114 0.057456246333161404 5.0352468998736954 8.782016763645958 0.0581880602675499 0.04691282868396788 0.027775095063232502 8.675130714228823" Properties=species:S:1:pos:R:3:tags:I:1:initial_magmoms:R:1:forces:R:3 unique_id=60ed10bd20c44addb18d67449316cc33 stress="-0.005050132485628585 1.6749517455115515e-05 -2.9091298345181943e-05 1.6749517455115515e-05 -0.0050708612028183275 -1.9562551238385508e-05 -2.9091298345181943e-05 -1.9562551238385508e-05 -0.004540576543818467" energy=-390.4851815778514 pbc="T T T"
Ni       0.04555886       0.02510838       0.15017230        4       1.00000000       0.16068902       0.10238804       0.02053354
Ni       2.53026712      -0.04364196       0.22688926        4       1.00000000       0.03782041      -0.07070220       0.13484526
Ni       5.05962036      -0.06462076       0.10104110        4       1.00000000      -0.03352905      -0.09117776      -0.05797656
Ni       7.59285586      -0.02274266       0.08908183        4       1.00000000       0.04153544       0.02664855      -0.01008178
Ni       1.22372107       2.22286629       0.13156925        4       1.00000000      -0.00372988       0.09964768       0.02597151
Pt       3.78987799       2.18792453       0.22136372        4       0.00000000       0.02833080      -0.03548390      -0.11921769
Ni       6.37205138       2.21196111       0.12867520        4       1.00000000       0.06677354       0.13329061       0.07537255
Ni       8.86919701       2.23071890       0.12056513        4       1.00000000       0.08095788       0.12862458      -0.03118220
Ni       2.48787644       4.42293773       0.14315282        4       1.00000000      -0.02081532       0.04203754       0.06348878
Ni       5.05211835       4.39896232       0.23582160        4       1.00000000      -0.01628285      -0.02482986       0.20683630
Ni       7.63409686       4.36548637       0.13065459        4       1.00000000       0.16325038       0.04368782      -0.03648287
Ni      10.12091771       4.37043649       0.18325242        4       1.00000000       0.02149562       0.05385255       0.03014874
Ni       3.77960237       6.56021699       0.10066142        4       1.00000000       0.05691512      -0.05853952      -0.02063623
Ni       6.35054170       6.57984066       0.09877192        4       1.00000000       0.13573783      -0.01314671      -0.15138092
Ni       8.85057640       6.56160039       0.26604200        4       1.00000000      -0.00655288      -0.01828255       0.12254503
Ni      11.34308878       6.53641968       0.14121692        4       1.00000000      -0.08914631      -0.03643461      -0.10205828
Ni       1.32133160       0.77164242       2.15084757        3       1.00000000       0.01564082       0.09236405       0.02822108
Ni       3.77858572       0.66507138       2.20725063        3       1.00000000      -0.00936720      -0.10387374       0.01266777
Pt       6.24637187       0.73662503       2.18078111        3       0.00000000       0.00967930      -0.00882167      -0.03190669
Pt       8.91749101       0.80334544       2.17760931        3       0.00000000      -0.02647309       0.01243834       0.01721057
Ni       2.50823995       2.97193647       2.19470244        3       1.00000000      -0.03881865       0.04793535      -0.00440492
Ni       5.02754837       2.93777035       2.25149597        3       1.00000000      -0.05977530      -0.01203326       0.12235091
Ni       7.62644090       2.94353298       2.17667833        3       1.00000000       0.03339463       0.03120325       0.00548156
Ni      10.16630247       2.95853388       2.20232020        3       1.00000000       0.01403852       0.04096471       0.01131481
Ni       3.76008255       5.06734096       2.22294198        3       1.00000000      -0.02280616       0.00909049       0.07216704
Pt       6.39468770       5.10159902       2.18737484        3       0.00000000       0.11040517      -0.00973906       0.04660757
Ni       8.91218425       5.12673684       2.22252478        3       1.00000000       0.07123801      -0.00352455       0.02279780
Ni      11.34766537       5.06753622       2.21785866        3       1.00000000      -0.04651642       0.00537296      -0.04802968
Pt       5.12102109       7.31501395       2.19701633        3       0.00000000       0.00127280      -0.00913415      -0.03687394
Ni       7.65194578       7.32785596       2.26570296        3       1.00000000       0.02408480      -0.02438406       0.12543318
Ni      10.05313474       7.26464642       2.26641324        3       1.00000000       0.00586729      -0.02191428       0.01223088
Pt      12.57464384       7.20222228       2.23586775        3       0.00000000      -0.00104342      -0.00709409      -0.04957039
Ni       0.03726124       1.48156621       4.31973769        2       1.00000000       0.00065810       0.00320746      -0.04020599
Pt       2.55430746       1.42290504       4.22480950        2       0.00000000      -0.03847542      -0.04800782      -0.02042561
Ni       5.06010610       1.40622397       4.33442838        2       1.00000000      -0.03665691      -0.09825998      -0.07266477
Pt       7.58494966       1.41845868       4.43899667        2       0.00000000      -0.04303523       0.00424832      -0.00745647
Pt       1.31971524       3.73439609       4.32225019        2       0.00000000       0.00156436      -0.01950745      -0.03322285
Ni       3.80197061       3.72119018       4.29352547        2       1.00000000      -0.03879457       0.06295102      -0.05155850
Pt       6.27879753       3.66862840       4.36844872        2       0.00000000      -0.04684198      -0.02035049       0.08678245
Pt       8.89081438       3.72101912       4.36994785        2       0.00000000      -0.04695817       0.04264958      -0.04025216
Ni       2.52976067       5.86078482       4.38069926        2       1.00000000       0.01334460      -0.00687299      -0.05956547
Ni       5.06367269       5.86475998       4.36225184        2       1.00000000      -0.00409409      -0.01956073      -0.06212185
Ni       7.60497228       5.91808831       4.36307050        2       1.00000000       0.05557693       0.03617319      -0.02748102
Ni      10.16118816       5.90443507       4.34517522        2       1.00000000       0.02738708       0.00857967      -0.12052649
Pt       3.78252301       7.99227297       4.39457294        2       0.00000000       0.00614130       0.00266076      -0.06328360
Ni       6.35790798       8.00845900       4.35871344        2       1.00000000       0.01453297      -0.00451371      -0.02489814
Ni       8.89112600       8.01085279       4.34333339        2       1.00000000      -0.00850917      -0.06749856      -0.00182907
Ni      11.32585098       7.99089379       4.43961188        2       1.00000000      -0.01924214      -0.04263373      -0.09694168
Pt      -0.03376720       0.04197502       6.48749537        1       0.00000000      -0.09185847       0.02324738       0.11713886
Pt       2.57727780      -0.02949632       6.48918041        1       0.00000000      -0.00087693      -0.04390444       0.16521921
Ni       5.16254592      -0.01595042       6.42307769        1       1.00000000      -0.02312434      -0.04319727      -0.12557380
Ni       7.56016312      -0.04249602       6.49857075        1       1.00000000      -0.14461371      -0.10791294      -0.00270941
Ni       1.25324961       2.25838699       6.45341298        1       1.00000000      -0.02445046      -0.02026432      -0.02207108
Pt       3.84376936       2.23303541       6.37943044        1       0.00000000      -0.00059996       0.07909034       0.02998685
Ni       6.38797246       2.17446103       6.50934912        1       1.00000000      -0.04141479      -0.03043129       0.08690701
Ni       8.88007143       2.22258410       6.50802350        1       1.00000000      -0.03288767       0.05666604      -0.05197003
Ni       2.50785928       4.46186745       6.46491879        1       1.00000000      -0.04120640       0.03520087       0.01716810
Pt       5.07113389       4.50076278       6.54877509        1       0.00000000      -0.07374564       0.10357202       0.25497904
Ni       7.62392670       4.36693142       6.50873717        1       1.00000000      -0.04029931      -0.03887660      -0.03385533
Ni      10.18269842       4.36141804       6.53791139        1       1.00000000       0.05188476      -0.07623730       0.03396416
Ni       3.74523185       6.59597780       6.47738064        1       1.00000000      -0.13439537       0.01686474      -0.02675759
Ni       6.33788427       6.59325332       6.44559855        1       1.00000000       0.01071876       0.05302459      -0.22692591
Pt       8.93557342       6.50915311       6.50976080        1       0.00000000       0.04883885      -0.10256514       0.11273679
Ni      11.44479057       6.57561804       6.48383951        1       1.00000000      -0.00283782      -0.05797178      -0.14900839
