64
Lattice="10.317332511287182 -0.03789099156646311 0.034364179084450476 5.1258516943724555 8.897108292667385 0.009246354083834033 0.0 0.0 21.563675084235133" Properties=species:S:1:pos:R:3:tags:I:1:initial_magmoms:R:1:forces:R:3 unique_id=47e1f8f82c364289a5d41a471dde9283 stress="0.005403246036098095 -4.421264975723911e-05 0.0003675591496231777 -4.421264975723911e-05 0.005602581507686234 7.946079126026209e-05 0.0003675591496231777 7.946079126026209e-05 -0.0019096796712094206" energy=-375.46178891247257 pbc="T T T"
Ni      -0.01671105       0.03178424       0.14512322        1       1.00000000      -0.03699725       0.05645595       0.01233384
Ni       2.57529603      -0.00358835       0.15804263        2       1.00000000      -0.05220278       0.03774502      -0.08769623
Ni       5.15931522      -0.02924363       0.11837063        1       1.00000000       0.01443677       0.20558672      -0.38302626
Ni       7.76418007      -0.06153901       0.07956768        1       1.00000000       0.04628469      -0.00892019       0.42352198
Ni       1.24619189       2.22474424       0.05137475        1       1.00000000      -0.09780016      -0.02134708       0.46350483
Pt       3.79411067       2.21666156       0.05877476        1       0.00000000       0.04621323      -0.03190760      -0.01185461
Pt       6.47462719       2.14417702       0.15536603        2       0.00000000       0.06498594      -0.06363272      -0.47463850
Ni       9.06407324       2.17022832       0.14699527        1       1.00000000       0.04372595      -0.04105498       0.16652665
Ni       2.54439254       4.45204545       0.00000000        0       1.00000000      -0.03041605      -0.02536726       0.10560909
Ni       5.13888577       4.43674813       0.10974898        1       1.00000000       0.18951767      -0.09282038      -0.33085238
Pt       7.80015925       4.43575985       0.06973254        1       0.00000000       0.02171732      -0.06586242       0.01720242
Ni      10.32583922       4.40520605       0.03689751        0       1.00000000      -0.00787232      -0.12504554       0.17344094
Ni       3.81237864       6.70262151       0.12134280        1       1.00000000      -0.03336621       0.18549747      -0.18451786
Pt       6.40533798       6.71274567       0.15538189        2       0.00000000      -0.06511524       0.04743066      -0.60823055
Ni       9.02673659       6.66512493       0.04083645        0       1.00000000      -0.06821319      -0.00378348       0.14603532
Ni      11.60053970       6.65212290       0.03052435        0       1.00000000       0.13362768       0.04566173       0.17559912
Ni       1.27112534       0.76275723       2.10435021        3       1.00000000      -0.09675726       0.16044490      -0.01396914
Ni       3.86471960       0.74959651       2.14803921        3       1.00000000       0.03327965       0.06855318       0.14978100
Ni       6.48499826       0.72776466       2.20124182        4       1.00000000       0.14876104       0.09687986       0.20954974
Ni       9.03227453       0.73406797       2.14964630        3       1.00000000      -0.03464808       0.12228973       0.04178120
Ni       2.55562178       2.92946627       2.14437429        3       1.00000000      -0.12353249      -0.08721018       0.06289808
Ni       5.14846630       2.92438576       2.19194509        4       1.00000000      -0.09408177      -0.14322142       0.20896658
Ni       7.78519328       2.92007491       2.19759204        4       1.00000000       0.25120005      -0.10070189       0.11328145
Ni      10.28699412       2.88513958       2.16381699        4       1.00000000      -0.01108413      -0.12671136       0.05206413
Pt       3.86980806       5.16278655       2.10704155        3       0.00000000      -0.01684091      -0.10257806       0.04339609
Ni       6.47514424       5.16135524       2.17345526        4       1.00000000       0.11972999      -0.06046542       0.13596116
Ni       8.98800826       5.14210635       2.19941655        4       1.00000000      -0.09000379      -0.12203030       0.19675532
Pt      11.56840691       5.11411163       2.10862499        3       0.00000000      -0.09282623      -0.11216868      -0.03752755
Ni       5.11614198       7.46024682       2.13437991        3       1.00000000      -0.09995844       0.13155147       0.02902586
Ni       7.71799506       7.40411579       2.16199221        4       1.00000000       0.03984875      -0.02530402       0.07995767
Pt      10.27765337       7.41315310       2.07898824        3       0.00000000       0.00586415      -0.05534623      -0.07700925
Ni      12.89384808       7.41834559       2.13973957        3       1.00000000      -0.00927666       0.10678192      -0.03010680
Ni      -0.01869927       1.52382461       4.26161727        6       1.00000000      -0.04693595       0.05364175      -0.35286154
Pt       2.62294903       1.53215597       4.25726827        6       0.00000000      -0.01746895      -0.00377036      -0.12913224
Ni       5.16958993       1.48926637       4.28329097        6       1.00000000       0.05673195       0.06775601      -0.34043112
Ni       7.77854771       1.47800166       4.28021191        6       1.00000000       0.11991252       0.05820712      -0.36191610
Pt       1.27725168       3.69396338       4.35027474        7       0.00000000      -0.06372327      -0.06096804      -0.05913662
Ni       3.87011207       3.68901071       4.31262187        6       1.00000000       0.09226989       0.02533972      -0.20394810
Pt       6.50379639       3.65229448       4.21577271        5       0.00000000       0.01244361      -0.05499198      -0.10539638
Ni       9.01999920       3.65404340       4.30361080        6       1.00000000       0.00988569      -0.13223080      -0.36162094
Ni       2.55588918       5.90773316       4.32322843        6       1.00000000       0.00720241      -0.02805595      -0.15385333
Pt       5.13253162       5.88604231       4.25620625        6       0.00000000      -0.03214712       0.02030163      -0.10440522
Ni       7.75249553       5.86744054       4.29539005        6       1.00000000      -0.05051937      -0.05516289      -0.32729041
Pt      10.26868704       5.85359994       4.40047840        7       0.00000000      -0.02016678       0.02885923      -0.07565367
Pt       3.83603964       8.21865693       4.22455206        5       0.00000000      -0.01732248       0.13565677      -0.08096823
Pt       6.42210121       8.17440866       4.19998202        5       0.00000000      -0.03973568       0.12979725      -0.18649995
Pt       9.00271802       8.13143332       4.28719176        6       0.00000000      -0.09897988       0.01426495      -0.06211117
Pt      11.62082474       8.16549466       4.31363846        6       0.00000000       0.05813892       0.08098114      -0.05352657
Pt      -0.00141077       0.03716977       6.52706853        9       0.00000000       0.08519717       0.00656303       0.17916092
Pt       2.61803136       0.04569892       6.56367508       10       0.00000000       0.01297428       0.00005421       0.40027958
Pt       5.21304526      -0.08970748       6.55030005       10       0.00000000      -0.06818650       0.05170190       0.45609361
Ni       7.75274671      -0.03752920       6.50632892        9       1.00000000       0.02365698       0.07357747      -0.07380115
Ni       1.31986597       2.27399216       6.48496126        9       1.00000000      -0.01331822      -0.01174466      -0.12000178
Ni       3.85062078       2.23690606       6.40346392        8       1.00000000       0.05255515      -0.05832049       0.13566076
Pt       6.47583028       2.17209861       6.42001605        8       0.00000000      -0.01095681      -0.04758781       0.54519648
Pt       9.08190923       2.27427694       6.47906374        9       0.00000000       0.04661442       0.10137614      -0.06765347
Ni       2.53117838       4.41963303       6.47157249        9       1.00000000      -0.02815946       0.02999069      -0.14506527
Pt       5.09390761       4.38024713       6.51228539        9       0.00000000      -0.08405396      -0.01434311       0.29272697
Ni       7.78988549       4.44084444       6.40431351        8       1.00000000       0.05643414       0.03561452      -0.01470143
Ni      10.33561680       4.43984060       6.51977534        9       1.00000000      -0.00190125       0.02756025      -0.09115325
Pt       3.73904215       6.65643838       6.52573837        9       0.00000000       0.06444492      -0.12180497       0.12292349
Pt       6.51600129       6.60890372       6.44475662        8       0.00000000      -0.06923151      -0.01264776       0.62580528
Ni       9.05114557       6.59406699       6.50671184        9       1.00000000      -0.08073163      -0.03692949       0.01763883
Ni      11.57922340       6.59476016       6.51295883        9       1.00000000      -0.05312310      -0.15208489      -0.07212129
