64
Lattice="10.287011120397924 0.04238947061763024 -0.08102501012930609 5.180215918606804 8.935210354273304 -0.016585520018555542 0.0 0.0 21.589146503633486" Properties=species:S:1:pos:R:3:tags:I:1:initial_magmoms:R:1:forces:R:3 unique_id=2b235c40ae194cb3906aad51a6379f91 stress="0.005413162700419751 0.00017027290124846403 -0.0005204852586826863 0.00017027290124846403 0.005545896521152123 4.334791552609457e-05 -0.0005204852586826863 4.334791552609457e-05 -0.0014150602731140532" energy=-375.6159132720409 pbc="T T T"
Pt      -0.02241349      -0.00874863       0.08343412        1       0.00000000      -0.09698235      -0.01305777      -0.37409535
Pt       2.62874823      -0.10829972       0.03690741        0       0.00000000       0.00972144      -0.02372475      -0.14544167
Ni       5.14212814      -0.02670043       0.13520320        1       1.00000000      -0.09245193      -0.18970664      -0.24882375
Pt       7.64341041       0.05610717       0.00000000        0       0.00000000       0.08190484      -0.08754663      -0.30955751
Pt       1.26135381       2.26463128       0.13339625        1       0.00000000       0.19776944      -0.00205106      -0.89873583
Pt       3.93680945       2.22602839       0.14092847        1       0.00000000      -0.05809880       0.04046013      -0.39417445
Ni       6.46491756       2.26508704       0.03513410        0       1.00000000      -0.00728510       0.04815202       0.00271357
Ni       8.96860678       2.30668629       0.13529103        1       1.00000000       0.02751178      -0.03539509      -0.43364068
Pt       2.51455699       4.52516053       0.11546321        1       0.00000000       0.03016286      -0.11848403       0.08629382
Pt       5.26862259       4.48509919       0.08981563        1       0.00000000      -0.01987649      -0.00486174       0.16945830
Ni       7.76889404       4.50934221       0.03192954        0       1.00000000       0.06058736       0.16104659       0.12848321
Ni      10.25352662       4.55407584       0.02140085        0       1.00000000       0.00049205       0.03924244       0.19057365
Pt       3.87347587       6.69851168       0.11871422        1       0.00000000      -0.03625622       0.01068478      -0.00451439
Ni       6.49804059       6.67829325       0.15926085        2       1.00000000       0.16665999      -0.04995428       0.12262907
Ni       9.05649146       6.68799719       0.04085501        0       1.00000000       0.04569198       0.04446561       0.16005311
Ni      11.52829360       6.74168297       0.05052033        1       1.00000000      -0.15969110       0.06313228       0.33345934
Pt       1.27871527       0.66673249       2.31570126        5       0.00000000      -0.11391151      -0.07600647       0.05896984
Pt       3.84741163       0.73046522       2.34668075        5       0.00000000      -0.04860244      -0.10048149       0.11222373
Pt       6.40556480       0.74774423       2.19738930        4       0.00000000       0.00923017       0.07535222      -0.03427270
Ni       8.98036685       0.74950977       2.17879453        4       1.00000000       0.00755046      -0.10650360       0.18628277
Ni       2.60424570       3.04555536       2.30756301        5       1.00000000       0.10018635       0.15292556       0.35285077
Ni       5.11301455       3.05460752       2.29180518        5       1.00000000      -0.18089942       0.16877283       0.37806156
Pt       7.63848679       3.06737541       2.14696191        3       0.00000000      -0.21314228       0.21349665       0.12163056
Pt      10.31197638       3.09736866       2.20400153        4       0.00000000       0.17504301       0.13809735       0.04547673
Ni       3.86711449       5.21741452       2.30202133        5       1.00000000       0.00719264       0.00454076       0.37513007
Ni       6.39723721       5.28323587       2.26098280        5       1.00000000      -0.17801469       0.14922694       0.32528065
Pt       8.99798191       5.36131520       2.16369139        4       0.00000000      -0.05309227       0.08608916       0.10678477
Ni      11.61223106       5.29952552       2.21071061        4       1.00000000       0.17690524       0.13510511       0.24972881
Ni       5.16402219       7.39074466       2.25919291        5       1.00000000      -0.00528000      -0.21625930       0.17402175
Ni       7.70521622       7.43030692       2.25326620        5       1.00000000      -0.11250101       0.00464630       0.30235350
Ni      10.31515686       7.44642066       2.16435353        4       1.00000000       0.06373696      -0.02846206       0.01660768
Ni      12.87102283       7.42737105       2.17747738        4       1.00000000       0.00477183      -0.22476767       0.07596319
Pt      -0.00133945       1.46197904       4.41022953        7       0.00000000      -0.06262029      -0.06435648      -0.05364025
Ni       2.58484819       1.50979868       4.39142758        7       1.00000000       0.00605401       0.05439627      -0.17183095
Ni       5.09096122       1.55358585       4.36757840        7       1.00000000      -0.01090014       0.10394726      -0.15445086
Pt       7.60984886       1.55571924       4.39338589        7       0.00000000      -0.13659844       0.05850361      -0.01350975
Ni       1.33318107       3.79574414       4.40490192        7       1.00000000       0.17008932       0.10998995      -0.18967140
Ni       3.84193835       3.78768605       4.35176828        7       1.00000000      -0.00631360       0.10537983      -0.31679048
Ni       6.34753387       3.79898291       4.39567587        7       1.00000000      -0.12520950       0.11509864      -0.06906766
Pt       8.97530303       3.88640624       4.42282096        7       0.00000000      -0.05674863       0.07891055       0.09923613
Ni       2.57012864       5.89494144       4.40539647        7       1.00000000       0.07072765      -0.12859661      -0.26040184
Ni       5.14473163       5.91668902       4.36439413        7       1.00000000       0.02559256      -0.15709120      -0.33755125
Ni       7.68417257       6.03049932       4.36729826        7       1.00000000      -0.09582500       0.11951093      -0.18035101
Ni      10.28768375       5.99788797       4.38491118        7       1.00000000      -0.02341519      -0.04054779      -0.01555382
Pt       3.89730477       8.08004593       4.38931977        7       0.00000000       0.07419395      -0.19208080      -0.25052221
Ni       6.48212690       8.15441784       4.39149746        7       1.00000000       0.07794498      -0.14898031      -0.22463448
Ni       8.95559682       8.17952212       4.38745034        7       1.00000000      -0.07973675      -0.21016697       0.02864519
Pt      11.52092104       8.11342203       4.33459680        6       0.00000000      -0.00877710      -0.19517628      -0.09770839
Ni      -0.04581215      -0.01143744       6.49606166        9       1.00000000       0.02574257      -0.04575113       0.24692529
Ni       2.52198119       0.00378385       6.43040640        8       1.00000000       0.00067566       0.01962202       0.03546699
Pt       5.09581549      -0.01918810       6.54625066        9       0.00000000      -0.04132424       0.01579444       0.08884863
Ni       7.67886039       0.00715621       6.43370157        8       1.00000000       0.06723319      -0.18962097       0.30254628
Pt       1.28571429       2.29714227       6.48463519        9       0.00000000       0.16242097       0.25366722       0.97277641
Pt       3.87662914       2.32635478       6.41961035        8       0.00000000       0.02184875       0.15064140       0.48893550
Ni       6.38159516       2.30344660       6.52166580        9       1.00000000      -0.02331662       0.09939784      -0.10380889
Pt       8.91863076       2.29175253       6.58914650       10       0.00000000       0.14358535       0.01273652       0.62741520
Ni       2.54605908       4.54291599       6.45068514        9       1.00000000       0.06722738       0.09929479      -0.13170578
Ni       5.12523232       4.50979271       6.42871683        8       1.00000000      -0.01219165       0.12972675      -0.15712604
Ni       7.67063170       4.52364034       6.52011240        9       1.00000000      -0.12635643       0.01201083      -0.18537648
Ni      10.27396239       4.58655011       6.49954977        9       1.00000000       0.15962221       0.05011300      -0.16894685
Ni       3.81575337       6.68214628       6.47940600        9       1.00000000      -0.02095868      -0.24580943      -0.03634028
Pt       6.42071114       6.71188400       6.49685780        9       0.00000000      -0.13884499      -0.05548056      -0.20751935
Ni       8.99670353       6.70381211       6.49245327        9       1.00000000       0.03572857      -0.06171980      -0.44347038
Ni      11.56391674       6.69691572       6.48767870        9       1.00000000       0.07141734      -0.11153767      -0.35259136
