64
Lattice="10.367639284414011 -0.017333177981969466 0.03293660024633373 5.168808669746301 8.932554267270215 0.006460090100630413 0.0 0.0 21.585487288039367" Properties=species:S:1:pos:R:3:tags:I:1:initial_magmoms:R:1:forces:R:3 unique_id=0d17418139d441cfb80a403bf874caa8 energy=-377.3577187227484 stress="0.005872235082282662 3.764526529778676e-05 0.0003895968260223195 3.764526529778676e-05 0.006130514500586512 5.977202732467068e-05 0.0003895968260223195 5.977202732467068e-05 -0.0018557124682433961" pbc="T T T"
Ni       0.00769234       0.02187449       0.10959537        1       1.00000000       0.11538926      -0.00742610      -0.10336437
Ni       2.59193534       0.00173250       0.14602781        1       1.00000000      -0.01265408       0.04234923      -0.00870658
Ni       5.18338408      -0.01983820       0.11249971        1       1.00000000      -0.00995562       0.18810495      -0.24915284
Ni       7.78168118      -0.05068958       0.14038668        1       1.00000000      -0.09702757      -0.11994736      -0.12844276
Ni       1.26494945       2.23941912       0.03914507        0       1.00000000      -0.07812669       0.01560876       0.52057532
Pt       3.82436434       2.23247520       0.13699714        1       0.00000000       0.00868917      -0.01225091      -0.45096857
Pt       6.50434916       2.17670880       0.14905468        1       0.00000000       0.03917146      -0.06983221      -0.44215717
Ni       9.11092316       2.22268351       0.10391076        1       1.00000000       0.08752577       0.12272817      -0.01809540
Ni       2.56343847       4.47782018       0.00000000        0       1.00000000      -0.04182966      -0.04802080       0.21952116
Ni       5.17312687       4.46494562       0.10488502        1       1.00000000       0.16636038      -0.07379578      -0.23635605
Pt       7.84898984       4.46924529       0.06438621        1       0.00000000       0.04029071      -0.01247211       0.02774299
Ni      10.38922498       4.44628005       0.03103478        0       1.00000000       0.03990181      -0.09971758       0.30393653
Ni       3.84858522       6.71924318       0.11134907        1       1.00000000      -0.04266773       0.16907340      -0.10196272
Pt       6.45800324       6.74413556       0.14509469        1       0.00000000      -0.03542229       0.03352051      -0.56476492
Ni       9.08589204       6.70370938       0.03298852        0       1.00000000      -0.06989765      -0.01456062       0.19432457
Ni      11.66604688       6.68602121       0.02929297        0       1.00000000       0.12785545       0.01557123       0.27357039
Ni       1.31050626       0.76490230       2.10795543        2       1.00000000       0.00922051       0.16669677      -0.08367039
Ni       3.88394474       0.74666588       2.16555071        3       1.00000000       0.02510501       0.01295165       0.20457117
Ni       6.47838832       0.74633212       2.20189633        3       1.00000000      -0.03590620       0.12485926       0.30957575
Pt       9.08401783       0.77656307       2.14290452        2       0.00000000      -0.00158685       0.13124619       0.13550153
Ni       2.56198443       2.95909290       2.16583840        3       1.00000000      -0.15689208       0.01202778       0.03076794
Ni       5.18492643       2.94790513       2.20430474        3       1.00000000      -0.07344600      -0.11890166       0.28091248
Ni       7.80870976       2.97845439       2.20063304        3       1.00000000       0.20499513       0.05065801       0.16251926
Ni      10.36772349       2.95216399       2.18059981        3       1.00000000       0.02976616      -0.01089412       0.06833882
Pt       3.89518176       5.17932097       2.11325109        2       0.00000000      -0.02894891      -0.13832407       0.00554476
Ni       6.51589546       5.19257135       2.17154055        3       1.00000000       0.13358489      -0.05276426       0.14336458
Ni       9.04586840       5.17729879       2.19993610        3       1.00000000      -0.04800173      -0.11393768       0.22415241
Pt      11.63861453       5.13061390       2.14529679        2       0.00000000      -0.09226326      -0.08935593       0.04412337
Ni       5.17205501       7.46148166       2.13798554        2       1.00000000      -0.09984977       0.06263128       0.07684726
Ni       7.77161807       7.43619790       2.16090991        3       1.00000000       0.07265338      -0.04015456       0.08106275
Pt      10.33855238       7.44383066       2.07825960        2       0.00000000       0.00021118      -0.13208589      -0.08504650
Ni      12.95796331       7.42790616       2.14358720        2       1.00000000      -0.02647070      -0.02134069       0.03759569
Ni       0.00290874       1.56178601       4.29638626        5       1.00000000      -0.04988966       0.16692235      -0.24377575
Pt       2.56056479       1.58122010       4.21868741        4       0.00000000      -0.04657044       0.03819716      -0.04181844
Ni       5.19682878       1.49895633       4.28785793        5       1.00000000      -0.03386927       0.05837773      -0.38021283
Ni       7.81237019       1.49984144       4.30465718        5       1.00000000       0.09536304      -0.01028176      -0.30199194
Ni       1.29387254       3.71264579       4.34854818        5       1.00000000      -0.05825659      -0.02332593      -0.07486376
Ni       3.86686450       3.72906584       4.30388731        5       1.00000000      -0.01979361       0.03925436      -0.25268078
Pt       6.54635556       3.68124182       4.22305735        4       0.00000000       0.01628672      -0.06545804      -0.05400318
Ni       9.09446036       3.68522710       4.31712118        5       1.00000000       0.06330835      -0.15218420      -0.36812572
Ni       2.56875240       5.89498603       4.33948091        5       1.00000000      -0.02275178      -0.15763550      -0.13884677
Pt       5.17840209       5.90524146       4.25573212        5       0.00000000       0.01192216      -0.05082066      -0.12886950
Ni       7.81164108       5.89780702       4.30988255        5       1.00000000       0.02808480      -0.07549612      -0.34546243
Pt      10.36031949       5.83497935       4.41442375        6       0.00000000       0.00720061      -0.00512767      -0.06697462
Pt       3.87712917       8.20878453       4.25671650        5       0.00000000      -0.03702481       0.06863356      -0.03503197
Pt       6.47615744       8.20421044       4.20629038        4       0.00000000      -0.06998920       0.12606596      -0.23039371
Pt       9.05651118       8.16685008       4.29220782        5       0.00000000      -0.08696625       0.05015576      -0.05717919
Pt      11.67620175       8.18651764       4.28488613        5       0.00000000       0.02121420      -0.00533081      -0.06877830
Pt       0.03565838       0.03791599       6.54204075        8       0.00000000       0.00647727       0.02064284       0.21454120
Pt       2.60932890      -0.00417071       6.57798620        9       0.00000000       0.02754375       0.00668045       0.31071596
Pt       5.19086667      -0.10249129       6.56572963        9       0.00000000      -0.04499060       0.14270554       0.39382880
Pt       7.78378307      -0.03352549       6.58548729        9       0.00000000       0.02677161       0.17172216       0.36913251
Ni       1.30024714       2.29518747       6.48117734        8       1.00000000      -0.01768176       0.09446494      -0.30588874
Pt       3.83133074       2.27420676       6.43853528        7       0.00000000       0.15101690      -0.06129127       0.46128804
Pt       6.52020826       2.22904785       6.44374473        7       0.00000000      -0.06381257      -0.10058605       0.56070030
Pt       9.15636614       2.32843653       6.49373700        8       0.00000000      -0.04791685       0.01804055      -0.05303892
Ni       2.52153352       4.45611488       6.47208119        8       1.00000000      -0.14699831      -0.01064705      -0.33293849
Pt       5.17967635       4.44848065       6.53729654        8       0.00000000      -0.03415459      -0.08414878       0.29168693
Ni       7.84320478       4.47407962       6.42875612        7       1.00000000       0.11703571       0.08988536      -0.07883097
Ni      10.41043311       4.46379645       6.52303732        8       1.00000000       0.07514280      -0.00893951      -0.25351023
Pt       3.79980656       6.63284998       6.54179026        8       0.00000000       0.00030016      -0.04207381       0.11962939
Pt       6.56526674       6.63755696       6.46198721        8       0.00000000       0.02613545      -0.01628998       0.47684998
Ni       9.10860045       6.61396887       6.52145157        8       1.00000000      -0.03973012      -0.13381694      -0.12086400
Ni      11.64122083       6.61118028       6.52934885        8       1.00000000      -0.00318062      -0.06053953      -0.13615330
