64
Lattice="10.40096320331222 0.01683057116159129 0.01973956066501345 5.215057303842306 8.987188306838167 0.03271442831654666 0.0 0.0 21.614919956935296" Properties=species:S:1:pos:R:3:tags:I:1:initial_magmoms:R:1:forces:R:3 unique_id=70872e79c53944af9957cf0a110c42bd stress="0.005976405336980464 0.00022861407427627285 0.0005049838419174958 0.00022861407427627285 0.006109497560309377 0.00013042932713682202 0.0005049838419174958 0.00013042932713682202 -0.0016298176448886759" energy=-380.68195437372464 pbc="T T T"
Ni      -0.03094445       0.00474814       0.12451121        1       1.00000000      -0.14080231       0.04489917       0.13644722
Ni       2.61981263      -0.00805219       0.04174649        0       1.00000000       0.07298242       0.02800282       0.42342794
Ni       5.20437577      -0.00744443       0.09159844        1       1.00000000       0.06893796       0.08886643      -0.30981422
Ni       7.82159208      -0.01810877       0.14372523        1       1.00000000       0.05461004      -0.09805477       0.11655320
Pt       1.27210827       2.22036591       0.09000642        1       0.00000000       0.08469095      -0.12061462      -0.52254857
Pt       3.89083568       2.19502296       0.06177902        1       0.00000000       0.00518484       0.02673316       0.01021817
Pt       6.56099386       2.16551568       0.06608928        1       0.00000000       0.06705589      -0.11175598       0.01024556
Ni       9.10917365       2.22946834       0.10617355        1       1.00000000      -0.01102340      -0.15775059       0.06510181
Ni       2.59302574       4.52305007       0.08503004        1       1.00000000       0.02264815      -0.06179313      -0.21289193
Pt       5.19072592       4.51514450       0.09989478        1       0.00000000       0.21531581      -0.03487785      -0.72360748
Pt       7.88452136       4.50084015       0.00000000        0       0.00000000      -0.09482185      -0.04634000      -0.10677862
Ni      10.42566571       4.53940002       0.02234366        0       1.00000000       0.08052931       0.01985925       0.20625624
Ni       3.87325842       6.78687306       0.13631903        1       1.00000000      -0.03967889       0.13669756       0.07877349
Pt       6.52553591       6.84044662       0.16481307        2       0.00000000      -0.04757325      -0.05159526      -0.40192448
Ni       9.14003804       6.77870186       0.03229758        0       1.00000000       0.00178430       0.04231619       0.27079268
Ni      11.72337993       6.76950834       0.03955555        0       1.00000000       0.15277870       0.14328293       0.28892424
Ni       1.32190876       0.72653608       2.16993243        4       1.00000000       0.05971326      -0.00967721       0.03971008
Ni       3.86864003       0.77728501       2.17726334        4       1.00000000      -0.18217451       0.08419723       0.14747850
Ni       6.54187120       0.77862839       2.18485611        4       1.00000000       0.12030426       0.07166438       0.23612132
Ni       9.08296586       0.75066603       2.15622987        4       1.00000000      -0.10279704      -0.03965959       0.00770106
Ni       2.64197882       2.96119004       2.20608388        4       1.00000000       0.12406530      -0.14576295       0.28621212
Ni       5.21409575       2.98071721       2.20972581        4       1.00000000      -0.00124528      -0.01469529       0.16118432
Ni       7.78946964       2.96360962       2.20801357        4       1.00000000      -0.10282206      -0.14629064       0.11949287
Pt      10.34074999       2.92808080       2.24018552        4       0.00000000      -0.16101878      -0.05467153       0.03462634
Pt       3.91107887       5.26115431       2.22210149        4       0.00000000      -0.01216901      -0.04021401       0.06236822
Ni       6.51960860       5.25443161       2.21089249        4       1.00000000      -0.00955193      -0.01236864       0.15514583
Pt       9.04469750       5.27400727       2.24088405        4       0.00000000      -0.10021150       0.00987954       0.08688251
Pt      11.72594321       5.27518436       2.14176354        3       0.00000000      -0.17373260      -0.07723610       0.01718484
Ni       5.20470014       7.54164815       2.17457216        4       1.00000000      -0.08643753       0.12860407       0.08878146
Ni       7.80401132       7.54415167       2.20492243        4       1.00000000       0.02544804       0.19236640       0.08530811
Pt      10.41131090       7.57840993       2.11485141        3       0.00000000      -0.02937361       0.08514530      -0.00130198
Ni      13.03919791       7.54922715       2.17119981        4       1.00000000       0.00464189       0.09262251       0.03234346
Ni      -0.01246159       1.52352386       4.34429033        5       1.00000000      -0.12671564       0.00199422      -0.14879743
Ni       2.61964965       1.52574329       4.33275103        5       1.00000000       0.03985089       0.04019299      -0.35350769
Pt       5.18004545       1.56899176       4.31795787        5       0.00000000       0.06430756       0.07144973      -0.22997283
Ni       7.83303127       1.54722583       4.33809446        5       1.00000000       0.08205822      -0.03947051      -0.35747640
Pt       1.34372272       3.71308970       4.31357495        5       0.00000000       0.05352044      -0.07808701      -0.05694353
Ni       3.89307300       3.74077770       4.35491880        6       1.00000000      -0.01898636      -0.00403976      -0.29442415
Pt       6.61415348       3.74396814       4.30309389        5       0.00000000       0.07813787      -0.01025171      -0.22906139
Ni       9.10896496       3.74842304       4.38919317        6       1.00000000       0.12132223      -0.11560854      -0.18200542
Ni       2.61659358       5.98968192       4.37550928        6       1.00000000       0.03355778       0.01339928      -0.15284260
Pt       5.22832491       5.99417957       4.31866473        5       0.00000000       0.04380420       0.04915393      -0.03980825
Ni       7.82906458       5.98497853       4.38266376        6       1.00000000      -0.02498957       0.02354797      -0.19622809
Pt      10.38784796       5.97012466       4.48606144        7       0.00000000       0.04856247      -0.02314447       0.06087060
Pt       3.92100953       8.30865637       4.26484152        5       0.00000000      -0.05753078       0.10499771      -0.14366042
Pt       6.53045075       8.32545294       4.28454086        5       0.00000000      -0.05716734       0.23947888      -0.11148272
Pt       9.07717312       8.26308717       4.37952235        6       0.00000000      -0.07234169      -0.00136016      -0.12690246
Pt      11.74453954       8.26000538       4.35015806        6       0.00000000       0.03958531       0.01532816      -0.14771782
Pt       0.03774936       0.01777522       6.57986481        9       0.00000000      -0.04807348       0.08286820       0.16335477
Ni       2.63294397       0.01419557       6.55138287        9       1.00000000      -0.04405453      -0.03845937      -0.12622313
Pt       5.13884305       0.00720166       6.61491996        9       0.00000000       0.01170500       0.06043025       0.19110997
Pt       7.76136248       0.05692641       6.61266677        9       0.00000000      -0.13865913       0.21843054       0.11242552
Pt       1.36476880       2.22588960       6.47853540        8       0.00000000      -0.03040110      -0.10112281       0.56858473
Ni       3.91189979       2.24800636       6.47558803        8       1.00000000      -0.08501786      -0.02260167       0.02547383
Ni       6.51094321       2.26674425       6.49070887        8       1.00000000       0.01232353      -0.15341775       0.00200894
Pt       9.07613674       2.36825066       6.53455352        8       0.00000000       0.05835195      -0.07216239      -0.07898247
Pt       2.56775780       4.51760622       6.56581445        9       0.00000000       0.10150666      -0.07338931       0.13543672
Pt       5.25018434       4.41490322       6.49965721        8       0.00000000      -0.07032207       0.02184800       0.61404122
Ni       7.85843136       4.52374266       6.46723522        8       1.00000000       0.07024700       0.14028473       0.01238586
Ni      10.38910296       4.55140079       6.57971615        9       1.00000000      -0.05796122      -0.09156624      -0.13620742
Pt       3.88240766       6.74651323       6.60227328        9       0.00000000       0.12514540      -0.09822555       0.17692920
Pt       6.64028902       6.73859751       6.52244176        8       0.00000000       0.02619060      -0.15570637       0.40171178
Ni       9.14411623       6.72924412       6.58725477        9       1.00000000      -0.01169867      -0.07350879      -0.11717785
Ni      11.68308953       6.74680643       6.59284948        9       1.00000000      -0.03151523       0.09693906      -0.12332540
