64
Lattice="10.277656364661638 -0.016052525367616283 0.03502091950460654 5.124926287567576 8.81004142969827 -0.021075062536083676 0.028594461036456357 -0.03637877928765741 8.760845822786493" Properties=species:S:1:pos:R:3:tags:I:1:initial_magmoms:R:1:forces:R:3 unique_id=9de63a5e27e64a478e7c0d9d722e180f stress="0.0001901114222358502 3.677228306275048e-06 -2.3494790442240445e-05 3.677228306275048e-06 0.0002009550425574394 1.3617289130190071e-05 -2.3494790442240445e-05 1.3617289130190071e-05 0.00018755862795627465" energy=-395.44028640068325 pbc="T T T"
Ni       0.01464486       0.00063956       0.18108252        4       1.00000000       0.06346000       0.06153110       0.34650053
Ni       2.57117729       0.00303135       0.21261886        4       1.00000000       0.01812944       0.02713254       0.44566141
Ni       5.13589703      -0.03338377       0.17833269        4       1.00000000      -0.03231431       0.06978588       0.24402428
Ni       7.70603235      -0.07883168       0.22010866        4       1.00000000      -0.03333158      -0.09369600       0.40615641
Ni       1.28943486       2.20834809       0.10498968        4       1.00000000       0.03145453       0.01448862       0.24956804
Pt       3.76355784       2.15958885       0.18201534        4       0.00000000      -0.04788203       0.00681455       0.16166128
Pt       6.41735450       2.11661685       0.11569307        4       0.00000000       0.03728136      -0.06265568      -0.03231795
Pt       9.08676227       2.18861369       0.13887806        4       0.00000000       0.11218312      -0.00928085       0.16222529
Ni       2.52507191       4.43012346       0.05380945        4       1.00000000      -0.04244905       0.02260825       0.01197488
Pt       5.05118408       4.44969687       0.09448761        4       0.00000000      -0.08203552       0.05131766      -0.03817485
Pt       7.74668344       4.44052251       0.03333345        4       0.00000000       0.09158800       0.08853762      -0.14176409
Ni      10.33547724       4.42270339       0.07687093        4       1.00000000       0.13306936       0.09505560       0.05767041
Ni       3.79082792       6.64056073       0.08879469        4       1.00000000      -0.07354020       0.06306779       0.18365189
Pt       6.41358565       6.70764416       0.08808035        4       0.00000000      -0.00851745       0.03900429      -0.16603777
Ni       9.02215127       6.63432878       0.06185626        4       1.00000000       0.03695139       0.03809053      -0.04259160
Ni      11.57833045       6.59357693       0.07249282        4       1.00000000       0.12593462      -0.04622772      -0.02630174
Ni       1.32526235       0.73584969       2.22070223        3       1.00000000       0.05078764       0.04503087       0.16200782
Ni       3.82758021       0.74378719       2.25213852        3       1.00000000      -0.05702049       0.12616765       0.14769443
Ni       6.42071104       0.74560535       2.25301320        3       1.00000000      -0.04278473       0.10465583       0.17850238
Pt       9.01558759       0.70967180       2.26386488        3       0.00000000       0.05621375       0.22119254      -0.03416704
Ni       2.56447316       2.89627149       2.26755388        3       1.00000000       0.02013032      -0.09713968       0.19382270
Ni       5.11879505       2.91496552       2.26434597        3       1.00000000      -0.15711820      -0.02177519       0.00307733
Ni       7.68790662       2.90179793       2.25614704        3       1.00000000       0.04632336      -0.03544040      -0.10886715
Ni      10.33317081       2.89169634       2.27807402        3       1.00000000       0.13418073      -0.06365899       0.15771188
Ni       3.85873899       5.12935098       2.21939090        3       1.00000000      -0.00030559      -0.05074065       0.07266137
Ni       6.39973388       5.13205260       2.21956156        3       1.00000000       0.03846094       0.00179014      -0.11868792
Pt       8.96523252       5.09360054       2.29262449        3       0.00000000      -0.10687090      -0.09224759      -0.10920433
Pt      11.63465087       5.06895690       2.23537864        3       0.00000000       0.05169837      -0.06713263       0.11401232
Ni       5.14629428       7.31726980       2.18734364        3       1.00000000       0.04155652      -0.03921602       0.02281366
Ni       7.65987959       7.36100276       2.21005006        3       1.00000000      -0.12546139      -0.01826535       0.06336085
Pt      10.27576524       7.35930259       2.12699645        3       0.00000000       0.03153155      -0.04251159      -0.04894772
Ni      12.87595115       7.29303794       2.17683026        3       1.00000000       0.09296959      -0.12733607       0.05784306
Ni       0.07724940       1.49881682       4.31837851        2       1.00000000       0.16678223       0.06548624      -0.04796016
Ni       2.53846292       1.48896700       4.30731716        2       1.00000000      -0.05360740       0.05384461      -0.06747733
Ni       5.13580324       1.46215457       4.31571144        2       1.00000000      -0.14183388      -0.03140836      -0.13208733
Ni       7.71905663       1.46094488       4.35063137        2       1.00000000       0.03990272      -0.06252169      -0.04064542
Ni       1.29682255       3.64236495       4.37080938        2       1.00000000       0.01308791      -0.01535790      -0.00489445
Ni       3.81180472       3.65541422       4.29918593        2       1.00000000      -0.12790873      -0.05915845      -0.19980184
Pt       6.45981580       3.60185824       4.33517950        2       0.00000000       0.01251919      -0.09260621      -0.12661496
Ni       9.04271485       3.66601138       4.34895401        2       1.00000000       0.13726696      -0.07322312      -0.09851380
Ni       2.55750299       5.79328522       4.37449548        2       1.00000000      -0.02098540      -0.11366529       0.02232473
Pt       5.14853181       5.82616531       4.33143354        2       0.00000000       0.00930084      -0.04428932      -0.09996227
Ni       7.72342679       5.83740442       4.38612942        2       1.00000000      -0.03407127       0.00215404      -0.06837458
Ni      10.28509446       5.78471198       4.42648460        2       1.00000000       0.05294370      -0.05762152       0.04793396
Pt       3.88816647       8.05176804       4.29799945        2       0.00000000      -0.02818039      -0.01702947       0.20242207
Ni       6.43052999       8.07132696       4.29187643        2       1.00000000      -0.05010961       0.08226209      -0.13066146
Pt       8.92342174       8.04162677       4.29411105        2       0.00000000      -0.06207568       0.04685852       0.12434456
Pt      11.56572279       8.02013645       4.30646046        2       0.00000000       0.00544845      -0.04546187       0.11549915
Pt       0.03618097      -0.05727398       6.52967043        1       0.00000000       0.02845717      -0.03525720       0.16586389
Pt       2.56639896      -0.06495378       6.54536074        1       0.00000000      -0.07995742      -0.03377151       0.20708013
Pt       5.14980845      -0.07433459       6.56897387        1       0.00000000       0.01868140      -0.07448431       0.04116869
Pt       7.72053180      -0.07810486       6.59548370        1       0.00000000      -0.10921883      -0.06360585       0.23073492
Ni       1.29869862       2.23835088       6.45533571        1       1.00000000      -0.01102922       0.16305739      -0.20093437
Pt       3.85051554       2.27010528       6.39285507        1       0.00000000      -0.03922728       0.16978062      -0.24152277
Ni       6.43842904       2.20006841       6.42791800        1       1.00000000      -0.02474070       0.03257647      -0.23860178
Pt       9.02401243       2.26477605       6.39272127        1       0.00000000      -0.02013028       0.15031309      -0.34983337
Ni       2.54475247       4.41411315       6.45178084        1       1.00000000      -0.11402960       0.07179737      -0.23168033
Ni       5.15599729       4.40141582       6.42537674        1       1.00000000       0.01603239       0.06388074      -0.20108256
Ni       7.72022495       4.41581387       6.39312062        1       1.00000000       0.01054047       0.10976395      -0.36934902
Ni      10.31961369       4.40752074       6.47488168        1       1.00000000       0.07275889       0.07650778      -0.19173463
Ni       3.84426594       6.50772469       6.48734659        1       1.00000000      -0.07006437      -0.17941960      -0.06920184
Ni       6.44635643       6.52000153       6.40652863        1       1.00000000       0.04259416      -0.05349168      -0.24310462
Ni       9.00503544       6.49079266       6.47929855        1       1.00000000      -0.00028181      -0.15428931      -0.21244661
Ni      11.56510038       6.48583641       6.50142972        1       1.00000000      -0.04313777      -0.09056729      -0.16642669
