64
Lattice="10.716969481345116 0.005495817048867447 -0.01716178882063435 5.363244257851434 9.268532574744906 0.0049771866068068875 0.0 0.0 21.935229472902943" Properties=species:S:1:pos:R:3:tags:I:1:initial_magmoms:R:1:forces:R:3 unique_id=a5232b429e434d8eba550cc1a688d752 energy=-400.0338689319486 stress="0.005051075166102157 -3.8957943314368946e-05 -2.7718499755854214e-05 -3.8957943314368946e-05 0.005049710301032238 -3.812447582349062e-05 -2.7718499755854214e-05 -3.812447582349062e-05 -0.0009094652593758315" pbc="T T T"
Pt       0.00288195      -0.01721326       0.10829746        1       0.00000000       0.05389104      -0.11314878      -0.19336498
Pt       2.65765122       0.00732380       0.09296116        1       0.00000000       0.11966382       0.07115099      -0.26435805
Pt       5.37042682       0.00662981       0.02103071        0       0.00000000      -0.21718602       0.04529421       0.05585754
Ni       8.04099135      -0.00093019       0.08367833        1       1.00000000       0.05154556      -0.01982472       0.28239536
Ni       1.33861990       2.31684648       0.08397235        1       1.00000000      -0.02940158      -0.03392058       0.28057042
Pt       3.98970342       2.30176553       0.09345161        1       0.00000000       0.03986186      -0.13987057      -0.42282209
Pt       6.71766629       2.28927337       0.07675244        1       0.00000000       0.06317577       0.07660727      -0.44841127
Pt       9.40062212       2.28717594       0.07176896        1       0.00000000       0.00089523      -0.06873278      -0.21080883
Pt       2.66581666       4.61440338       0.08665316        1       0.00000000       0.07033052       0.08264438      -0.28135476
Pt       5.36546535       4.66692354       0.09034187        1       0.00000000      -0.09028205      -0.04301224      -0.42682940
Pt       8.03137549       4.65771007       0.07322047        1       0.00000000       0.05180196      -0.10532693      -0.35327823
Pt      10.73292657       4.60952854       0.00000000        0       0.00000000      -0.02890504       0.03406333       0.06756357
Pt       4.03638887       7.00443620       0.13455316        1       0.00000000      -0.00572990       0.15455528      -0.18174199
Ni       6.69436531       6.95884428       0.09585886        1       1.00000000      -0.03822293       0.08168520       0.25306677
Pt       9.35969503       6.96196437       0.07501591        1       0.00000000       0.02361090       0.00650679      -0.24434344
Pt      12.08755791       6.99203512       0.09213664        1       0.00000000       0.12357966       0.05975102      -0.18186722
Pt       1.33725810       0.76395059       2.31735210        2       0.00000000      -0.10605741       0.11227109       0.26508798
Ni       4.01808625       0.76707896       2.33188568        2       1.00000000       0.03963841      -0.03169801       0.41704340
Pt       6.69989167       0.73322889       2.31160767        2       0.00000000       0.07847140      -0.12568832       0.23117348
Pt       9.36360031       0.67162753       2.32793940        2       0.00000000      -0.05288375      -0.27429141       0.36308690
Pt       2.66895517       3.06701805       2.33857908        2       0.00000000      -0.07272492      -0.02870742       0.31717400
Pt       5.33822047       3.06676091       2.34365369        2       0.00000000      -0.01500132      -0.03349602       0.47044553
Pt       8.04982476       3.08792273       2.35407162        3       0.00000000       0.04293018      -0.08020936       0.46676780
Pt      10.72712708       3.09370327       2.35635080        3       0.00000000       0.05302482      -0.05718110       0.36058444
Pt       4.01038139       5.48054717       2.34063246        2       0.00000000      -0.07585307       0.07093188       0.33549661
Pt       6.67615004       5.47298658       2.31067746        2       0.00000000      -0.02534086       0.20449918       0.27459569
Pt       9.38536213       5.40789027       2.36094862        3       0.00000000       0.07874819       0.01335331       0.38564712
Pt      12.06915250       5.43742135       2.35777506        3       0.00000000      -0.05246244       0.08951396       0.40726544
Ni       5.34508095       7.73326311       2.32038815        2       1.00000000       0.04645439      -0.00498639       0.41316861
Pt       8.02245469       7.76137432       2.33816794        2       0.00000000      -0.07411703       0.04768786       0.32531707
Pt      10.70887605       7.76924586       2.36987321        3       0.00000000      -0.11532730       0.01035262       0.47581038
Ni      13.41647913       7.74285419       2.31129880        2       1.00000000      -0.01636693       0.00799828       0.40813808
Pt      -0.00501938       1.59269538       4.60298926        4       0.00000000       0.09362647       0.07175067      -0.30466219
Pt       2.66937902       1.53772713       4.57287181        4       0.00000000      -0.08979890      -0.03496614      -0.40832796
Pt       5.32260225       1.48978779       4.59707662        4       0.00000000      -0.02735574      -0.19386013      -0.35866346
Pt       8.06591528       1.53357816       4.58812257        4       0.00000000       0.04663824      -0.13140987      -0.37574594
Ni       1.30551290       3.86650950       4.63794227        4       1.00000000      -0.10362764      -0.00486732      -0.34366493
Pt       3.97987078       3.87059060       4.60131029        4       0.00000000      -0.04740752       0.03591279      -0.42776070
Pt       6.72265774       3.86426846       4.59873906        4       0.00000000       0.01765358      -0.02776430      -0.46647987
Ni       9.40234403       3.87607073       4.63550426        4       1.00000000       0.13028633       0.02411046      -0.37132831
Pt       2.66776432       6.21310927       4.58922116        4       0.00000000      -0.00256259       0.10061459      -0.37978011
Pt       5.34325326       6.24030134       4.57480278        4       0.00000000       0.04175039       0.08884599      -0.39929217
Pt       8.06236519       6.20385842       4.59624429        4       0.00000000      -0.05062609       0.11328563      -0.35333249
Pt      10.70881205       6.12567393       4.63184024        4       0.00000000       0.05527203      -0.23960705      -0.21267642
Ni       4.01026035       8.50016932       4.60226214        4       1.00000000      -0.03902463       0.03554268      -0.47278581
Pt       6.68061530       8.50314855       4.58260592        4       0.00000000      -0.04036213       0.04244968      -0.39779028
Ni       9.38321781       8.51113383       4.62063979        4       1.00000000       0.05348692      -0.01647662      -0.43597205
Pt      12.05153659       8.49722593       4.59975395        4       0.00000000      -0.07231140      -0.02415878      -0.28675927
Pt      -0.01466727       0.01521685       6.84771496        5       0.00000000      -0.08188017      -0.01350705       0.14948795
Pt       2.71188635       0.00769585       6.83813374        5       0.00000000       0.14862314      -0.05624101       0.13273312
Ni       5.34929089       0.00982642       6.85074589        6       1.00000000      -0.04395704      -0.05518116      -0.24859367
Pt       8.00069436       0.00816740       6.90766844        6       0.00000000       0.06276463      -0.07943115      -0.08922374
Pt       1.31682010       2.36457445       6.91226456        6       0.00000000       0.05817690       0.04352114      -0.12941019
Pt       4.01796503       2.29592088       6.86119209        6       0.00000000      -0.00776929       0.03147159       0.35946171
Pt       6.68174845       2.29419953       6.85046639        6       0.00000000       0.00397866       0.03489916       0.38199052
Pt       9.38611331       2.37005528       6.82878456        5       0.00000000      -0.06761479       0.11584287       0.28048690
Pt       2.61637691       4.63880749       6.84178238        5       0.00000000      -0.12772039       0.00387548       0.26761979
Pt       5.35163772       4.64365793       6.85643041        6       0.00000000      -0.01425892      -0.08058196       0.38824358
Pt       8.08444636       4.64929702       6.83153748        5       0.00000000       0.15956767      -0.04033113       0.29946058
Ni      10.71050255       4.64355150       6.82906641        5       1.00000000      -0.00437986      -0.01319851      -0.26228918
Pt       4.00220199       6.97145093       6.86027446        6       0.00000000      -0.11528276       0.09043663       0.22789131
Pt       6.70449869       6.96021157       6.93522947        6       0.00000000       0.08814335       0.00817199       0.02337591
Pt       9.40370472       6.97661649       6.83540977        5       0.00000000       0.04886141       0.17327322       0.27469555
Pt      12.01844316       6.96890735       6.85227134        6       0.00000000       0.00534899      -0.01119440       0.29201590
