64
Lattice="10.366514618519599 -0.01821379720795524 0.010532915489818004 5.16748369817833 8.84382430038621 -0.05274099803385172 0.008600089484637101 -0.054689953787387516 8.793156757153142" Properties=species:S:1:pos:R:3:tags:I:1:initial_magmoms:R:1:forces:R:3 unique_id=cb2d2ccdb9da40a69c0fa5e1a10ba3b4 stress="0.00028544268107281306 1.6058229558894213e-06 -8.370876355544071e-06 1.6058229558894213e-06 0.00029749891050775273 1.321160250040467e-05 -8.370876355544071e-06 1.321160250040467e-05 0.0002657098608195782" energy=-398.9510430703379 pbc="T T T"
Ni      -0.01421498      -0.02062518       0.17839201        4       1.00000000      -0.05334789       0.02925133       0.32380842
Ni       2.61156155      -0.02038417       0.20029197        4       1.00000000       0.10186043       0.00794883       0.41338553
Ni       5.18538833      -0.05030588       0.15902272        4       1.00000000       0.00640009      -0.07237968       0.17543626
Ni       7.76438839      -0.08518529       0.18327873        4       1.00000000      -0.07584412      -0.17190291       0.34052589
Pt       1.29650786       2.21553516       0.17479344        4       0.00000000       0.02360154       0.00647212       0.24182445
Pt       3.86496408       2.15558429       0.17622214        4       0.00000000       0.00438460      -0.03218643       0.17230294
Pt       6.47342723       2.11452947       0.09910986        4       0.00000000       0.03278073      -0.11917745      -0.01136267
Pt       9.08982434       2.18356421       0.12008957        4       0.00000000       0.02541334      -0.02785858       0.11593289
Ni       2.55753094       4.46915077       0.03444879        4       1.00000000      -0.01777517       0.07324639       0.03147314
Pt       5.12887423       4.45491059       0.00940593        4       0.00000000      -0.07380666       0.04786700      -0.13167712
Pt       7.80422731       4.45956172       0.01652760        4       0.00000000       0.07239753       0.10729585      -0.12601885
Ni      10.39195857       4.45401409       0.04854768        4       1.00000000       0.03617126       0.11646206       0.07131888
Ni       3.82643464       6.66942428       0.04445955        4       1.00000000      -0.09608327       0.08031939       0.18646920
Pt       6.46282606       6.73184915       0.07234131        4       0.00000000      -0.02517703       0.08319464      -0.05230874
Ni       9.09078886       6.65516789       0.11494950        4       1.00000000       0.01924943       0.06350459       0.20719856
Ni      11.67050509       6.62022797       0.03620194        4       1.00000000       0.08138588      -0.03997738       0.02179446
Ni       1.32574874       0.70518574       2.25783656        3       1.00000000       0.04155298       0.01307425       0.17610396
Ni       3.86394572       0.73647508       2.24885184        3       1.00000000      -0.03564249       0.10148289       0.14302809
Ni       6.47585911       0.73122165       2.26027594        3       1.00000000       0.01020052       0.09045555       0.22614485
Pt       9.07459289       0.70188057       2.25262925        3       0.00000000       0.01118926       0.19327527      -0.07071590
Ni       2.59129416       2.89364519       2.28521145        3       1.00000000       0.00007665      -0.10985177       0.19486770
Ni       5.18565317       2.89335224       2.25617445        3       1.00000000      -0.07744624      -0.07664881       0.04002032
Ni       7.74820731       2.90835701       2.24802645        3       1.00000000       0.02773900      -0.04775498      -0.04495475
Ni      10.37593321       2.90291525       2.28463778        3       1.00000000       0.01870753      -0.09058909       0.19243937
Pt       3.88437150       5.14933991       2.21643133        3       0.00000000       0.01264310      -0.04694367      -0.10973186
Ni       6.47553184       5.14762673       2.20808177        3       1.00000000       0.00460766       0.03153234      -0.04984269
Pt       9.02749226       5.11568194       2.27368176        3       0.00000000      -0.11593417       0.00403786      -0.03988675
Pt      11.66297085       5.09099354       2.20754243        3       0.00000000       0.01662732      -0.08983190       0.01393961
Ni       5.19997635       7.36907951       2.17675811        3       1.00000000       0.06179358       0.00827582       0.10910160
Ni       7.72861191       7.38494218       2.18809883        3       1.00000000      -0.06832290       0.01708370       0.11496770
Pt      10.39397007       7.40738713       2.14108825        3       0.00000000       0.09216859       0.00667423       0.05411765
Ni      12.94207627       7.34943902       2.15628670        3       1.00000000      -0.01863181      -0.05569926       0.03098602
Ni       0.03383656       1.47466485       4.31191194        2       1.00000000       0.12479732       0.03623484      -0.05964114
Ni       2.57718752       1.47050435       4.29168018        2       1.00000000      -0.03761995       0.07493940      -0.09228370
Ni       5.20202432       1.43969943       4.30943637        2       1.00000000      -0.03417652      -0.06898403      -0.17592220
Ni       7.74400649       1.43134464       4.33615883        2       1.00000000      -0.07493921      -0.11978794      -0.08296985
Ni       1.29512038       3.68182881       4.32292956        2       1.00000000       0.02315379      -0.00609353      -0.08485698
Ni       3.84262113       3.65241670       4.31783979        2       1.00000000      -0.09410424      -0.04337357      -0.14687027
Pt       6.50550496       3.60001500       4.32859539        2       0.00000000      -0.00757817      -0.05019107      -0.17228679
Ni       9.10293353       3.66401947       4.33384350        2       1.00000000       0.11942000      -0.03913046      -0.07214158
Ni       2.54546576       5.84295996       4.38732275        2       1.00000000      -0.07588262      -0.05081256       0.02192227
Pt       5.20178637       5.86641790       4.37088117        2       0.00000000       0.08741378       0.03415950      -0.07670037
Ni       7.76785400       5.85113999       4.34328008        2       1.00000000      -0.04651074       0.03494424      -0.05439179
Ni      10.39658646       5.82106704       4.37516243        2       1.00000000       0.11004004       0.00990698       0.02393813
Pt       3.83898317       8.06527451       4.27342079        2       0.00000000      -0.08540965      -0.07264105       0.14313197
Ni       6.47696774       8.09714987       4.27293265        2       1.00000000      -0.03719915       0.12009267      -0.13701743
Pt       9.03597287       8.08476493       4.25007436        2       0.00000000      -0.05718810      -0.01526024       0.13912388
Ni      11.65077017       8.05498871       4.30422725        2       1.00000000      -0.02987029      -0.05606104      -0.06983493
Pt       0.00127668      -0.11025931       6.53965392        1       0.00000000       0.01591604      -0.06996754       0.09340696
Pt       2.58459200      -0.07408139       6.53843623        1       0.00000000      -0.04316464       0.02357653       0.16954670
Pt       5.21770274      -0.05794460       6.53204151        1       0.00000000       0.03447690      -0.01714397       0.01066272
Pt       7.76125019      -0.10854079       6.55672619        1       0.00000000      -0.07744596      -0.09032361       0.18912097
Pt       1.29862794       2.26954081       6.39537215        1       0.00000000       0.03641888       0.09082314      -0.15961623
Pt       3.93643636       2.26338158       6.39964140        1       0.00000000       0.03142049       0.18739799      -0.19840312
Ni       6.48367211       2.19264117       6.43312433        1       1.00000000      -0.01314757       0.01729218      -0.23135317
Pt       9.02581403       2.23830878       6.38405632        1       0.00000000      -0.03134373       0.07311068      -0.34707955
Ni       2.58706713       4.45232714       6.45642159        1       1.00000000       0.01938444       0.13549699      -0.27410388
Ni       5.18914650       4.40826976       6.41003149        1       1.00000000       0.03229238       0.08630589      -0.32200491
Ni       7.73870161       4.37934607       6.39495352        1       1.00000000      -0.15387713       0.00445108      -0.37364934
Ni      10.39867235       4.39781850       6.46268164        1       1.00000000       0.16381751       0.02582919      -0.28835971
Ni       3.85717192       6.52578261       6.48411084        1       1.00000000      -0.06528790      -0.14296857      -0.07517358
Ni       6.47159467       6.53416777       6.41345722        1       1.00000000       0.10384050      -0.05679100      -0.14307124
Pt       9.08030135       6.46299662       6.48557855        1       0.00000000       0.00394383      -0.05799684       0.09469577
Ni      11.68141967       6.51083776       6.46612462        1       1.00000000       0.01547042      -0.09768645      -0.20850574
