64
Lattice="10.459263872337745 0.021331544551389376 -0.010739029985368772 5.2481055956523335 9.032105780369571 -0.0362499189875922 0.0 0.0 21.71596914636639" Properties=species:S:1:pos:R:3:tags:I:1:initial_magmoms:R:1:forces:R:3 unique_id=0e0713b9a96a4d14a3f471bbfa151805 energy=-382.17493412754243 stress="0.005824190893071462 0.0002073985239108679 0.0002479705026056198 0.0002073985239108679 0.005185942508365703 -9.926820651704837e-05 0.0002479705026056198 -9.926820651704837e-05 -0.0027544696959083854" pbc="T T T"
Ni      -0.06589859      -0.02197508       0.16038963        2       1.00000000      -0.14125520      -0.05759409      -0.13537712
Ni       2.64485651      -0.02975060       0.14994743        1       1.00000000       0.09697730      -0.02313285      -0.20887134
Ni       5.25202830      -0.02844606       0.13083542        1       1.00000000       0.11621481       0.06091966      -0.26360310
Ni       7.86744475      -0.03810587       0.09031284        1       1.00000000      -0.04109405      -0.04792576       0.49861389
Pt       1.28277267       2.28208443       0.09892909        1       0.00000000       0.20683798       0.03378120      -1.05708959
Pt       3.92552315       2.31698555       0.11414385        1       0.00000000       0.00992494       0.13080376      -0.67653947
Pt       6.56449287       2.17992181       0.11132687        1       0.00000000      -0.12342191      -0.13785762      -0.49591257
Ni       9.14874489       2.23403463       0.11948330        1       1.00000000       0.00114828      -0.13512034      -0.08377813
Ni       2.62648966       4.55754404       0.01943511        0       1.00000000       0.01649980      -0.03186598       0.20824086
Ni       5.24708436       4.52967194       0.11989255        1       1.00000000       0.17461143      -0.01403309      -0.11043401
Pt       7.92798762       4.55090774       0.02036196        0       0.00000000      -0.08330626       0.05742307       0.21617884
Ni      10.48043201       4.58095364       0.00031827        0       1.00000000       0.01614822       0.08810790       0.23974055
Ni       3.90245958       6.80266967       0.14650616        1       1.00000000      -0.01716433       0.10334244      -0.08564669
Pt       6.52813414       6.82263882       0.15581408        2       0.00000000      -0.05704110      -0.01432903      -0.32019769
Ni       9.18982761       6.79119771       0.02118067        0       1.00000000      -0.03785470      -0.02433556       0.37148984
Ni      11.80067722       6.80245238       0.00000000        0       1.00000000       0.08786778       0.08860791       0.37175746
Pt       1.27220287       0.66815444       2.17323291        4       0.00000000      -0.03229403      -0.12620454       0.20188223
Pt       3.98884110       0.77149284       2.22013808        4       0.00000000       0.05421229      -0.05486121       0.20213744
Ni       6.57805182       0.73159993       2.23788946        4       1.00000000       0.09665653      -0.03618352       0.15940469
Ni       9.09732654       0.71725884       2.16539520        4       1.00000000      -0.09352177      -0.03983799       0.03399609
Ni       2.63680626       3.03182320       2.23278567        4       1.00000000       0.02680896       0.01601383       0.26286980
Ni       5.23410853       3.01860504       2.24762288        4       1.00000000       0.04841715       0.02787510       0.29311504
Pt       7.82536420       2.99229568       2.25634672        5       0.00000000      -0.05824206       0.02727990       0.19167586
Pt      10.40764520       3.06189779       2.18971092        4       0.00000000      -0.15312447       0.08967069       0.10677770
Pt       3.96831827       5.24835447       2.13855074        3       0.00000000       0.05455623      -0.01699822       0.06005736
Ni       6.58229548       5.28079650       2.20989489        4       1.00000000       0.09013969      -0.06651006       0.23676680
Ni       9.12492809       5.30807210       2.24362199        4       1.00000000      -0.10404987       0.00210448       0.14830482
Pt      11.78410592       5.29461832       2.10651430        3       0.00000000       0.08168408      -0.03423313      -0.01390491
Ni       5.19843832       7.51764637       2.17158509        4       1.00000000      -0.08257437      -0.02857543       0.16356465
Ni       7.87590262       7.46549177       2.19898006        4       1.00000000       0.07664928      -0.10397438       0.17757673
Pt      10.47243225       7.50214728       2.10484573        3       0.00000000      -0.05240573       0.01681309       0.01086736
Ni      13.10273638       7.58121498       2.13020386        3       1.00000000      -0.04147682       0.03985808      -0.01890084
Pt      -0.09467414       1.53245192       4.38498701        7       0.00000000      -0.06088679       0.03444461      -0.17409629
Pt       2.66018598       1.54553189       4.35567354        7       0.00000000      -0.03740655      -0.09191700      -0.22891242
Ni       5.25534620       1.51816330       4.38564064        7       1.00000000       0.00150645       0.04694125      -0.30435690
Ni       7.82060897       1.50848279       4.38660216        7       1.00000000      -0.03339971       0.00522584      -0.22721968
Pt       1.26075131       3.81800378       4.42613694        7       0.00000000      -0.07690302       0.05089231      -0.11990977
Ni       3.94265743       3.74940215       4.37678795        7       1.00000000       0.02035439       0.01315873      -0.27385303
Pt       6.56666541       3.74076556       4.38312072        7       0.00000000       0.02059448       0.02754966      -0.10234600
Ni       9.13776000       3.83710265       4.43087272        7       1.00000000      -0.02046407       0.03277000      -0.16604348
Pt       2.58555093       5.99763442       4.43017579        7       0.00000000       0.02478137       0.01871271      -0.06279235
Pt       5.26181877       5.97501018       4.32888852        6       0.00000000      -0.05600503      -0.00901993      -0.17507412
Ni       7.91927443       5.95654351       4.37934849        7       1.00000000       0.05223600      -0.05999079      -0.22136232
Ni      10.41503566       5.99436569       4.44469494        7       1.00000000      -0.00969562       0.03597095      -0.09842351
Pt       3.90178422       8.28635432       4.30640948        6       0.00000000      -0.00564274       0.00866784      -0.12404089
Pt       6.57390345       8.22604916       4.33335266        6       0.00000000      -0.01209071       0.12849903      -0.19048843
Pt       9.18038374       8.17708241       4.38395121        7       0.00000000      -0.01453998       0.01027804      -0.07744974
Pt      11.77595179       8.33063655       4.35780017        7       0.00000000      -0.03761010       0.03098499      -0.05028217
Pt      -0.05776363      -0.02054697       6.71596915       10       0.00000000       0.12465455       0.08023778       0.14485040
Pt       2.64073886      -0.04719844       6.70963669       10       0.00000000      -0.03677195       0.03507017       0.28183519
Pt       5.28062715      -0.12278905       6.70477230       10       0.00000000      -0.06237781       0.14961497       0.08490158
Ni       7.83217275      -0.00669626       6.62830240        9       1.00000000       0.03203710       0.04062778      -0.23707062
Pt       1.29307681       2.32953282       6.58641636        9       0.00000000      -0.05421000      -0.13197978       0.95651884
Pt       3.92658831       2.27682973       6.54492276        8       0.00000000       0.22085382      -0.05476041       0.69215355
Pt       6.56360095       2.20584798       6.53718345        8       0.00000000      -0.08824263      -0.09625646       0.62009722
Pt       9.12802101       2.34768505       6.64801876        9       0.00000000      -0.01227757       0.15115260      -0.00148048
Ni       2.57078973       4.52939741       6.61938219        9       1.00000000       0.01279958       0.01557646      -0.15622526
Pt       5.21754612       4.51442973       6.65050695       10       0.00000000      -0.01666844      -0.05328708       0.12946710
Ni       7.90904052       4.53379296       6.50827777        8       1.00000000       0.04118717       0.05503364       0.01312634
Ni      10.43962474       4.59659480       6.58584526        9       1.00000000      -0.07183186      -0.02644673      -0.35625021
Pt       3.80952994       6.76083676       6.71595879       10       0.00000000       0.12434206      -0.04865602      -0.00722219
Pt       6.63188402       6.69780344       6.57083193        9       0.00000000      -0.03253416      -0.06332978       0.36479234
Ni       9.20690132       6.68600343       6.58334066        9       1.00000000      -0.01366550      -0.02508810      -0.29982265
Ni      11.73090510       6.71281718       6.60760051        9       1.00000000      -0.05865081      -0.09970560      -0.31778263
