64
Lattice="10.336728521371198 -0.01496240483887938 0.016992671802918736 5.155406437993423 8.891352507382722 -0.05854632858245081 0.0 0.0 21.620486671572237" Properties=species:S:1:pos:R:3:tags:I:1:initial_magmoms:R:1:forces:R:3 unique_id=58a60604cef8404ba31f3f76daa6fc27 stress="0.006486839160864138 -8.350005505337006e-05 -8.062072379418978e-05 -8.350005505337006e-05 0.0060869381133635166 -0.0004021668927562937 -8.062072379418978e-05 -0.0004021668927562937 -0.002518711938395514" energy=-376.78100280051626 pbc="T T T"
Ni       0.05101648       0.00120858       0.17059498        2       1.00000000       0.08000346      -0.00425415      -0.10071851
Ni       2.53245055       0.00696251       0.20769864        2       1.00000000      -0.02889174       0.02641511      -0.11904676
Pt       5.08745397      -0.05876583       0.11863318        1       0.00000000      -0.11367240       0.20871475      -1.02318085
Pt       7.80273867      -0.14023509       0.16479017        2       0.00000000      -0.05740046      -0.03311908      -0.80815094
Ni       1.29717990       2.22778928       0.08194152        1       1.00000000      -0.01442029       0.05107375       0.42519387
Pt       3.77328906       2.28050376       0.06564242        1       0.00000000       0.08324359      -0.10032006       0.14729504
Pt       6.43409473       2.27214462       0.13290773        1       0.00000000       0.05368911      -0.02420969      -0.70816286
Pt       9.15056396       2.23042407       0.11943777        1       0.00000000      -0.12385967       0.09508458      -0.42376201
Ni       2.57620605       4.47210547       0.00000000        0       1.00000000       0.02935868      -0.01296360       0.35342111
Ni       5.10857089       4.47842594       0.06989653        1       1.00000000      -0.02677380       0.05169428       0.32466553
Pt       7.79216566       4.50138295       0.05661185        1       0.00000000       0.03866438       0.04662057       0.02871567
Ni      10.39100917       4.45133276       0.04295662        0       1.00000000      -0.01576094      -0.05301660       0.29020486
Ni       3.85279645       6.58780384       0.05036216        1       1.00000000      -0.03067020      -0.04319339       0.38620836
Pt       6.39899574       6.70563876       0.11816661        1       0.00000000       0.04178672       0.02502882      -0.25353572
Ni       9.03187163       6.62953110       0.12189485        1       1.00000000      -0.14978386      -0.00304568      -0.38104366
Ni      11.63431047       6.57723927       0.02141444        0       1.00000000       0.04845955       0.06309933       0.18232261
Ni       1.33132757       0.72301136       2.19672520        4       1.00000000       0.01504793       0.00882585       0.14172012
Ni       3.81843417       0.75866187       2.21725652        4       1.00000000      -0.02524091       0.02606013       0.23496236
Pt       6.43738177       0.80894124       2.30576892        5       0.00000000      -0.02818399       0.14851047       0.33318070
Pt       9.14616086       0.73661784       2.28880351        5       0.00000000       0.06924811      -0.01927067       0.27558290
Ni       2.58545304       2.93647521       2.21018244        4       1.00000000       0.04387466      -0.06384671       0.09263840
Ni       5.09368846       3.01631020       2.22736041        4       1.00000000      -0.11659306       0.07911451       0.09860188
Ni       7.79122472       3.00299500       2.24169813        4       1.00000000       0.05943090       0.05318078       0.17968054
Ni      10.38184196       2.94396126       2.26436855        5       1.00000000       0.10031478      -0.04438353       0.18208084
Ni       3.91527807       5.16049736       2.17975015        4       1.00000000       0.07888286      -0.02797967       0.06071493
Ni       6.43319725       5.18462121       2.20181343        4       1.00000000      -0.02880026      -0.07045138       0.14763513
Ni       9.00446595       5.11298322       2.21649062        4       1.00000000      -0.04688535      -0.12415096       0.16761000
Pt      11.70278882       5.07063154       2.14950053        3       0.00000000       0.05358690      -0.05213053       0.04661473
Ni       5.17860202       7.35049090       2.18763524        4       1.00000000      -0.04937629      -0.02251843       0.18297541
Ni       7.68073138       7.38487931       2.17880742        4       1.00000000      -0.03487889      -0.00641408       0.24391855
Pt      10.28772629       7.30347000       2.13560317        3       0.00000000       0.08080445      -0.16911969       0.14470218
Ni      12.96933761       7.29711440       2.17080054        4       1.00000000       0.13114950      -0.10563272       0.16907458
Ni       0.03352312       1.49989170       4.34402876        6       1.00000000       0.02808884      -0.01666187      -0.12828754
Pt       2.54889275       1.54265303       4.31464174        6       0.00000000      -0.03298399      -0.01684206       0.00626703
Ni       5.12592047       1.50600802       4.35201593        7       1.00000000      -0.13059383       0.06203103      -0.25355623
Ni       7.78625849       1.48421676       4.37287171        7       1.00000000       0.01709689      -0.02839345      -0.30059987
Ni       1.30677741       3.66490022       4.37861360        7       1.00000000       0.02073827      -0.01318081      -0.09310878
Ni       3.86223078       3.72393890       4.35484207        7       1.00000000      -0.00292984       0.03809412      -0.16109263
Pt       6.44152530       3.72386340       4.26525115        6       0.00000000      -0.02053997       0.10442129      -0.18271709
Ni       9.04127225       3.64322011       4.29530826        6       1.00000000      -0.05306038      -0.04718648      -0.26121113
Ni       2.63197418       5.81708430       4.36532239        7       1.00000000       0.05033203      -0.12129479      -0.10582183
Ni       5.13890842       5.85018701       4.28073204        6       1.00000000       0.00091619      -0.08033457      -0.26426126
Ni       7.72585771       5.86983536       4.27968499        6       1.00000000      -0.01917781      -0.00158363      -0.36045262
Pt      10.34312822       5.75279750       4.36524351        7       0.00000000      -0.01701298      -0.02451400      -0.06315012
Pt       3.95535431       8.02969000       4.28058230        6       0.00000000       0.15472397      -0.06395668      -0.03866225
Ni       6.44611651       8.09546691       4.26234358        6       1.00000000      -0.01961402       0.01358030      -0.25275855
Pt       8.94233734       8.10414815       4.25736143        6       0.00000000      -0.09057418      -0.06412057      -0.16959714
Pt      11.65944974       8.05794748       4.29193961        6       0.00000000      -0.02764569      -0.16224051      -0.24186648
Pt       0.02494311      -0.02097032       6.57721266       10       0.00000000       0.10775422       0.10842659       0.11390306
Pt       2.58047712       0.03610117       6.62048667       10       0.00000000      -0.03306770      -0.12945050       0.10016591
Pt       5.16528031      -0.03095915       6.47230832        9       0.00000000      -0.07910634       0.17804397       1.08048385
Pt       7.77698400      -0.11033649       6.51489928        9       0.00000000       0.05027478       0.36002653       0.98482281
Ni       1.33037178       2.27716587       6.50946563        9       1.00000000       0.01465335       0.06860014      -0.27261072
Ni       3.84523798       2.27515920       6.43781485        8       1.00000000       0.00657001       0.07690358      -0.03782671
Pt       6.41672889       2.27222486       6.44569948        8       0.00000000       0.06747923      -0.18108095       0.65253874
Pt       9.11479169       2.28559376       6.41755539        8       0.00000000      -0.08161246      -0.07574572       0.51853336
Ni       2.59094168       4.41289384       6.47251140        9       1.00000000       0.01437187      -0.05619597      -0.48464888
Ni       5.07994075       4.40768685       6.48973192        9       1.00000000      -0.14098818       0.01489269      -0.39813352
Ni       7.75650386       4.40045729       6.41897348        8       1.00000000       0.06906163       0.07680781      -0.05501881
Ni      10.43155400       4.38487480       6.52097532        9       1.00000000       0.09609777      -0.01444418      -0.19072967
Ni       3.83852486       6.53630825       6.47896980        9       1.00000000      -0.01863537      -0.05582160      -0.34720875
Pt       6.39838452       6.52780297       6.39078902        8       0.00000000       0.07278889       0.12559139       0.21596628
Pt       9.07462064       6.51701008       6.57033868       10       0.00000000      -0.15079111       0.03445988       0.15564477
Ni      11.67868628       6.52975443       6.51304093        9       1.00000000       0.03103243      -0.01223332      -0.18712422
