64
Lattice="10.422753818974362 0.006467831438528433 0.025430588162586493 5.216978215820402 8.976463469502107 -0.03058695779140168 0.020763988285733292 -0.040825754586441 8.907481352653146" Properties=species:S:1:pos:R:3:tags:I:1:initial_magmoms:R:1:forces:R:3 unique_id=904013adb4d746c1a97f38d42f335fc4 stress="0.00047261544776448783 -5.169301348988709e-07 -1.1306279956855254e-05 -5.169301348988709e-07 0.0004697304643620573 1.0517046907958164e-05 -1.1306279956855254e-05 1.0517046907958164e-05 0.0004326064118008732" energy=-402.8074163898903 pbc="T T T"
Ni      -0.04007052      -0.00028288       0.16687331        4       1.00000000      -0.28588311      -0.06090671       0.20126007
Ni       2.62208543      -0.01558842       0.16194980        4       1.00000000       0.18193183      -0.09478105       0.23824163
Ni       5.22936794      -0.03269692       0.15651801        4       1.00000000       0.08671683      -0.00421145       0.22091362
Ni       7.84333145      -0.03414948       0.12424400        4       1.00000000       0.07531665      -0.15265281       0.21235523
Ni       1.29559388       2.25334453       0.14338305        4       1.00000000      -0.00279796       0.05084654       0.22237701
Pt       3.85653383       2.29230973       0.13636868        4       0.00000000      -0.05665580       0.10590518       0.21002926
Pt       6.53151240       2.17533263       0.14612311        4       0.00000000       0.07528774      -0.11208524       0.10944013
Ni       9.14117603       2.21297308       0.15663590        4       1.00000000      -0.07330916      -0.18684793       0.22041712
Ni       2.59626226       4.50638792       0.04732789        4       1.00000000      -0.03385232       0.09974831       0.00111277
Ni       5.21016271       4.49545868       0.13499718        4       1.00000000       0.19651658      -0.04090874       0.20027411
Pt       7.89241086       4.50901811       0.07329445        4       0.00000000       0.13363130      -0.07693805      -0.10453887
Ni      10.45471050       4.50708024       0.05355596        4       1.00000000       0.10766216       0.08202924      -0.03233572
Ni       3.88622842       6.74992385       0.14405065        4       1.00000000      -0.06906727       0.09728540       0.22644460
Pt       6.50059607       6.77599897       0.18148154        4       0.00000000      -0.04737305       0.02159335       0.13905595
Ni       9.15239697       6.74179512       0.06190172        4       1.00000000       0.03465597      -0.01166296       0.02922728
Ni      11.74811209       6.73971852       0.05225448        4       1.00000000       0.14941163       0.03177213      -0.05494519
Pt       1.27977988       0.69225311       2.14661077        3       0.00000000      -0.01177220      -0.01584741       0.02406141
Pt       3.97314868       0.75685817       2.24260695        3       0.00000000       0.13703320       0.13739134      -0.04893529
Ni       6.55631007       0.72212853       2.26899068        3       1.00000000       0.14605055      -0.05767280       0.08129243
Ni       9.08100078       0.70587011       2.21495914        3       1.00000000      -0.18168774      -0.02520668      -0.07402164
Ni       2.61683598       3.00724049       2.23281811        3       1.00000000      -0.01840625       0.06477754       0.06939754
Ni       5.22212042       2.99978843       2.28267743        3       1.00000000       0.02381494       0.01917065       0.13574452
Pt       7.78212103       2.98800652       2.35604379        3       0.00000000      -0.09862913       0.02766984      -0.05199913
Pt      10.40054839       3.01170309       2.17971608        3       0.00000000      -0.09181686       0.13259071       0.01814564
Pt       3.94413692       5.21500488       2.17448864        3       0.00000000       0.00370750      -0.05873217      -0.05704470
Ni       6.54713384       5.23050060       2.24762346        3       1.00000000       0.14924907      -0.00947803       0.01085274
Ni       9.10140815       5.25133580       2.26660620        3       1.00000000      -0.05184144       0.03706683       0.15522556
Pt      11.75270394       5.25356044       2.18988637        3       0.00000000       0.04170289       0.03428804      -0.05061918
Ni       5.18541634       7.47154024       2.19258143        3       1.00000000      -0.15756747      -0.03690397      -0.03730793
Ni       7.83836736       7.42305458       2.21703505        3       1.00000000       0.09743723      -0.18721439       0.04572651
Pt      10.43635537       7.44740046       2.13978834        3       0.00000000       0.01394344      -0.09525362      -0.05059006
Ni      13.05780593       7.51058020       2.18729561        3       1.00000000      -0.01264281       0.04676546      -0.14075590
Pt      -0.06435108       1.52990468       4.37376184        2       0.00000000      -0.13242609       0.10575854       0.01502504
Pt       2.65130420       1.53564342       4.36477472        2       0.00000000      -0.07343308       0.07295706       0.04648340
Ni       5.26452806       1.51498590       4.39296933        2       1.00000000       0.09053336       0.05878222      -0.20993259
Ni       7.79938535       1.49899283       4.40518520        2       1.00000000      -0.04801172      -0.07061117      -0.11633806
Pt       1.31396339       3.83700267       4.44587552        2       0.00000000      -0.05041827       0.05476109      -0.01580479
Ni       3.94242463       3.72769706       4.38919457        2       1.00000000       0.03558107      -0.04139025      -0.19050325
Ni       6.54588008       3.71107730       4.41049813        2       1.00000000      -0.03636231      -0.01224797      -0.00131917
Ni       9.09271591       3.78676861       4.44933057        2       1.00000000       0.00573548       0.16054301      -0.05613678
Ni       2.60423982       5.95356730       4.42441380        2       1.00000000       0.03533667       0.06096956      -0.10629173
Pt       5.24195902       5.87442093       4.33381842        2       0.00000000       0.10040546      -0.05302264       0.04200740
Ni       7.87934768       5.88925849       4.39783492        2       1.00000000       0.05233746      -0.18618033      -0.19966111
Ni      10.40927060       5.94438283       4.46873490        2       1.00000000      -0.07705483      -0.01477844      -0.05914550
Pt       3.88111580       8.19537837       4.31224285        2       0.00000000       0.03404961      -0.05382421      -0.10103972
Pt       6.54076584       8.15871922       4.32298446        2       0.00000000       0.01337007      -0.09108129       0.02923706
Pt       9.15397657       8.11856147       4.40053820        2       0.00000000      -0.07343921      -0.06596714       0.06404881
Pt      11.75660884       8.20155421       4.39167864        2       0.00000000      -0.01705968      -0.03779623      -0.08634037
Pt      -0.04070188      -0.03076932       6.68715807        1       0.00000000      -0.06957990       0.02573385       0.09535813
Pt       2.64323106      -0.05399817       6.69157436        1       0.00000000      -0.01991881       0.02629781       0.08416607
Pt       5.28375884      -0.11610982       6.68503471        1       0.00000000       0.05554908      -0.21640333       0.12045101
Ni       7.81936053      -0.02917382       6.63841614        1       1.00000000       0.02695832       0.05889452      -0.15755278
Pt       1.30072458       2.31621292       6.67918521        1       0.00000000      -0.02351722       0.15530381       0.14364176
Pt       3.92945051       2.25453499       6.54078339        1       0.00000000      -0.03394296      -0.04975894      -0.32347161
Pt       6.55931945       2.21026316       6.49593160        1       0.00000000       0.01223547      -0.03848410      -0.20042227
Pt       9.10733826       2.30611289       6.64592950        1       0.00000000       0.04083415       0.20491077       0.11154682
Ni       2.58288522       4.49928028       6.59536030        1       1.00000000      -0.10704333       0.10794576      -0.15005324
Pt       5.22505150       4.46334131       6.60763838        1       0.00000000      -0.04561320       0.05595358       0.05942351
Ni       7.88148626       4.48533329       6.50619269        1       1.00000000       0.08868158       0.08527781      -0.31471400
Ni      10.42208734       4.54009903       6.60676307        1       1.00000000      -0.10017260       0.25802406      -0.17760826
Pt       3.79592491       6.68898218       6.63437135        1       0.00000000      -0.14672782       0.06636908       0.14879451
Pt       6.60764767       6.64288653       6.55682125        1       0.00000000       0.08371596       0.03695413      -0.12804038
Ni       9.17818602       6.63966034       6.59182085        1       1.00000000       0.09025925      -0.18934530      -0.19560607
Ni      11.71532905       6.65836656       6.60594701        1       1.00000000      -0.17162889      -0.23614182      -0.23870339
