64
Lattice="10.556392931959504 -0.02679985690873395 -0.016891443347607654 5.254987109079003 9.157856926382689 -0.007064784641350211 0.0 0.0 21.851638544338194" Properties=species:S:1:pos:R:3:tags:I:1:initial_magmoms:R:1:forces:R:3 unique_id=6caea6463ceb4166bc3174abbc6fa822 stress="0.007104706598596934 -0.0001399212497610937 -9.8577505177949e-05 -0.0001399212497610937 0.007334510189884762 2.6626931083522235e-05 -9.8577505177949e-05 2.6626931083522235e-05 -0.0005398959327224447" energy=-388.06414786409016 pbc="T T T"
Pt      -0.00340286      -0.02702616       0.13086089        1       0.00000000       0.12210268       0.09451775      -0.66153093
Pt       2.75138963      -0.00039591       0.12717837        1       0.00000000       0.21866970       0.17392712      -0.60053235
Ni       5.31124596       0.02144228       0.15744406        2       1.00000000       0.08161544       0.17548862       0.13278762
Ni       7.86308103      -0.02141262       0.14726750        1       1.00000000      -0.11655473       0.01594779       0.12314100
Pt       1.40683527       2.37571347       0.13487268        1       0.00000000       0.12279651       0.01980713      -0.62517025
Ni       3.99215465       2.29391182       0.08766483        1       1.00000000      -0.00635443      -0.03466303       0.46965221
Ni       6.54372595       2.25038894       0.07136648        1       1.00000000      -0.00454215      -0.06212614       0.50281562
Pt       9.17682780       2.27716357       0.11209939        1       0.00000000       0.07244791       0.03576867      -0.90819344
Ni       2.61766159       4.57716406       0.16539842        2       1.00000000      -0.10555243       0.00719712       0.09879420
Ni       5.24877148       4.54035790       0.05602769        1       1.00000000      -0.07367089      -0.05959101       0.47118370
Pt       7.84749685       4.60093086       0.00000000        0       0.00000000       0.03456082      -0.01792951      -0.06108503
Ni      10.57147760       4.60193524       0.14783324        1       1.00000000       0.10697175       0.08620879      -0.05901964
Pt       3.90714660       6.79975163       0.01822053        0       0.00000000      -0.08389050      -0.04730455      -0.01618444
Ni       6.57685574       6.84872172       0.13194739        1       1.00000000      -0.05736798       0.01822752       0.01236010
Ni       9.24092556       6.84951642       0.13419015        1       1.00000000       0.03899234       0.02653159      -0.13797061
Ni      11.83546173       6.83236615       0.15176980        2       1.00000000      -0.04554298      -0.14826173       0.05518793
Pt       1.41604483       0.81893004       2.35567994        5       0.00000000       0.05407834       0.03461561       0.38444224
Ni       3.98302480       0.77962141       2.30167100        4       1.00000000       0.03755937       0.01102310       0.17144203
Ni       6.54821951       0.75351047       2.25380242        4       1.00000000      -0.03011891       0.00918120       0.04006741
Pt       9.17984204       0.72120834       2.31348211        4       0.00000000      -0.04665552      -0.03341323       0.36122176
Ni       2.65560603       3.04589753       2.30733955        4       1.00000000       0.07641853      -0.05240897       0.20067619
Pt       5.20592394       2.93559360       2.24940041        3       0.00000000      -0.08666650      -0.04064638       0.03042386
Pt       7.83176533       3.01067417       2.29733220        4       0.00000000      -0.11113342      -0.01328255       0.19128771
Pt      10.59912993       3.08229753       2.27630167        4       0.00000000      -0.01410554       0.00211942       0.26885373
Pt       3.87411931       5.25721079       2.27458460        4       0.00000000      -0.04960462      -0.15543168       0.16624380
Pt       6.52999021       5.29911811       2.29872364        4       0.00000000      -0.15942721      -0.08063495       0.20720158
Pt       9.26508294       5.33868545       2.22362110        3       0.00000000      -0.04434912       0.00392289       0.13502194
Ni      11.87313964       5.31765158       2.23353517        3       1.00000000      -0.00386927      -0.00999924       0.10011684
Pt       5.22947053       7.59858335       2.34510481        4       0.00000000      -0.02591989      -0.09897284       0.32652375
Pt       7.91521814       7.62052096       2.26508073        4       0.00000000      -0.11779706      -0.12881844       0.23796929
Pt      10.54708086       7.68948284       2.17936085        3       0.00000000      -0.07042511       0.08361927       0.08525345
Pt      13.13382191       7.59321900       2.24574397        3       0.00000000      -0.04085686      -0.09495790       0.15895179
Pt      -0.01515480       1.50891272       4.53573837        6       0.00000000      -0.05061727       0.02813326      -0.33671346
Ni       2.68050760       1.54262275       4.53269551        6       1.00000000       0.13286589       0.08176387      -0.27553052
Ni       5.25137336       1.54408216       4.54928449        6       1.00000000      -0.03795089       0.03439509      -0.14657478
Pt       7.79520777       1.53731727       4.53811666        6       0.00000000      -0.18901947       0.11038945      -0.10131342
Pt       1.37970088       3.81337501       4.48581016        6       0.00000000       0.11396042       0.06313870      -0.29393747
Pt       4.04533136       3.74775041       4.58165060        7       0.00000000       0.14753188      -0.00418799      -0.06414590
Ni       6.54845398       3.79600618       4.60685045        7       1.00000000      -0.00041432      -0.01562729      -0.01035020
Pt       9.17101488       3.80885840       4.53973421        6       0.00000000       0.06239236       0.06129408      -0.28036514
Pt       2.71015264       6.13400682       4.55841563        7       0.00000000       0.09228087       0.02130050      -0.15200933
Ni       5.24674934       6.07507705       4.57119305        7       1.00000000       0.00554146      -0.10202389      -0.16114634
Pt       7.82115609       6.05591039       4.55958785        7       0.00000000      -0.00849707       0.04587455      -0.18377994
Pt      10.55461867       6.10084697       4.48645511        6       0.00000000       0.03894771       0.10736540      -0.24899455
Ni       3.92641926       8.38098887       4.56404794        7       1.00000000      -0.06205542       0.01292497      -0.27494376
Pt       6.53910271       8.35949118       4.53091205        6       0.00000000      -0.02363699      -0.08608602      -0.24171564
Pt       9.21896740       8.48765660       4.48731478        6       0.00000000       0.05235616       0.00250974      -0.25778379
Pt      11.86184300       8.41782219       4.49149957        6       0.00000000       0.02238024      -0.04546998      -0.18314885
Pt      -0.04111226      -0.05525785       6.72714946        8       0.00000000      -0.08598810       0.00021395       0.82494058
Pt       2.64798121       0.02487973       6.71894959        8       0.00000000      -0.08117250       0.01566071       0.57507839
Pt       5.28306544       0.10599896       6.82749408        9       0.00000000      -0.00762803       0.02248995      -0.21974723
Pt       7.90473905      -0.01638985       6.81369921        9       0.00000000       0.09277152       0.05089815      -0.01718409
Pt       1.36527203       2.30255117       6.72464909        8       0.00000000       0.03413800      -0.02167876       0.58623960
Ni       3.99990633       2.30917440       6.77489675        9       1.00000000       0.02747734       0.01607851      -0.35328258
Ni       6.53811286       2.33755871       6.77041561        9       1.00000000      -0.04433308       0.12698439      -0.47756055
Pt       9.13784787       2.30540226       6.73442010        8       0.00000000       0.02048757      -0.00865879       0.83396756
Pt       2.74725131       4.57945121       6.84933269        9       0.00000000       0.04013085      -0.00610708      -0.16357299
Ni       5.29410575       4.52820316       6.76563215        9       1.00000000       0.10846535      -0.09231984      -0.47580302
Ni       7.84164390       4.54354920       6.69470851        8       1.00000000      -0.07217622      -0.08904814       0.08113532
Pt      10.52474031       4.56035728       6.84069726        9       0.00000000       0.09879240      -0.07570280       0.08161948
Ni       3.95138906       6.85744995       6.69628743        8       1.00000000       0.03105312       0.03468903       0.06248383
Pt       6.48835648       6.73909529       6.81501775        9       0.00000000      -0.04754100      -0.04282050      -0.00608757
Pt       9.18314671       6.84302087       6.83855428        9       0.00000000      -0.11109141       0.03802670       0.01897684
Pt      11.88504135       6.84954045       6.85163854       10       0.00000000       0.02874035      -0.00406138      -0.00068349
