64
Lattice="9.825530876528271 0.0007193042960701074 -0.004632883981183374 4.913388374057582 8.51032108736805 -0.0027969791669674436 -0.003782733930471068 -0.00045305479470337693 8.390443364177843" Properties=species:S:1:pos:R:3:tags:I:1:initial_magmoms:R:1:forces:R:3 unique_id=6c9178f66a6c43cbb8da55c8a85806ef stress="-0.0002927043607021465 -7.001832894832877e-07 5.74176877794372e-06 -7.001832894832877e-07 -0.00029342078230264884 -2.896598558082308e-07 5.74176877794372e-06 -2.896598558082308e-07 -0.0002571193552124082" energy=-377.0698978229714 pbc="T T T"
Ni      -0.00061656      -0.00010261       0.22421189        4       1.00000000      -0.00574725      -0.00240669       0.14888267
Ni       2.45846188      -0.00839434       0.11240795        4       1.00000000      -0.01145664      -0.00978389       0.02002842
Ni       4.91127453       0.00046978       0.10444693        4       1.00000000      -0.00853784       0.00270790       0.01688276
Ni       7.36539502       0.01134781       0.10781132        4       1.00000000      -0.00122924       0.02185186      -0.00103783
Ni       1.20316688       2.07927692       0.11239063        4       1.00000000      -0.01340321      -0.03134717       0.00202668
Ni       3.70871440       2.07868398       0.11379250        4       1.00000000       0.00859253      -0.01482683       0.02764315
Ni       6.14725303       2.12104379       0.10819935        4       1.00000000      -0.01009252       0.00073458       0.00410915
Ni       8.58595829       2.12510949       0.10549520        4       1.00000000      -0.02295045      -0.01494200      -0.01532050
Pt       2.45108791       4.25613466       0.05429617        4       0.00000000       0.00209955       0.00221735      -0.20830343
Ni       4.96279466       4.25622286       0.22651314        4       1.00000000       0.00473923       0.00045876       0.17023905
Ni       7.36870940       4.25722028       0.10765957        4       1.00000000      -0.02405148       0.00702532       0.00849285
Ni       9.76904742       4.25696079       0.10301899        4       1.00000000      -0.03095100       0.00022737       0.00241910
Ni       3.70960511       6.42842374       0.11672853        4       1.00000000       0.01309925       0.01776584       0.01044722
Ni       6.15066704       6.38589924       0.11518959        4       1.00000000      -0.00595508      -0.00091975       0.01898438
Ni       8.58898762       6.38792742       0.10263944        4       1.00000000      -0.02018602       0.00702767       0.01359304
Ni      11.02475893       6.43113972       0.10280314        4       1.00000000      -0.01611960       0.02176282       0.01035160
Ni       1.23615054       0.70776399       2.14300971        3       1.00000000       0.02332728       0.00803525       0.07627595
Ni       3.68668500       0.69985074       2.13163162        3       1.00000000      -0.00112562      -0.00815210       0.03140322
Ni       6.13820670       0.70772508       2.12476595        3       1.00000000      -0.00515632      -0.00363246       0.01091512
Ni       8.58577934       0.71668443       2.13390662        3       1.00000000      -0.02220871       0.01527878       0.05735336
Ni       2.45421522       2.81048067       2.14941957        3       1.00000000       0.00699728       0.02159180      -0.06438904
Ni       4.91761644       2.82020352       2.13788482        3       1.00000000       0.00762395      -0.03495133       0.06794941
Ni       7.36959684       2.83719665       2.11788043        3       1.00000000      -0.00972330       0.00604037       0.00570846
Ni       9.81867563       2.83590105       2.11363593        3       1.00000000      -0.01174934      -0.01403452      -0.02934754
Ni       3.69528219       4.97979096       2.16178388        3       1.00000000      -0.03837639      -0.00466247       0.00171135
Ni       6.16030307       4.97201928       2.14455868        3       1.00000000       0.02553518       0.01669854       0.10115103
Ni       8.59244472       4.96836058       2.12631819        3       1.00000000       0.00656007       0.00971494       0.00816529
Ni      11.02802941       4.97866977       2.14806773        3       1.00000000       0.00827939      -0.00566195      -0.08914749
Ni       4.91853500       7.08746330       2.13779464        3       1.00000000       0.00558710      -0.03308025       0.09194157
Ni       7.37293667       7.09263015       2.12133318        3       1.00000000       0.00116077       0.00606412       0.02715368
Ni       9.81893952       7.09653851       2.12631317        3       1.00000000      -0.00656525      -0.00500621       0.01244748
Ni      12.27735789       7.09958070       2.11518003        3       1.00000000      -0.00034670       0.01730284      -0.01055723
Ni      -0.00352521       1.44085709       4.13153814        2       1.00000000      -0.00463783      -0.02433849       0.03117331
Ni       2.45429701       1.41284372       4.16213344        2       1.00000000       0.00277430       0.00968199      -0.02169930
Ni       4.91252456       1.40988936       4.16082263        2       1.00000000       0.00434743      -0.01486734      -0.00937940
Ni       7.36765682       1.41652350       4.15352684        2       1.00000000      -0.00255986       0.00586006      -0.02856317
Ni       1.20900707       3.54386629       4.13618729        2       1.00000000      -0.02804385      -0.01551976      -0.13065777
Ni       3.67103562       3.52781594       4.12366048        2       1.00000000       0.04001747      -0.00300995      -0.01255550
Ni       6.16340994       3.53278314       4.13023049        2       1.00000000      -0.01371102       0.00684023       0.05599749
Ni       8.59923456       3.55079182       4.14723161        2       1.00000000      -0.00027541      -0.00312069      -0.06141370
Ni       2.44285186       5.68475241       4.14198995        2       1.00000000      -0.01744852       0.03655644      -0.10572602
Ni       4.91434552       5.69391520       4.13883232        2       1.00000000      -0.00306636      -0.03000913       0.07118292
Ni       7.38024549       5.67301169       4.15578934        2       1.00000000       0.02246619       0.01047560      -0.01264183
Ni       9.82137691       5.67521347       4.16047273        2       1.00000000       0.00546818      -0.00341355      -0.04436381
Ni       3.66147576       7.79810451       4.12795138        2       1.00000000       0.02335857       0.01895942       0.02834326
Ni       6.16349820       7.79556213       4.12949193        2       1.00000000      -0.01611328       0.01097763       0.04978570
Ni       8.60279464       7.79814805       4.15496962        2       1.00000000       0.00051781      -0.00746868      -0.02362067
Ni      11.04444461       7.80122961       4.15113347        2       1.00000000      -0.00153179       0.00012281      -0.04427067
Pt      -0.00182780       0.01013493       6.23847224        1       0.00000000       0.00670318       0.00131161       0.17237752
Ni       2.50627202      -0.00410312       6.18173564        1       1.00000000       0.02226154      -0.00673091      -0.02364834
Ni       4.91120020      -0.01012347       6.18277266        1       1.00000000       0.00927698      -0.01702004      -0.01898355
Ni       7.31572467      -0.00434379       6.17768261        1       1.00000000      -0.00853393      -0.01192239      -0.04355270
Ni       1.24315201       2.17233254       6.17385338        1       1.00000000       0.00443587       0.03128744      -0.04619232
Ni       3.66553435       2.08201401       6.17497119        1       1.00000000       0.01070188      -0.01399528      -0.02452203
Ni       6.16072998       2.08223852       6.17833632        1       1.00000000       0.00869192      -0.01972150      -0.03447622
Ni       8.57721571       2.17276736       6.17493848        1       1.00000000       0.00913580       0.01998415      -0.05567778
Ni       2.40562127       4.25740732       6.05949427        1       1.00000000      -0.00215057       0.01209443      -0.18790460
Pt       4.91575617       4.24395687       6.23308492        1       0.00000000      -0.00089389      -0.00266565       0.20079101
Ni       7.42156412       4.25806544       6.17809205        1       1.00000000       0.02718036       0.01090767      -0.03770223
Ni       9.82319179       4.26311929       6.17251380        1       1.00000000       0.02034402       0.00697749      -0.03966187
Ni       3.62125862       6.38514601       6.16996889        1       1.00000000      -0.04581287      -0.00169713      -0.04977874
Ni       6.20217743       6.38508603       6.17561850        1       1.00000000       0.05166930       0.00125766      -0.03404728
Ni       8.61397846       6.38260467       6.18022166        1       1.00000000       0.04172633      -0.00132879      -0.01649118
Ni      11.03458777       6.38554696       6.17232937        1       1.00000000      -0.01396761      -0.00556383      -0.03029343
