64
Lattice="10.156922367220162 -0.0015207692413051082 0.013038432280283384 5.077144158813873 8.709548376402033 -0.08969272453751144 0.0 0.0 21.478459915366038" Properties=species:S:1:pos:R:3:tags:I:1:initial_magmoms:R:1:forces:R:3 unique_id=b1c3e18105b8475c894493a4273fc503 stress="0.002037273567317607 -2.641995696723268e-05 0.00019944580807629912 -2.641995696723268e-05 0.0013329076521953823 -0.0006147859335967419 0.00019944580807629912 -0.0006147859335967419 -0.005047810944928784" energy=-368.0712950239406 pbc="T T T"
Ni       0.04538942      -0.04996808       0.20331983        2       1.00000000       0.10115757       0.02900117      -0.47772311
Ni       2.49139308      -0.03709808       0.21086472        2       1.00000000       0.04076887       0.00413860      -0.18862776
Pt       5.09843552      -0.04012682       0.17933250        2       0.00000000      -0.12616222       0.16383208      -1.09259683
Ni       7.64100444      -0.03026913       0.19070989        2       1.00000000      -0.00373643       0.03700811      -0.65553725
Ni       1.26187803       2.18381761       0.10716151        1       1.00000000      -0.03748766      -0.01037953       0.30040730
Pt       3.76167091       2.23316235       0.18702226        2       0.00000000       0.00514694      -0.08422732      -0.80344793
Ni       6.35497143       2.21687857       0.10780892        1       1.00000000      -0.04921735      -0.02576445       0.08289038
Pt       8.89888427       2.21869035       0.00377853        0       0.00000000       0.05909011       0.03550678      -0.10805135
Ni       2.50668776       4.38659116       0.06425425        1       1.00000000       0.02860844       0.00539498       0.31368746
Ni       5.08194054       4.38003286       0.03467589        0       1.00000000      -0.10429595      -0.01761789       0.06228750
Ni       7.61250424       4.37544751       0.04404201        0       1.00000000       0.12702659      -0.00053303       0.02912103
Ni      10.18634616       4.37754917       0.07736848        1       1.00000000      -0.04703060       0.00051536       0.28227457
Ni       3.84391674       6.48695260       0.00082151        0       1.00000000       0.10115546      -0.02447058       0.08351449
Ni       6.34180160       6.53559276       0.02105416        0       1.00000000       0.01677756       0.06416014       0.13822412
Ni       8.84229642       6.46465055       0.12225263        1       1.00000000      -0.10032046      -0.04270730      -0.24066227
Ni      11.43194448       6.45552185       0.00000000        0       1.00000000      -0.06296385       0.00349205       0.05226540
Ni       1.31083222       0.72211917       2.20382505        4       1.00000000      -0.00042672       0.12606347       0.13687533
Ni       3.72995904       0.70542519       2.20826935        4       1.00000000      -0.14742678      -0.07354675       0.22601379
Ni       6.37782168       0.75023365       2.18532508        4       1.00000000       0.07698454       0.07563025       0.10971245
Pt       8.94204212       0.76785646       2.21743876        4       0.00000000       0.05040243      -0.00343746       0.14152876
Ni       2.49370918       2.90014273       2.23080291        4       1.00000000      -0.05289576      -0.04030894       0.14769815
Ni       5.07879801       2.89777150       2.16820210        4       1.00000000       0.06584236      -0.02047886       0.10116986
Ni       7.62737091       2.90068724       2.17240404        4       1.00000000       0.04520106       0.01379133       0.07469918
Ni      10.20481413       2.92532725       2.20353209        4       1.00000000       0.03224426      -0.01912215       0.12637841
Ni       3.79815386       4.99066575       2.13407728        3       1.00000000      -0.01750745      -0.13454957       0.04205083
Pt       6.35305547       5.08963447       2.10037158        3       0.00000000       0.03507664      -0.02077637      -0.02468926
Ni       8.90012107       4.98928226       2.15294347        4       1.00000000       0.02151808      -0.13983418       0.08836837
Ni      11.42201277       4.97559671       2.15795892        4       1.00000000      -0.02888275      -0.07689102       0.16128647
Ni       5.12677348       7.23750359       2.08591008        3       1.00000000      -0.02574820       0.04704345       0.08556071
Ni       7.58175955       7.26917436       2.12678964        3       1.00000000      -0.03250142       0.04854567       0.14380367
Pt      10.09154037       7.16316956       2.20169142        4       0.00000000       0.00591335      -0.16586135       0.20091131
Pt      12.70624692       7.13435379       2.07731867        3       0.00000000       0.03379486      -0.07236770       0.02218036
Ni       0.05281985       1.47081072       4.29675457        6       1.00000000       0.08289267       0.01636731      -0.07302071
Ni       2.48070132       1.42971237       4.23776224        5       1.00000000      -0.04220841      -0.02378286      -0.11504063
Pt       5.06255994       1.38923497       4.18427724        5       0.00000000       0.02290533      -0.06195792      -0.19385575
Ni       7.65001911       1.43163023       4.30839553        6       1.00000000       0.01920748      -0.04279425      -0.12641652
Ni       1.27183915       3.58981429       4.26806103        6       1.00000000       0.03678718      -0.02630795      -0.09921071
Ni       3.75794446       3.65338310       4.22019495        5       1.00000000      -0.02007897       0.03321745      -0.13383803
Pt       6.39388684       3.62634486       4.31202184        6       0.00000000       0.02116937       0.02481693       0.01616042
Ni       8.94993202       3.60305747       4.26967119        6       1.00000000       0.03618382       0.05602714      -0.14417018
Ni       2.51965511       5.69612233       4.26717756        6       1.00000000      -0.02902885      -0.01123373      -0.12775927
Ni       5.07676982       5.74832769       4.27521547        6       1.00000000       0.04369671      -0.01404541      -0.10152928
Ni       7.63988837       5.79028752       4.22846238        5       1.00000000       0.08364601       0.06024491      -0.10512813
Ni      10.18662558       5.69336805       4.26142125        6       1.00000000       0.00470146      -0.04847979      -0.05073653
Pt       3.85282365       7.88428605       4.21690832        5       0.00000000       0.02872323       0.03528236      -0.02434574
Ni       6.38328659       7.92242932       4.16302468        5       1.00000000       0.02846961       0.02717899      -0.11797345
Ni       8.82846844       7.90416890       4.20037825        5       1.00000000      -0.15006323       0.05419678      -0.15999967
Ni      11.44478524       7.87095437       4.21805525        5       1.00000000       0.04320503      -0.11087870      -0.12697646
Pt       0.01609335      -0.03681584       6.47845992        9       0.00000000      -0.10913330       0.13795563       0.30385552
Pt       2.52309348      -0.06093240       6.41413063        8       0.00000000       0.19224772       0.07403661       0.20202038
Pt       5.10063541      -0.08281869       6.33479814        7       0.00000000      -0.16197473      -0.09783752       1.19024114
Pt       7.62160213      -0.04626629       6.47351192        9       0.00000000       0.03076368       0.10626647       0.48713497
Ni       1.23911029       2.19630905       6.35732075        8       1.00000000       0.04022256       0.01622059      -0.16071729
Pt       3.78420009       2.26794378       6.32445444        7       0.00000000      -0.13983054       0.02535235       0.74467964
Ni       6.38426053       2.17823844       6.40840615        8       1.00000000      -0.04784532      -0.02017767       0.02881262
Ni       8.90281098       2.19692109       6.25828444        7       1.00000000      -0.00060621      -0.04105576       0.34943230
Ni       2.50503878       4.36066318       6.34203590        7       1.00000000       0.02183386      -0.06443311      -0.28905748
Ni       5.09269946       4.36814412       6.37721867        8       1.00000000      -0.08753379      -0.01422486      -0.06512421
Ni       7.61721160       4.25413487       6.39319630        8       1.00000000       0.09426385      -0.02330217      -0.02279330
Ni      10.20320967       4.24722895       6.35426904        8       1.00000000      -0.03532559      -0.00597589      -0.29790975
Ni       3.81222280       6.39872490       6.33944328        7       1.00000000      -0.00693888       0.05013802      -0.11949109
Ni       6.32167000       6.40703121       6.32721532        7       1.00000000       0.01120033       0.06040990      -0.19752068
Pt       8.89181116       6.32860177       6.36331956        8       0.00000000       0.03400007       0.05819750       0.07273402
Ni      11.46792225       6.39641911       6.32200332        7       1.00000000      -0.05565768       0.08932967      -0.10403027
