64
Lattice="10.234167513825005 0.023870137741015648 -0.054394911411206774 5.137755902588056 8.796045386309887 -0.087395105372233 -0.044413259187117186 -0.05675488838768805 8.722457264920823" Properties=species:S:1:pos:R:3:tags:I:1:initial_magmoms:R:1:forces:R:3 unique_id=f0470a299e384e1d8b6dbccef541e1ac stress="0.00013597630073821504 -3.339463731518903e-06 1.6911308593549532e-05 -3.339463731518903e-06 0.00015599488257590083 1.2272562986159108e-05 1.6911308593549532e-05 1.2272562986159108e-05 0.00015126267941508592" energy=-393.34924591483264 pbc="T T T"
Ni       0.03303232      -0.04655751       0.18477758        4       1.00000000       0.09700465      -0.08363757       0.28325440
Ni       2.52250880      -0.03394708       0.19012858        4       1.00000000      -0.09888485      -0.06619039       0.28226609
Ni       5.10721435      -0.02215958       0.13986015        4       1.00000000      -0.08988942      -0.01526495       0.23527865
Ni       7.66416981      -0.04760385       0.13461933        4       1.00000000      -0.04215070      -0.07371377       0.26131244
Ni       1.27858053       2.20008141       0.09003198        4       1.00000000      -0.00613998      -0.01803537       0.23973946
Pt       3.75522828       2.17228339       0.14788999        4       0.00000000      -0.13624625      -0.04576214       0.21289037
Pt       6.40707496       2.17274889       0.05212203        4       0.00000000       0.01370943      -0.02950046      -0.06674721
Pt       9.02872240       2.25700291       0.05999175        4       0.00000000       0.03815663       0.01513033       0.20739240
Ni       2.53148832       4.42320653       0.01940111        4       1.00000000      -0.04151953       0.04281767       0.00498437
Pt       5.11265354       4.50128958       0.03169504        4       0.00000000      -0.08567374       0.12658833      -0.12741649
Ni       7.68763124       4.45493452      -0.00266870        4       1.00000000      -0.07223654       0.09690963       0.09055166
Ni      10.27030718       4.44401051      -0.02548120        4       1.00000000       0.06647877       0.13944681       0.02113183
Ni       3.82431874       6.63220126       0.03768707        4       1.00000000      -0.07376258       0.10302562       0.15083895
Ni       6.42369406       6.64086366       0.03120303        4       1.00000000       0.00055405       0.05775143       0.10914702
Ni       8.94194141       6.60679240       0.05701038        4       1.00000000      -0.13945958       0.02364471       0.18029912
Ni      11.54642530       6.60756224      -0.04020824        4       1.00000000       0.03540079      -0.04792412      -0.02138050
Ni       1.29820225       0.72384871       2.19413232        3       1.00000000       0.00645441       0.00447553       0.15327684
Ni       3.77419260       0.73071053       2.17585880        3       1.00000000      -0.15909149      -0.02998093      -0.00194561
Ni       6.40078341       0.74286977       2.16457549        3       1.00000000       0.10035738       0.00012203       0.03733381
Pt       8.96643426       0.72738319       2.17094783        3       0.00000000       0.09743253       0.13401880      -0.07398016
Ni       2.54269508       2.89039192       2.22644864        3       1.00000000       0.05021282      -0.09962906       0.17311404
Ni       5.09849764       2.95944214       2.17257037        3       1.00000000      -0.11294863       0.16683731      -0.10117324
Ni       7.64694950       2.93251369       2.17409525        3       1.00000000       0.00477083      -0.05339738      -0.01452433
Ni      10.28488550       2.91588773       2.17736223        3       1.00000000       0.10702736      -0.08174716       0.15753868
Ni       3.86299201       5.13037371       2.17745194        3       1.00000000       0.06009042       0.03969473       0.13513496
Ni       6.37173440       5.16173081       2.13878997        3       1.00000000      -0.04212247       0.10783488       0.00223046
Pt       8.89844175       5.09685912       2.12885330        3       0.00000000      -0.02008526      -0.04055480       0.02189430
Pt      11.58573482       5.09006419       2.11699312        3       0.00000000       0.10346493      -0.11988785       0.04758766
Ni       5.15641570       7.27497303       2.09691893        3       1.00000000       0.02129124      -0.10891453      -0.00124781
Ni       7.60649992       7.33890436       2.07672073        3       1.00000000      -0.13371196      -0.05854217       0.05603098
Pt      10.27572344       7.36723117       2.05584557        3       0.00000000       0.06491287      -0.01750931       0.05552593
Ni      12.82517944       7.31169587       2.04748307        3       1.00000000       0.08825270      -0.12738057      -0.00467356
Ni       0.03774483       1.46877346       4.29860697        2       1.00000000       0.10377561      -0.01219018      -0.02786386
Ni       2.47201019       1.48296500       4.25953820        2       1.00000000      -0.03589079       0.03745678      -0.06043441
Pt       5.11117596       1.46055031       4.19662351        2       0.00000000      -0.12367918       0.00602474       0.04419044
Ni       7.66678443       1.46205644       4.25480079        2       1.00000000       0.04208024      -0.02993671      -0.06957352
Ni       1.27150028       3.62673927       4.33003833        2       1.00000000       0.04927133      -0.02955392      -0.02149029
Ni       3.77676569       3.70994688       4.24482060        2       1.00000000      -0.04411453       0.08866445      -0.18887240
Pt       6.41173019       3.71580399       4.25735762        2       0.00000000       0.00193396      -0.03788943      -0.12006349
Ni       8.98416609       3.68259394       4.23269158        2       1.00000000       0.11554944       0.01430501      -0.09660598
Ni       2.54862742       5.79242035       4.31792580        2       1.00000000      -0.00475727      -0.08388451      -0.02447704
Ni       5.10572113       5.83507406       4.26644371        2       1.00000000       0.02105989      -0.03637299      -0.15841575
Ni       7.63399895       5.84636751       4.25190500        2       1.00000000      -0.08341086       0.09434832      -0.07779767
Ni      10.26997638       5.80165282       4.27034115        2       1.00000000       0.10258174      -0.05479546      -0.00519395
Pt       3.84123743       7.95163229       4.21105388        2       0.00000000      -0.02180650      -0.08256611       0.12390760
Ni       6.37717340       8.01643629       4.19091149        2       1.00000000      -0.08314112      -0.01708748      -0.14117646
Pt       8.88997502       8.00563738       4.16394090        2       0.00000000      -0.09385256      -0.03326037       0.10495015
Ni      11.52560939       8.00086129       4.19612613        2       1.00000000       0.02519881      -0.10991394      -0.02620054
Pt      -0.01923261      -0.08179311       6.50048222        1       0.00000000       0.12888656      -0.06688226       0.12990925
Pt       2.50508642      -0.02705808       6.48515380        1       0.00000000      -0.09093141       0.04722340       0.17317451
Pt       5.10738133      -0.04655117       6.48601228        1       0.00000000       0.10590083       0.02346683       0.01387525
Pt       7.64420856      -0.06988128       6.45072872        1       0.00000000      -0.08272702      -0.05767873       0.10252808
Ni       1.24834382       2.22455959       6.41078233        1       1.00000000       0.03131172       0.09959673      -0.17812679
Pt       3.78352711       2.29460126       6.35638301        1       0.00000000       0.02838451       0.25709156      -0.28925367
Ni       6.37961811       2.22012809       6.34283925        1       1.00000000      -0.00383415       0.07467728      -0.26852972
Pt       8.94572088       2.27426806       6.28135135        1       0.00000000       0.02523045       0.11689249      -0.37167737
Ni       2.50760026       4.41118115       6.38427992        1       1.00000000      -0.02770650       0.12554930      -0.22964058
Ni       5.10086105       4.42261869       6.31949448        1       1.00000000      -0.03067354       0.13726778      -0.27077217
Ni       7.61653361       4.37723079       6.38845866        1       1.00000000      -0.13896854      -0.01046802      -0.13208040
Ni      10.28341795       4.37342481       6.34669375        1       1.00000000       0.26200272      -0.02268754      -0.23078938
Ni       3.82158489       6.47500633       6.39040529        1       1.00000000       0.02184971      -0.16082659      -0.09732140
Ni       6.35716439       6.49944097       6.36478745        1       1.00000000      -0.00834411      -0.04579148      -0.19150153
Pt       8.94334704       6.43450398       6.39676651        1       0.00000000       0.05434396      -0.13599598       0.08430117
Ni      11.53155484       6.50125620       6.33558142        1       1.00000000       0.05282776      -0.03550828      -0.20464359
