64
Lattice="10.18399329675932 0.004687468085647819 -0.009774581339178643 5.096056114821317 8.726755330546082 -0.05356292897000146 0.0 0.0 21.468920309507652" Properties=species:S:1:pos:R:3:tags:I:1:initial_magmoms:R:1:forces:R:3 unique_id=57db5a0d01594b9290c7b9230d674f29 stress="0.0021742738148518587 -3.0754587330261197e-06 6.139889384759883e-05 -3.0754587330261197e-06 0.0012538226942839757 3.3565079056560046e-05 6.139889384759883e-05 3.3565079056560046e-05 -0.005104054866327716" energy=-369.1165131787787 pbc="T T T"
Ni       0.04535079      -0.06039149       0.16954973        2       1.00000000       0.07597014      -0.02528013      -0.45286461
Ni       2.48622568      -0.04054697       0.18082947        2       1.00000000       0.02912460      -0.01742828      -0.27188848
Pt       5.08011155      -0.06129266       0.11442349        1       0.00000000      -0.08167015       0.29218671      -1.10868037
Ni       7.65402879      -0.06762233       0.13725181        1       1.00000000      -0.10006131      -0.04330444      -0.48871487
Ni       1.27163044       2.19487105       0.08311878        1       1.00000000      -0.02423306       0.03771931       0.23533090
Pt       3.72883410       2.24547190       0.13494262        1       0.00000000       0.13417253      -0.07586441      -0.57714509
Pt       6.37721721       2.25929778       0.05167041        1       0.00000000      -0.05772904      -0.07258988      -0.19268884
Pt       8.98724146       2.24675694       0.08983131        1       0.00000000      -0.03465388       0.18725294      -0.99551613
Ni       2.51913753       4.41293643       0.04638759        0       1.00000000       0.03910071       0.03200118       0.37712097
Ni       5.08412358       4.45056189       0.04929796        0       1.00000000      -0.07157835       0.03761800       0.27849683
Ni       7.63496843       4.44226309       0.05319962        1       1.00000000       0.04867288      -0.00243338       0.23335126
Ni      10.22624855       4.41404124       0.04647982        0       1.00000000       0.00334547       0.05573663       0.35906511
Ni       3.82880608       6.52211309       0.03745501        0       1.00000000       0.03470365       0.01875398       0.30254529
Ni       6.35444885       6.53183203       0.03940123        0       1.00000000      -0.00469243       0.05813938       0.29954006
Ni       8.86645867       6.48516326       0.10385525        1       1.00000000      -0.08962198       0.00245717      -0.28244557
Ni      11.50482570       6.48434472       0.00000000        0       1.00000000       0.03987918       0.04348046       0.17154177
Ni       1.31886212       0.71496302       2.13157493        3       1.00000000       0.03506722       0.05756975       0.15944595
Ni       3.78041776       0.75192504       2.17393066        4       1.00000000      -0.02419693       0.02743062       0.20068573
Ni       6.34719417       0.74711365       2.20030353        4       1.00000000      -0.06492391       0.07019629       0.23106465
Pt       8.89290486       0.69157915       2.13206306        3       0.00000000      -0.02251536      -0.11334717       0.13215862
Ni       2.51278067       2.93389060       2.20120625        4       1.00000000       0.00622199       0.01970174       0.11363609
Ni       5.06514106       2.93576620       2.17022329        4       1.00000000      -0.04134328       0.03787501       0.08269772
Ni       7.64275274       2.95566924       2.16908449        4       1.00000000      -0.01437409       0.01877825       0.12891211
Ni      10.23822474       2.97507719       2.14616297        3       1.00000000       0.05917432       0.05530904       0.13381401
Ni       3.81832672       5.07334575       2.11566343        3       1.00000000       0.02598596      -0.06563901       0.06154328
Ni       6.35958740       5.09989565       2.08842583        3       1.00000000      -0.01810231      -0.05940503       0.03429038
Ni       8.88487703       5.03681311       2.12010847        3       1.00000000      -0.04257498      -0.08800189       0.10493511
Ni      11.49944922       5.02801241       2.11828924        3       1.00000000       0.09786497      -0.08283663       0.15591320
Ni       5.12987436       7.19101389       2.07475661        3       1.00000000      -0.02596986      -0.09717270       0.09706503
Ni       7.57715423       7.22641305       2.07133978        3       1.00000000      -0.03275203      -0.08412867       0.11584875
Pt      10.23002701       7.15182122       2.12163877        3       0.00000000       0.04286845      -0.22687304       0.08380757
Ni      12.74486042       7.17831278       2.05932377        3       1.00000000       0.07623925      -0.12765096       0.07069104
Pt       0.09064784       1.49112843       4.22084865        6       0.00000000       0.14145942      -0.10975973       0.00237326
Ni       2.57003568       1.49013526       4.19262453        6       1.00000000       0.09211845       0.04981024      -0.21270878
Ni       5.09356818       1.45601690       4.18093704        6       1.00000000      -0.02220499      -0.01826353      -0.30483744
Ni       7.59126740       1.43163324       4.22921750        6       1.00000000      -0.06530207      -0.09200813      -0.21601590
Ni       1.30781525       3.66886789       4.25144408        7       1.00000000       0.06491023       0.00112320      -0.08031914
Ni       3.78168106       3.67464199       4.17939894        6       1.00000000      -0.00541937       0.10262176      -0.20156649
Pt       6.35217489       3.64051294       4.22025295        6       0.00000000       0.00618287      -0.02482025      -0.02970634
Ni       8.92722192       3.70045113       4.18775508        6       1.00000000       0.03101187       0.09180203      -0.17726095
Ni       2.52151504       5.73277536       4.23190844        6       1.00000000      -0.02812457      -0.02220851      -0.15841527
Ni       5.09097915       5.76559421       4.22850559        6       1.00000000       0.02030453      -0.03922230      -0.16464218
Ni       7.61419121       5.78471506       4.19097123        6       1.00000000      -0.02998976       0.01844963      -0.18063016
Ni      10.22493241       5.73555777       4.23492008        6       1.00000000       0.02246372       0.02178609      -0.08733432
Pt       3.80887054       7.85729154       4.18094304        6       0.00000000       0.04153508       0.01753800      -0.00097783
Ni       6.35678214       7.91421372       4.16090047        6       1.00000000      -0.04298666      -0.08602588      -0.18382473
Pt       8.84984801       7.97088582       4.13540360        5       0.00000000      -0.09607809      -0.00168915      -0.10903111
Ni      11.46917013       7.94250421       4.17399123        6       1.00000000       0.00052191      -0.10429428      -0.21364248
Pt       0.00176253      -0.09713207       6.46892031       10       0.00000000      -0.16474206       0.07551812       0.38079761
Pt       2.51361758      -0.02071232       6.43772344        9       0.00000000       0.19421244       0.09209786       0.27360356
Pt       5.11446560      -0.01885331       6.28293229        8       0.00000000      -0.10498133       0.12033190       1.08079240
Pt       7.62506500      -0.07948984       6.41821688        9       0.00000000       0.10044820       0.18313193       0.41650344
Ni       1.27853396       2.23004779       6.37668622        9       1.00000000       0.02778436       0.04644631      -0.02808298
Pt       3.80831494       2.29498488       6.25990184        8       0.00000000      -0.00654576      -0.11612496       0.56903036
Ni       6.35270494       2.20574164       6.27898183        8       1.00000000      -0.00536646      -0.03314117       0.33618112
Pt       8.88749799       2.27722384       6.27219350        8       0.00000000      -0.15030590      -0.10678409       1.02269617
Ni       2.51874861       4.39326298       6.33172316        8       1.00000000       0.04811007      -0.02578546      -0.32125547
Ni       5.09539066       4.40029289       6.35382063        9       1.00000000      -0.06082924      -0.00854329      -0.22910632
Ni       7.56201160       4.34940756       6.35913493        9       1.00000000      -0.04312239      -0.01786791      -0.10044627
Ni      10.26558372       4.33702831       6.32909893        8       1.00000000       0.03741455      -0.01050270      -0.24038194
Ni       3.81110535       6.41162757       6.35376913        9       1.00000000       0.00940976      -0.01495169      -0.22235314
Ni       6.33437741       6.44349422       6.33003771        8       1.00000000      -0.00163438       0.06914282      -0.25925828
Pt       8.91231887       6.38066372       6.37521069        9       0.00000000       0.00263264       0.01898276       0.06411386
Ni      11.48957697       6.44431932       6.31061260        8       1.00000000      -0.01028542       0.05295952      -0.21785176
