64
Lattice="10.219517106822785 -0.010379096213069572 0.029961396945983713 5.100769992422546 8.78480559240542 0.01776245774952472 0.0244633781662143 0.0026226677974200497 8.735695469617552" Properties=species:S:1:pos:R:3:tags:I:1:initial_magmoms:R:1:forces:R:3 unique_id=a8a2e5e0ffa94c129e78d5780f896a31 stress="-6.27530175699928e-05 2.0659889913312007e-06 -1.2713883364537499e-05 2.0659889913312007e-06 -6.174002351697072e-05 5.138343050139707e-06 -1.2713883364537499e-05 5.138343050139707e-06 -2.5009634239875345e-05" energy=-393.06380139372277 pbc="T T T"
Ni       0.00517450       0.02680010       0.17434996        4       1.00000000       0.02393033       0.09315077       0.28199786
Ni       2.52286314       0.01321677       0.21756502        4       1.00000000      -0.05582632       0.09975965       0.43086276
Pt       5.10788299      -0.03941080       0.15526498        4       0.00000000       0.00210426      -0.06668393       0.35401771
Ni       7.70405244      -0.04823952       0.20784640        4       1.00000000       0.03743813      -0.08342604       0.34356990
Ni       1.23567671       2.20661858       0.11506181        4       1.00000000      -0.10565338       0.05749503       0.22426678
Pt       3.75291091       2.25607785       0.19779127        4       0.00000000      -0.08975878       0.11816022       0.23125455
Pt       6.43154256       2.19611877       0.12800622        4       0.00000000       0.12451703       0.09613606      -0.00483161
Ni       8.99629665       2.19049582       0.17665740        4       1.00000000       0.12336089       0.06696380       0.17108255
Ni       2.54289655       4.42927204       0.07671477        4       1.00000000       0.03949874       0.10230122       0.01565090
Ni       5.07132477       4.42672633       0.11871120        4       1.00000000      -0.02206306       0.09408868       0.20420299
Pt       7.73974983       4.41325664       0.11390709        4       0.00000000       0.12311843       0.03162744      -0.11028828
Ni      10.25828030       4.37717407       0.10640825        4       1.00000000       0.16518823      -0.03092424       0.08028707
Ni       3.79332253       6.58117183       0.11606951        4       1.00000000      -0.05453197      -0.02167016       0.15386385
Pt       6.34040322       6.63425642       0.11594334        4       0.00000000      -0.05620111       0.05479358      -0.25748699
Ni       8.95487212       6.57037465       0.10200299        4       1.00000000       0.03520280       0.01077249       0.02680046
Ni      11.52738680       6.54483362       0.10307122        4       1.00000000       0.09423833      -0.05518476       0.02759997
Ni       1.29114275       0.73289696       2.18171862        3       1.00000000      -0.05086211       0.00293476       0.07129503
Ni       3.81371127       0.74809963       2.23216780        3       1.00000000       0.06187372      -0.00060908       0.03063070
Ni       6.39593349       0.76707415       2.25837082        3       1.00000000      -0.05653220       0.09351148       0.10335625
Pt       8.96495548       0.75753098       2.21487362        3       0.00000000      -0.01982668       0.07737753       0.15083236
Ni       2.54250036       2.93423001       2.23616532        3       1.00000000       0.02400591       0.01095891       0.02818827
Ni       5.10627272       2.95395573       2.25630084        3       1.00000000      -0.07762904       0.05303190       0.02366057
Ni       7.68287297       2.94710428       2.26402597        3       1.00000000       0.06585479       0.09614211       0.06419955
Ni      10.22484057       2.91985218       2.23627227        3       1.00000000       0.02734009       0.02991474       0.13449923
Ni       3.87009360       5.12056775       2.21317705        3       1.00000000       0.11607294      -0.00999727       0.05410887
Ni       6.37141806       5.12971514       2.24138896        3       1.00000000      -0.01215087       0.06495509      -0.05157678
Ni       8.91754859       5.08426523       2.26871385        3       1.00000000      -0.08254048      -0.17323273       0.20473093
Pt      11.54086253       5.04900193       2.24188053        3       0.00000000       0.10992751      -0.08218905       0.10950074
Ni       5.12035338       7.28837509       2.22394945        3       1.00000000       0.04226369      -0.11736594      -0.00178343
Ni       7.61323150       7.30636872       2.22718879        3       1.00000000      -0.17091174      -0.13055570       0.01521314
Pt      10.18629200       7.24071418       2.22538028        3       0.00000000      -0.07909716      -0.07787789      -0.23248153
Ni      12.81428775       7.27969745       2.19278539        3       1.00000000       0.10522183      -0.17733802      -0.03704081
Ni       0.00286097       1.51434888       4.32351867        2       1.00000000      -0.08357344       0.10188950      -0.02102749
Pt       2.50085331       1.52442087       4.26158501        2       0.00000000      -0.03297608       0.01033948       0.17887862
Ni       5.13447213       1.49054483       4.30920197        2       1.00000000      -0.07675727      -0.00186347      -0.15302328
Ni       7.68336024       1.49343877       4.34674363        2       1.00000000       0.04351355       0.01769048      -0.02629109
Ni       1.26011146       3.69534843       4.38198562        2       1.00000000      -0.07439137       0.02384525       0.05975580
Ni       3.83022389       3.73310754       4.31251443        2       1.00000000      -0.05584905       0.08794442      -0.18626425
Pt       6.39318397       3.68256530       4.33660591        2       0.00000000      -0.01680178      -0.05692131      -0.06721358
Ni       8.97959329       3.68706290       4.33778416        2       1.00000000       0.03534549       0.03040276      -0.18892879
Ni       2.57471672       5.79082552       4.38193468        2       1.00000000       0.03446109      -0.10226589      -0.05645826
Ni       5.12394821       5.83300358       4.35783739        2       1.00000000       0.02896992      -0.08554549      -0.18345010
Ni       7.65995289       5.82725387       4.36462757        2       1.00000000      -0.01668567      -0.07631298      -0.22722047
Ni      10.21656180       5.77556580       4.41998093        2       1.00000000      -0.02704723      -0.07378119      -0.01477857
Pt       3.90434383       7.98577433       4.30487015        2       0.00000000       0.04177320      -0.12089980       0.16061847
Ni       6.38211519       8.00228163       4.31540509        2       1.00000000      -0.04448582      -0.08357520      -0.15974917
Pt       8.86834618       7.98206516       4.32214144        2       0.00000000      -0.02793630      -0.00717538       0.07003309
Pt      11.53904310       8.00805359       4.30919849        2       0.00000000      -0.00479724      -0.06226516       0.05262222
Pt       0.03179947      -0.03535765       6.51252693        1       0.00000000       0.04525369      -0.06792582       0.10550037
Pt       2.55225035      -0.05320755       6.54805321        1       0.00000000      -0.06899950      -0.07448539       0.27184363
Pt       5.12237340      -0.03251162       6.43734004        1       0.00000000       0.07668053      -0.04714989      -0.42114556
Pt       7.68103236      -0.04638203       6.56265253        1       0.00000000      -0.06317768      -0.09931606       0.14478350
Ni       1.28325569       2.26642981       6.47456683        1       1.00000000      -0.01124573       0.16598519      -0.11573976
Pt       3.84889411       2.31734585       6.41972426        1       0.00000000      -0.01362575       0.20483792      -0.26913064
Ni       6.40768712       2.23927241       6.41341995        1       1.00000000       0.01670392       0.07996117      -0.23892708
Pt       8.96973768       2.29931426       6.48119778        1       0.00000000      -0.01303789       0.15558844       0.02673403
Ni       2.53783382       4.44234074       6.45949378        1       1.00000000      -0.09196358       0.07011625      -0.20272931
Ni       5.12931746       4.44724452       6.47683155        1       1.00000000       0.02352504       0.13729220      -0.13098513
Ni       7.66939728       4.43758103       6.41045565        1       1.00000000      -0.01474336       0.10860403      -0.24843068
Ni      10.25950995       4.42986221       6.47949374        1       1.00000000       0.05361224       0.07565007      -0.14966729
Ni       3.83837299       6.50249643       6.48251249        1       1.00000000      -0.01816412      -0.18826974      -0.12662485
Ni       6.39071747       6.51698150       6.39450831        1       1.00000000      -0.00505418      -0.06937853      -0.34772873
Ni       8.95393649       6.49283656       6.49014130        1       1.00000000      -0.01192871      -0.19911165      -0.19387953
Ni      11.50633556       6.50030226       6.50452912        1       1.00000000      -0.01416966      -0.08092485      -0.18155968
