64
Lattice="10.215987982032782 0.02480481913066919 -0.046175466418390786 5.129475594519829 8.775060148846226 -0.06896209615411941 0.0 0.0 21.52883640802604" Properties=species:S:1:pos:R:3:tags:I:1:initial_magmoms:R:1:forces:R:3 unique_id=c0fe801aceb844048c47e7b0f5c78d80 energy=-369.81323252294555 stress="0.0050500545342235074 3.487936960703682e-05 -0.00019243550799755342 3.487936960703682e-05 0.004157786005012815 2.8527165674774853e-05 -0.00019243550799755342 2.8527165674774853e-05 -0.0015226326415847813" pbc="T T T"
Ni       0.03702575      -0.05724916       0.19303096        2       1.00000000       0.08243383      -0.04385238      -0.30957684
Ni       2.49166266      -0.03095513       0.19323249        2       1.00000000      -0.00746102      -0.03436456      -0.15428323
Pt       5.09450796      -0.04837883       0.12987849        1       0.00000000      -0.11210123       0.10700175      -0.94373075
Ni       7.67516404      -0.04820133       0.13218599        1       1.00000000      -0.06944774      -0.06045067      -0.35919441
Ni       1.27518110       2.20529848       0.10436227        1       1.00000000      -0.01619182       0.05014024       0.32039522
Pt       3.74334489       2.25953868       0.15792806        2       0.00000000       0.03365723      -0.00339004      -0.47309034
Pt       6.39776091       2.27675666       0.06351838        1       0.00000000      -0.00929468       0.00904826      -0.16855365
Pt       9.01358383       2.27237845       0.08395017        1       0.00000000      -0.01502948       0.13318509      -0.72280895
Ni       2.53145710       4.43508831       0.06883983        1       1.00000000       0.02377780       0.03628759       0.45086174
Ni       5.10721883       4.47147028       0.06132479        1       1.00000000      -0.09108843       0.08991164       0.35464508
Ni       7.66494691       4.47006116       0.05513607        1       1.00000000       0.04130035       0.03972164       0.31088142
Ni      10.25892379       4.44486541       0.04021052        0       1.00000000       0.02812645       0.08918414       0.42207081
Ni       3.84799258       6.55862432       0.05764574        1       1.00000000       0.02946786       0.00041665       0.39557743
Ni       6.38429705       6.57380023       0.05304015        1       1.00000000      -0.02477745       0.04461370       0.36040504
Ni       8.90822937       6.53356444       0.10083936        1       1.00000000      -0.09569994      -0.01209496      -0.14849614
Ni      11.54565397       6.53699869       0.00000000        0       1.00000000       0.03018156       0.02176760       0.24357277
Ni       1.31050037       0.72058509       2.16849689        4       1.00000000       0.00412628       0.06181455       0.12735804
Ni       3.75727926       0.73869113       2.18131279        4       1.00000000      -0.13434448      -0.04526482       0.06640011
Ni       6.39473857       0.74680626       2.18282304        4       1.00000000      -0.00469623      -0.01929584       0.11449087
Pt       8.92303555       0.70612355       2.14722231        3       0.00000000       0.01451606       0.00862563      -0.15903435
Ni       2.51122866       2.95296853       2.23663281        4       1.00000000       0.05547073       0.02019865       0.11681013
Ni       5.09201040       2.99044354       2.17109744        4       1.00000000      -0.06835169       0.18629851      -0.01080245
Ni       7.66716976       2.98839607       2.18825477        4       1.00000000       0.04734209       0.03377596       0.09436023
Ni      10.26798633       3.00468481       2.15598861        4       1.00000000       0.04024980       0.07677572       0.08065095
Ni       3.83010030       5.10873690       2.14663614        3       1.00000000      -0.00543742      -0.03659425       0.07310800
Ni       6.38505086       5.14200352       2.10837288        3       1.00000000      -0.01246555       0.00302203       0.00630484
Ni       8.91861195       5.08071338       2.13052242        3       1.00000000      -0.06907095      -0.12330798       0.10794619
Ni      11.53253719       5.07696776       2.11914153        3       1.00000000       0.15213472      -0.15256338       0.16358182
Ni       5.15158984       7.24002979       2.10365886        3       1.00000000      -0.02013194      -0.15262297       0.06805189
Ni       7.60446117       7.27677010       2.08440224        3       1.00000000      -0.06215303      -0.11955797       0.08517762
Pt      10.26628543       7.19856196       2.14374856        3       0.00000000       0.02083263      -0.12309139      -0.12245745
Ni      12.78911974       7.24492123       2.06111073        3       1.00000000       0.08819291      -0.21186596       0.03347214
Pt       0.07288989       1.49925922       4.27145310        6       0.00000000       0.10527715      -0.02540924       0.12355126
Ni       2.53663255       1.49231487       4.25084783        6       1.00000000       0.10763922       0.08148312      -0.21285617
Pt       5.10234422       1.47731545       4.18299223        5       0.00000000      -0.01855305      -0.04292161      -0.11983503
Ni       7.64377012       1.46303371       4.25917398        6       1.00000000       0.04021343      -0.04775642      -0.23089647
Ni       1.29916759       3.68825854       4.30552970        6       1.00000000       0.09059678       0.00912168      -0.09624736
Ni       3.77457172       3.72172143       4.24106245        5       1.00000000       0.00146353       0.10567076      -0.20130213
Pt       6.40149435       3.72469750       4.26057928        6       0.00000000       0.01651241      -0.02901288      -0.02295975
Ni       8.95737227       3.73484882       4.21843167        5       1.00000000       0.07474750       0.10892790      -0.17903127
Ni       2.52672022       5.76993294       4.28986063        6       1.00000000      -0.04055826      -0.02241332      -0.18957628
Ni       5.10052953       5.81535273       4.27616952        6       1.00000000       0.00982776      -0.03784850      -0.18640626
Ni       7.63919413       5.83185681       4.22927884        5       1.00000000      -0.01836483       0.04889485      -0.22921928
Ni      10.25473599       5.77699370       4.25815212        6       1.00000000       0.04471953      -0.01589812      -0.05470743
Pt       3.82344398       7.90524690       4.21884375        5       0.00000000       0.00474331      -0.04868752       0.07237593
Ni       6.37121435       7.96584645       4.20299447        5       1.00000000      -0.07084283      -0.12047603      -0.22014456
Pt       8.86162594       7.98133065       4.16603745        5       0.00000000      -0.08410586       0.01219863      -0.08030557
Ni      11.51226684       7.97494120       4.20330862        5       1.00000000       0.00394563      -0.12310929      -0.13118908
Pt      -0.02027844      -0.09296173       6.52883641        9       0.00000000       0.00397423       0.04786795       0.29111701
Pt       2.50764838      -0.01530104       6.48667850        9       0.00000000      -0.00899912       0.09570149       0.25595993
Pt       5.10325401      -0.03395712       6.37884580        8       0.00000000       0.07299652      -0.01187428       1.00309151
Pt       7.63662494      -0.05930072       6.45418095        9       0.00000000      -0.07676118       0.12919091       0.31853595
Ni       1.25932280       2.23940489       6.44332876        8       1.00000000       0.04858913       0.06660605      -0.08144150
Pt       3.78688397       2.31327907       6.36398739        8       0.00000000      -0.08716261       0.07519762       0.52313503
Ni       6.36367804       2.23300244       6.34545919        7       1.00000000       0.00604558       0.00684432       0.26214183
Pt       8.90656524       2.30109476       6.32675431        7       0.00000000      -0.11593122      -0.03959713       0.77586050
Ni       2.51190266       4.42265367       6.39685881        8       1.00000000       0.05999789      -0.03892022      -0.36335711
Ni       5.10260120       4.42936086       6.40789346        8       1.00000000      -0.07602476       0.00186527      -0.26995220
Ni       7.58837716       4.38574804       6.41040461        8       1.00000000      -0.05894737      -0.03284970      -0.09308243
Ni      10.28006419       4.37697072       6.36748669        8       1.00000000       0.08320825      -0.02689249      -0.29633709
Ni       3.81925864       6.45709018       6.41117099        8       1.00000000      -0.00126598      -0.06729333      -0.28287630
Ni       6.34918289       6.48728917       6.38367217        8       1.00000000      -0.01157715       0.05279787      -0.30436303
Pt       8.93089817       6.42540418       6.41437956        8       0.00000000       0.03112466      -0.05402191       0.06212083
Ni      11.52156392       6.49518890       6.34955644        7       1.00000000      -0.01059552       0.06914143      -0.26589725
