64
Lattice="10.33355220913284 0.0068367253360506796 0.0247533667099489 5.172696882386139 8.906971069067572 0.019467356876251805 0.0 0.0 21.595354234092284" Properties=species:S:1:pos:R:3:tags:I:1:initial_magmoms:R:1:forces:R:3 unique_id=22c67c2e975e45d7ad493d1871b3f76e stress="0.005900570671577682 0.00017730901777132337 0.0002681165795318311 0.00017730901777132337 0.006022098057245933 0.00017093783498053967 0.0002681165795318311 0.00017093783498053967 -0.001421639161089075" energy=-377.14275884796643 pbc="T T T"
Ni       0.01115238       0.00545576       0.11907610        1       1.00000000       0.11886967       0.04006453      -0.02181663
Ni       2.58265898       0.01238700       0.14720741        1       1.00000000      -0.03068712       0.05383075       0.11890172
Ni       5.16425564      -0.01660983       0.10836915        1       1.00000000      -0.04645200       0.09111931      -0.32080803
Ni       7.75013673      -0.05157332       0.14504353        1       1.00000000      -0.05041936      -0.09131554      -0.10064473
Ni       1.30010668       2.23383457       0.05523419        1       1.00000000       0.01840308      -0.02544430       0.44540116
Pt       3.78937749       2.18951275       0.13876928        1       0.00000000       0.03044866       0.01149022      -0.24327338
Pt       6.46248543       2.14563229       0.07217260        1       0.00000000       0.04792916      -0.04576003      -0.08481860
Pt       9.14148649       2.23200210       0.08768768        1       0.00000000       0.00772990       0.07772349      -0.48614930
Ni       2.54094918       4.47686398       0.01355614        0       1.00000000       0.01864078      -0.03853385       0.20636493
Pt       5.12809200       4.47994671       0.10061195        1       0.00000000       0.12363569      -0.06646467      -0.84343466
Pt       7.80691800       4.49880907       0.00000000        0       0.00000000      -0.09201725      -0.00159366      -0.28094808
Ni      10.39260174       4.48582846       0.03205653        0       1.00000000       0.05563715      -0.01157847       0.15919552
Ni       3.82743592       6.72246216       0.05024081        1       1.00000000      -0.02276687       0.07976531       0.35849404
Pt       6.46852487       6.78735688       0.15754037        2       0.00000000       0.00692036      -0.00435693      -0.46037099
Ni       9.08477493       6.71869286       0.04068391        0       1.00000000      -0.02809702       0.08104698       0.14285970
Ni      11.64866724       6.69141186       0.04102011        0       1.00000000       0.09572563       0.06614318       0.28416165
Ni       1.32866189       0.75607544       2.18766832        4       1.00000000       0.07062273       0.09269391       0.21993858
Ni       3.84649279       0.77172687       2.20902377        4       1.00000000      -0.10496622       0.14235190       0.27067881
Ni       6.45633831       0.77612857       2.20979080        4       1.00000000      -0.02940189       0.16944129       0.25074022
Pt       9.06220276       0.75078739       2.21882316        4       0.00000000       0.03567495       0.18668845       0.02202783
Ni       2.56649259       2.92017941       2.23558727        4       1.00000000      -0.06272457      -0.15996606       0.33179815
Ni       5.16993223       2.92741523       2.23936691        4       1.00000000      -0.09872198      -0.11678940       0.24990029
Ni       7.73996731       2.95370482       2.22386770        4       1.00000000      -0.00993648      -0.04844206       0.11499305
Ni      10.38387280       2.94525578       2.24035227        4       1.00000000       0.12603314      -0.15542824       0.26083872
Pt       3.86616619       5.20186709       2.22789024        4       0.00000000      -0.00259496      -0.10348264      -0.10129489
Ni       6.47698571       5.20108971       2.21055708        4       1.00000000       0.02310816      -0.05552155       0.09778405
Pt       9.00438255       5.17387695       2.24655405        4       0.00000000      -0.10949965      -0.12953665      -0.02506913
Pt      11.63973102       5.14576840       2.17279262        4       0.00000000      -0.10776245      -0.11055266       0.08479038
Ni       5.19680251       7.45240011       2.19766355        4       1.00000000       0.05755736       0.06804540       0.18829087
Ni       7.72795251       7.47347259       2.22026052        4       1.00000000      -0.13077005       0.13148069       0.23310716
Pt      10.33724406       7.48192569       2.11653346        3       0.00000000      -0.02164063      -0.02322845      -0.07137228
Ni      12.93663694       7.43570008       2.17184611        4       1.00000000       0.01861344       0.01093930       0.03598662
Ni       0.06773102       1.53535338       4.31624184        5       1.00000000       0.20083027       0.05627734      -0.22208615
Ni       2.54870747       1.53144336       4.29716993        5       1.00000000      -0.12348108       0.03089896      -0.28081759
Ni       5.16320985       1.51645624       4.31507689        5       1.00000000      -0.12114244       0.01692768      -0.34364269
Ni       7.76877967       1.51264920       4.34065955        5       1.00000000       0.05196883      -0.09440766      -0.27859930
Ni       1.32415492       3.66194144       4.37232903        6       1.00000000       0.05539652      -0.14918334      -0.09755788
Ni       3.83131014       3.69364311       4.31430839        5       1.00000000      -0.13307970      -0.12039299      -0.27311896
Pt       6.51942313       3.65568468       4.29625109        5       0.00000000      -0.00425048      -0.03578607      -0.16209772
Ni       9.07264274       3.69680696       4.33892675        5       1.00000000       0.11172401      -0.18549588      -0.31590997
Ni       2.59223764       5.89445538       4.40552163        6       1.00000000       0.04953034      -0.14338553       0.04807688
Pt       5.20229637       5.94860896       4.29583997        5       0.00000000       0.15000631      -0.01158641       0.02418163
Ni       7.77228731       5.92815608       4.35771460        6       1.00000000      -0.02398616      -0.02860862      -0.19564401
Pt      10.35732875       5.86012166       4.47436136        7       0.00000000       0.06536419      -0.04821149       0.10151098
Pt       3.92376060       8.18281096       4.33130710        5       0.00000000       0.01580304       0.06895641       0.04216203
Ni       6.47862680       8.21268544       4.30753003        5       1.00000000      -0.03758783       0.20150505      -0.33108895
Pt       8.97773995       8.20311947       4.30936550        5       0.00000000      -0.09147221       0.10723505      -0.00171400
Pt      11.65068018       8.19642641       4.31645961        5       0.00000000       0.01098195       0.03683984      -0.06723030
Pt       0.02095713       0.02403880       6.53597852        9       0.00000000       0.07801295       0.10426256       0.22209520
Pt       2.58455943       0.02037226       6.55174597       10       0.00000000      -0.03095675       0.02485006       0.17270795
Pt       5.18262594      -0.03987707       6.56943675       10       0.00000000      -0.01573319       0.12167440       0.27641520
Pt       7.75621053      -0.02731598       6.59535423       10       0.00000000      -0.04589056       0.16976388       0.27453358
Ni       1.29686866       2.29376569       6.48309509        9       1.00000000      -0.08009373       0.16299441      -0.37608630
Pt       3.83453921       2.27054751       6.41123905        8       0.00000000       0.00352836       0.00661703       0.26439934
Ni       6.48568023       2.23642820       6.44887155        8       1.00000000      -0.02955997      -0.09007122       0.04885506
Pt       9.06895535       2.32848255       6.41137541        8       0.00000000       0.01690393      -0.05182997       0.39677354
Ni       2.54100975       4.48020081       6.49359333        9       1.00000000      -0.06928425      -0.00453358      -0.41653647
Pt       5.15429479       4.44913006       6.46665962        9       0.00000000      -0.11798582      -0.08748830       0.69498323
Ni       7.80364297       4.46743551       6.42674415        8       1.00000000       0.05803022       0.08020983       0.01749961
Ni      10.38112097       4.46725680       6.54575160        9       1.00000000       0.05773114      -0.11158498      -0.22073298
Ni       3.84619089       6.64728374       6.52803334        9       1.00000000      -0.05971502      -0.08991701      -0.23098577
Pt       6.53347817       6.64517887       6.47224900        9       0.00000000       0.07620315       0.04315717       0.49917248
Ni       9.08825714       6.62677853       6.54605411        9       1.00000000       0.00290482      -0.09920943      -0.10515090
Ni      11.65703709       6.62025853       6.55861187       10       1.00000000       0.07220779       0.00469327      -0.20061952
