64
Lattice="10.470753790003942 0.017420180810556973 0.09254862326619973 5.250463214122436 9.136618513324368 0.06742648147411803 0.0 0.0 21.852492702173958" Properties=species:S:1:pos:R:3:tags:I:1:initial_magmoms:R:1:forces:R:3 unique_id=16a86c80036e442486c830dcc1f873d8 energy=-386.3892196167875 stress="0.00529220262978993 -0.00013575226522776404 0.0003073332085429874 -0.00013575226522776404 0.005686536866915247 0.000146271162317475 0.0003073332085429874 0.000146271162317475 -0.0009720167948789136" pbc="T T T"
Pt      -0.04187453       0.05401588       0.00953269        0       0.00000000      -0.11813975       0.01684808      -0.17953216
Ni       2.65815243       0.00543889       0.13079348        1       1.00000000       0.07365516      -0.02706007       0.08240015
Ni       5.24722129      -0.01182147       0.15022401        2       1.00000000       0.17241520      -0.11187692       0.08085211
Ni       7.83362020       0.02520097       0.18016293        2       1.00000000      -0.11211723       0.05579008       0.11626210
Pt       1.30278857       2.29723934       0.00000000        0       0.00000000      -0.03841797       0.09313673      -0.19695367
Ni       3.94382503       2.26954768       0.14733645        1       1.00000000       0.08985936       0.05994741      -0.04946901
Pt       6.58347442       2.22358577       0.19406404        2       0.00000000      -0.03300803      -0.19413456      -0.15930824
Ni       9.16447071       2.31666585       0.12867050        1       1.00000000      -0.01291437       0.06543955       0.47548773
Pt       2.55638225       4.59912026       0.13172251        1       0.00000000      -0.20001949       0.22851880      -0.72197558
Pt       5.29514993       4.52316721       0.18375860        2       0.00000000       0.16285300      -0.12682894      -0.50785402
Ni       7.91582322       4.57597708       0.18846905        2       1.00000000       0.18178586       0.02344188       0.40097325
Ni      10.44396681       4.60850074       0.14680318        1       1.00000000      -0.12495771       0.16335855       0.54228638
Pt       3.89327429       6.89011310       0.12260800        1       0.00000000       0.01217722      -0.02815083      -0.96936989
Pt       6.65655923       6.83624700       0.16334213        2       0.00000000       0.05084283      -0.12614931      -0.66912437
Ni       9.21765998       6.84476652       0.13597784        1       1.00000000       0.14217093      -0.13453975       0.49817793
Ni      11.75144424       6.87664139       0.22383967        2       1.00000000      -0.07293031      -0.02687093       0.07549410
Pt       1.29350547       0.77919624       2.27666639        4       0.00000000      -0.06077497       0.07865316       0.18825547
Pt       4.02424571       0.78271133       2.21068455        3       0.00000000       0.13458282      -0.08616493       0.08793755
Ni       6.59147151       0.78426862       2.31721158        4       1.00000000       0.14415535       0.04485986       0.23319774
Ni       9.14418820       0.81226368       2.33661423        4       1.00000000      -0.13084382       0.25324145       0.10375842
Pt       2.65120701       3.05797298       2.28501774        4       0.00000000      -0.04047775       0.03161907       0.16479677
Ni       5.29404786       3.04950782       2.31882055        4       1.00000000       0.08681188       0.01838115       0.36362217
Pt       7.84536556       3.07714313       2.39723849        5       0.00000000      -0.03652228       0.02358336       0.25772969
Pt      10.43290727       3.12359346       2.35738563        5       0.00000000      -0.08661162       0.09439861       0.06657413
Pt       3.96933216       5.32673666       2.33278827        4       0.00000000      -0.02918470       0.06642209       0.11204327
Ni       6.61791481       5.30257974       2.34034585        4       1.00000000       0.19697821      -0.15234051       0.31203036
Ni       9.18816862       5.33657220       2.34653098        4       1.00000000      -0.02564150      -0.09655446       0.10574402
Ni      11.76220811       5.35787042       2.36644934        5       1.00000000      -0.14195263      -0.06109576       0.21544816
Pt       5.25696144       7.62902613       2.33679742        4       0.00000000       0.00801246       0.09374937       0.11350792
Pt       7.93424384       7.53695843       2.35303606        5       0.00000000       0.03738415      -0.12806963       0.29016887
Pt      10.51680545       7.56267129       2.32585733        4       0.00000000      -0.10005964      -0.16572790       0.12696289
Pt      13.06495996       7.71740085       2.38278207        5       0.00000000      -0.01996254       0.18759791       0.11446926
Ni      -0.01421791       1.56258712       4.53828307        6       1.00000000      -0.28283198       0.19968837      -0.06152710
Pt       2.61788571       1.54445054       4.53250062        6       0.00000000       0.09762013       0.01306900      -0.19131367
Pt       5.38368721       1.52129891       4.45950005        6       0.00000000       0.20222050      -0.14345180      -0.33503596
Ni       7.93045944       1.57789151       4.54315154        6       1.00000000       0.19339613       0.25066020      -0.24863025
Pt       1.20482563       3.82829190       4.53336809        6       0.00000000      -0.34897334       0.05365978      -0.10811252
Pt       4.01379691       3.79312015       4.49257741        6       0.00000000       0.08569425      -0.08588900      -0.16482716
Ni       6.65431355       3.82790198       4.53249025        6       1.00000000       0.25796031       0.02515279      -0.32700653
Ni       9.17579279       3.82819689       4.58371329        7       1.00000000      -0.24430751      -0.04822678      -0.19114773
Pt       2.57221231       6.13624585       4.48181416        6       0.00000000      -0.19410833       0.09574463      -0.25379076
Pt       5.37315094       6.06571057       4.49186832        6       0.00000000       0.18789950      -0.08196036      -0.21942080
Ni       7.94721270       6.05277169       4.56140620        7       1.00000000       0.24357122      -0.26718722      -0.33828212
Ni      10.47378028       6.08722512       4.59919180        7       1.00000000      -0.25753356      -0.18562809      -0.16619968
Pt       3.93839033       8.50563098       4.51261282        6       0.00000000      -0.11627476       0.21090862      -0.17108420
Pt       6.58088052       8.40879255       4.57888370        7       0.00000000      -0.05260859       0.01107821      -0.14097522
Pt       9.26214326       8.28938594       4.60544310        7       0.00000000       0.06335805      -0.15364430      -0.03615498
Ni      11.83102561       8.40562484       4.60840212        7       1.00000000      -0.00413283       0.04113401      -0.23379320
Ni       0.04832816       0.06274152       6.64484628        8       1.00000000       0.03503982       0.14417756      -0.09202210
Pt       2.62228219       0.02422162       6.79633890       10       0.00000000      -0.16619488       0.10238769       0.28891125
Pt       5.27748750      -0.01100234       6.79952226       10       0.00000000       0.06832016       0.08808328       0.11188776
Pt       7.95326178       0.07777847       6.79930894       10       0.00000000      -0.07118971       0.04986711      -0.02597115
Ni       1.29308759       2.29211237       6.66222461        9       1.00000000      -0.23734937      -0.06322308      -0.03394456
Pt       3.94544309       2.28707046       6.80688346       10       0.00000000      -0.03853344       0.01549434       0.31862837
Pt       6.66822850       2.32016859       6.70431841        9       0.00000000       0.14273529       0.11074842       0.26353550
Ni       9.26673572       2.31329218       6.78476107       10       1.00000000       0.18002350       0.00310755      -0.62688920
Pt       2.58931694       4.54966410       6.70659825        9       0.00000000      -0.05993940      -0.07910825       0.59294786
Pt       5.32406990       4.57411038       6.72775810        9       0.00000000       0.11279720      -0.02345415       0.60983867
Pt       8.03967871       4.59056425       6.75333935       10       0.00000000       0.03634731      -0.07962823      -0.34699933
Ni      10.50413343       4.57968841       6.82010989       10       1.00000000       0.03784767      -0.08111487      -0.39820042
Pt       3.99469012       6.89668101       6.70662250        9       0.00000000       0.00865049      -0.05483073       0.58344393
Pt       6.66612449       6.87247432       6.73786203        9       0.00000000       0.12016179      -0.15516856       0.59555957
Ni       9.23076189       6.84424123       6.82283257       10       1.00000000      -0.05434876      -0.01703599      -0.24473426
Pt      11.74619587       6.84220935       6.85249270       11       0.00000000      -0.05446501      -0.02883273      -0.08328355
