64
Lattice="10.140331669599828 -0.02122677990773753 0.009182625036455259 5.051782904159272 8.790406185225763 0.022782259932954324 0.007497581946207064 0.017150589697548232 8.704606323427871" Properties=species:S:1:pos:R:3:tags:I:1:initial_magmoms:R:1:forces:R:3 unique_id=f3a5384e6051406e8265382cbc0c5411 stress="-0.005878572617785398 4.079253498014117e-06 -1.803256285873232e-05 4.079253498014117e-06 -0.005891028147199627 -5.976309287237173e-06 -1.803256285873232e-05 -5.976309287237173e-06 -0.005164039132050512" energy=-391.9614973393759 pbc="T T T"
Ni       0.02773192       0.02527920       0.15466777        4       1.00000000       0.09415787       0.07304100       0.03540112
Ni       2.50073240      -0.01459827       0.21558938        4       1.00000000      -0.01855320      -0.05469597       0.14145025
Ni       5.09396755      -0.03062974       0.12738250        4       1.00000000       0.03437740      -0.02639002       0.09077787
Ni       7.60426518      -0.04726124       0.06402018        4       1.00000000       0.03564097      -0.05445359      -0.02676289
Ni       1.21709359       2.22143017       0.12328046        4       1.00000000      -0.02556655       0.07481679       0.05686568
Pt       3.73155190       2.20276661       0.22370749        4       0.00000000      -0.03167085      -0.01470687      -0.07840473
Pt       6.39458318       2.18433778       0.10104637        4       0.00000000       0.02844626       0.02126892      -0.04137826
Ni       8.92148801       2.23301353       0.07590327        4       1.00000000       0.09026507       0.10626843      -0.02980942
Ni       2.48578479       4.43045528       0.12880576        4       1.00000000      -0.05341588       0.03711179       0.07806187
Ni       5.03091477       4.42115380       0.20006187        4       1.00000000      -0.10301145      -0.04282421       0.18199155
Ni       7.64233974       4.37052519       0.09309104        4       1.00000000       0.15614102      -0.03734323      -0.01315393
Ni      10.15556739       4.34997521       0.12999246        4       1.00000000       0.03696540       0.02946674       0.06540729
Ni       3.77930016       6.57021458       0.08074328        4       1.00000000      -0.00015916      -0.06057126       0.00072129
Ni       6.31048112       6.59314936       0.06221141        4       1.00000000       0.00153544      -0.00271371      -0.16656091
Pt       8.86835867       6.57352754       0.20547684        4       0.00000000      -0.00637103      -0.00128736      -0.02871866
Ni      11.40471164       6.55300726       0.07797603        4       1.00000000      -0.02777639      -0.05178825      -0.10877515
Ni       1.30205567       0.77292539       2.14467780        3       1.00000000      -0.01124690       0.09560690       0.03015611
Ni       3.80618845       0.66629355       2.18190402        3       1.00000000       0.03218180      -0.08622430       0.02527281
Ni       6.29679563       0.70803435       2.17574041        3       1.00000000       0.01448856      -0.03020133      -0.01256976
Pt       8.88851388       0.80972420       2.13332050        3       0.00000000      -0.02901505      -0.00760960      -0.00210880
Ni       2.48855094       2.98216513       2.20773501        3       1.00000000      -0.07042888       0.08785185       0.05234441
Ni       5.04588915       2.92736899       2.22780581        3       1.00000000       0.00680098       0.00283982       0.06763958
Ni       7.64593808       2.95449501       2.20061731        3       1.00000000       0.07388993       0.05849342       0.03461618
Ni      10.15589826       2.96553996       2.17919358        3       1.00000000      -0.00190988       0.02696355       0.04968585
Ni       3.75475416       5.07634524       2.20813128        3       1.00000000      -0.03416267      -0.00375673       0.08616581
Pt       6.39218168       5.11103970       2.15290865        3       0.00000000       0.11330450       0.00600848      -0.01444999
Ni       8.92350700       5.09619377       2.25665817        3       1.00000000       0.08109255      -0.00379967       0.06122761
Ni      11.36156767       5.08666063       2.17473743        3       1.00000000      -0.05942660       0.02818577      -0.04288195
Pt       5.10782112       7.32355707       2.17506377        3       0.00000000      -0.01479668      -0.00395021      -0.00832800
Ni       7.63673345       7.35503172       2.26822413        3       1.00000000       0.00981708       0.00293522       0.10634551
Ni      10.09062994       7.31601775       2.27148651        3       1.00000000      -0.02390129      -0.02206667       0.06495777
Pt      12.57183734       7.25021985       2.18184389        3       0.00000000      -0.00727478      -0.01516364      -0.00814478
Ni       0.00148729       1.49780360       4.33442164        2       1.00000000       0.00043414      -0.00427500      -0.04596533
Pt       2.47288397       1.43070311       4.22973726        2       0.00000000      -0.03477980      -0.06880179      -0.00740200
Pt       5.06782233       1.38688647       4.27413260        2       0.00000000       0.01552864      -0.06579526      -0.03451787
Pt       7.66333313       1.47016600       4.38076423        2       0.00000000      -0.00753197       0.01488535      -0.04337906
Pt       1.22611248       3.73630720       4.32713715        2       0.00000000      -0.00216626      -0.02655950      -0.01539416
Ni       3.78287889       3.73124987       4.28798000        2       1.00000000      -0.00638953       0.03073045      -0.04867280
Pt       6.35562269       3.72142447       4.35069862        2       0.00000000      -0.04238254       0.02424364       0.01620391
Ni       8.88840175       3.71614308       4.34629216        2       1.00000000      -0.01133100       0.10170771      -0.04517014
Ni       2.51159931       5.84896520       4.36839873        2       1.00000000       0.00554917      -0.03232759      -0.07954102
Ni       5.05898452       5.86651991       4.34386207        2       1.00000000      -0.00976598      -0.03702256      -0.07546614
Ni       7.62333748       5.89084104       4.31418728        2       1.00000000       0.05490536      -0.00146273      -0.09063872
Ni      10.13932236       5.87724846       4.28522740        2       1.00000000       0.04034563      -0.00140290      -0.15780060
Pt       3.77844836       7.99101413       4.38575589        2       0.00000000       0.00502580      -0.01039292      -0.03447930
Ni       6.34946582       8.00055051       4.33642446        2       1.00000000       0.00304150      -0.04050961      -0.00138918
Ni       8.86511776       7.99684087       4.29538019        2       1.00000000      -0.02394401      -0.03726418       0.00031546
Ni      11.35390493       7.97547607       4.37896778        2       1.00000000      -0.02747448      -0.06838601      -0.04716034
Pt      -0.05691881       0.03926376       6.51262099        1       0.00000000      -0.06583842       0.04261054       0.11329254
Pt       2.55360383      -0.03250053       6.49487487        1       0.00000000       0.02421047      -0.04409837       0.17313923
Ni       5.13920333      -0.02965676       6.44873197        1       1.00000000       0.00662759      -0.06646696      -0.00685980
Ni       7.54959647      -0.02956334       6.47123988        1       1.00000000      -0.12305418      -0.04289687      -0.03552656
Ni       1.21805970       2.25802128       6.46920334        1       1.00000000      -0.03835790       0.00404087      -0.00384718
Pt       3.78813154       2.25075248       6.41585738        1       0.00000000      -0.04316510       0.10094108       0.07534728
Ni       6.37780857       2.18407989       6.40861373        1       1.00000000      -0.04241703      -0.00055412      -0.02522101
Ni       8.87974889       2.25165369       6.46872065        1       1.00000000       0.00652960       0.10148960      -0.06636373
Ni       2.48235051       4.46285151       6.46320957        1       1.00000000      -0.05116352       0.05240085       0.00565173
Pt       5.06476901       4.50072780       6.52251631        1       0.00000000      -0.01992163       0.09434222       0.20909507
Ni       7.63932173       4.36520066       6.46710709        1       1.00000000       0.03434787      -0.03484247      -0.03720548
Ni      10.15135381       4.35829937       6.47972162        1       1.00000000       0.03905546      -0.04476919       0.04247665
Ni       3.73371366       6.59595638       6.47314939        1       1.00000000      -0.11324512       0.01532077      -0.01502628
Ni       6.32977371       6.59429880       6.42341018        1       1.00000000       0.05073618       0.04297243      -0.24435289
Pt       8.92759868       6.50854716       6.36751040        1       0.00000000       0.06918638      -0.06859952       0.02736023
Ni      11.44325127       6.57951390       6.43897880        1       1.00000000       0.01698710      -0.06057002      -0.14854388
