64
Lattice="10.316170505931456 -0.03849718466804553 0.04984694418779422 5.1247457130690215 8.894644929738815 -0.005194701034497012 0.040699859499029156 -0.02839568594138372 8.876317936289297" Properties=species:S:1:pos:R:3:tags:I:1:initial_magmoms:R:1:forces:R:3 unique_id=3b55af953571464496184315c48308a3 stress="0.00026095826281984785 2.4398026043822012e-06 -1.7237106092345817e-05 2.4398026043822012e-06 0.00026035086846401545 2.157740424125962e-06 -1.7237106092345817e-05 2.157740424125962e-06 0.0002596563532058366" energy=-398.30053799846655 pbc="T T T"
Ni       0.05240890      -0.00083253       0.16056992        4       1.00000000       0.16153457       0.07744020       0.25897817
Ni       2.53961029      -0.00039280       0.20508156        4       1.00000000      -0.11641605       0.08288491       0.42302994
Pt       5.08011150      -0.06794990       0.14138985        4       0.00000000      -0.06850118       0.00547702       0.20406158
Pt       7.78887034      -0.15232927       0.19335720        4       0.00000000       0.05553165      -0.11772051       0.31675680
Ni       1.29329348       2.23080569       0.09949774        4       1.00000000       0.00791377       0.06458040       0.28671455
Pt       3.76720552       2.27370251       0.11942197        4       0.00000000      -0.02172669       0.11098701      -0.08679635
Pt       6.41836247       2.26895897       0.18087785        4       0.00000000       0.01233563       0.10946283       0.27828211
Pt       9.12743929       2.22767516       0.18654232        4       0.00000000       0.07976741      -0.00088429       0.25381741
Ni       2.56306278       4.46920673       0.05712327        4       1.00000000       0.06565290       0.06266853      -0.00574066
Ni       5.09732359       4.47298189       0.10304350        4       1.00000000      -0.08753017       0.11603343       0.20243337
Pt       7.76889847       4.50115310       0.11999482        4       0.00000000       0.06810098       0.08429188      -0.12134166
Ni      10.35056487       4.44282252       0.10506778        4       1.00000000       0.15300672       0.04321993       0.14461443
Ni       3.83897605       6.61059771       0.09106701        4       1.00000000      -0.02757108      -0.23986409       0.21905021
Pt       6.38680479       6.70797523       0.11513857        4       0.00000000      -0.02446368       0.01694735      -0.20310217
Ni       9.01116453       6.62866224       0.08846216        4       1.00000000       0.01236135      -0.00437939       0.07811576
Ni      11.59159829       6.57708467       0.09711211        4       1.00000000       0.04242226      -0.13289275       0.05584095
Ni       1.33794817       0.72491837       2.22035498        3       1.00000000       0.14842728      -0.01625969       0.06501711
Ni       3.81524457       0.75107917       2.25115516        3       1.00000000      -0.05886009       0.04226076      -0.01983853
Pt       6.40317073       0.77064012       2.32184948        3       0.00000000      -0.12860725       0.07506635      -0.13007050
Pt       9.16067389       0.68652518       2.30799759        3       0.00000000       0.07606318       0.03661375      -0.07894570
Ni       2.58220718       2.94110232       2.24255362        3       1.00000000       0.01447848       0.00603069       0.10516788
Ni       5.10253208       3.00985612       2.28591714        3       1.00000000      -0.22512660       0.17045675       0.07160769
Ni       7.75705767       3.00974190       2.28547515        3       1.00000000       0.08054471       0.14444331      -0.01237286
Ni      10.34788656       2.93542896       2.30521833        3       1.00000000       0.10044056      -0.01705142       0.18975038
Ni       3.89660499       5.17398303       2.23159930        3       1.00000000       0.13016897      -0.03177377       0.09547702
Ni       6.41790064       5.18976551       2.26236140        3       1.00000000      -0.07370453       0.15097316      -0.07093579
Ni       8.98095419       5.12396528       2.27817651        3       1.00000000      -0.10357744      -0.15138724       0.18134518
Pt      11.65507929       5.09169381       2.20435278        3       0.00000000       0.15307264      -0.08472337       0.08292910
Ni       5.16990177       7.35695766       2.23716802        3       1.00000000       0.09834219      -0.19924125       0.04331524
Ni       7.66142682       7.38683658       2.24632598        3       1.00000000      -0.19884614      -0.09647997       0.02638445
Pt      10.23303150       7.29569088       2.22448581        3       0.00000000      -0.05258419      -0.10025727      -0.23442362
Ni      12.92722702       7.30456147       2.27151885        3       1.00000000       0.16874570      -0.24638073       0.03692693
Ni       0.05195086       1.46867175       4.39418851        2       1.00000000       0.11534446      -0.07155594       0.00015290
Pt       2.59028680       1.48241781       4.36958865        2       0.00000000      -0.00723159      -0.06968022       0.00549470
Ni       5.13239559       1.49831110       4.42277810        2       1.00000000      -0.07184742       0.12455021      -0.03964443
Pt       7.79263468       1.51413342       4.40746516        2       0.00000000       0.03005645       0.04148897       0.18201774
Pt       1.30865237       3.68968261       4.45071051        2       0.00000000      -0.00347673       0.00988047       0.06435675
Ni       3.88465995       3.72716646       4.42892170        2       1.00000000      -0.03654802       0.13920423      -0.08750037
Pt       6.40709546       3.78861854       4.35643663        2       0.00000000      -0.03172992      -0.10153544      -0.06284863
Ni       9.01867854       3.69574604       4.40922483        2       1.00000000      -0.09161436       0.01957510      -0.23735265
Ni       2.63089193       5.87174077       4.43654112        2       1.00000000       0.12331981      -0.19380319      -0.03684214
Ni       5.15838573       5.89579814       4.42396764        2       1.00000000      -0.01052483      -0.04962047      -0.12033609
Ni       7.68947578       5.90054627       4.43614181        2       1.00000000      -0.16343422       0.06629960      -0.16811585
Pt      10.25234030       5.82474248       4.51345405        2       0.00000000      -0.11518664      -0.03431769       0.00048702
Pt       3.95497216       8.02878232       4.34847872        2       0.00000000       0.00017876      -0.09592654       0.10754777
Ni       6.43432350       8.08409085       4.38168220        2       1.00000000      -0.03396533      -0.11647005      -0.15515690
Pt       8.91945889       8.08907387       4.35967189        2       0.00000000      -0.04115961       0.02304805       0.01567858
Pt      11.62092671       8.04504005       4.39478012        2       0.00000000       0.08722764      -0.13392380       0.01805893
Pt       0.05310218      -0.06251734       6.60626933        1       0.00000000      -0.01663607      -0.09803226       0.09151294
Pt       2.59033452      -0.03971515       6.65883570        1       0.00000000       0.00352604      -0.04074109       0.23663629
Pt       5.15823493      -0.07357153       6.54982254        1       0.00000000       0.02421223      -0.06825305      -0.42572349
Pt       7.77802296      -0.12730882       6.60025049        1       0.00000000      -0.04736621      -0.05596184      -0.20721318
Ni       1.34087804       2.25095448       6.59380109        1       1.00000000       0.13451705       0.08729609      -0.02707811
Ni       3.85340121       2.25804222       6.52124584        1       1.00000000      -0.12551730       0.20512924      -0.23949296
Pt       6.39734801       2.28774512       6.55993609        1       0.00000000      -0.08104981       0.24767784      -0.21747273
Pt       9.12522134       2.28795213       6.55541992        1       0.00000000       0.05876189       0.20108045      -0.19740663
Ni       2.60584724       4.44539212       6.58202644        1       1.00000000       0.07205581       0.05371162      -0.13376031
Ni       5.12825601       4.47082305       6.58017512        1       1.00000000      -0.15898422       0.17976470      -0.16143336
Ni       7.75286670       4.47852888       6.52406901        1       1.00000000      -0.01855019       0.19106449      -0.29902184
Ni      10.35128297       4.44203656       6.64358155        1       1.00000000       0.08957695       0.15199184       0.05143067
Ni       3.87514088       6.56902534       6.57330296        1       1.00000000      -0.00413412      -0.20919525      -0.13792856
Ni       6.44465933       6.58445829       6.50726268        1       1.00000000      -0.04864655      -0.12405844      -0.27869555
Ni       9.01435443       6.57786389       6.61828645        1       1.00000000      -0.14412594      -0.06752829      -0.07809509
Ni      11.61714647       6.54748913       6.63393091        1       1.00000000       0.07155613      -0.17170186      -0.11830385
