64
Lattice="10.742592009188986 0.00692682387602555 -0.015894506949372788 5.377294810038672 9.301631975186197 0.004661527169343776 0.0 0.0 21.990144764563425" Properties=species:S:1:pos:R:3:tags:I:1:initial_magmoms:R:1:forces:R:3 unique_id=37dfd81e42694a5e8b99ce81dbac5763 energy=-400.7588884540351 stress="0.003465921178656132 4.396291268420909e-05 0.00011522985252478481 4.396291268420909e-05 0.003678486705079396 -3.760659935237084e-05 0.00011522985252478481 -3.760659935237084e-05 -0.0009484136650267892" pbc="T T T"
Pt      -0.00050649       0.00153858       0.09941676        1       0.00000000       0.02413936       0.00635570      -0.46223948
Pt       2.66313248      -0.02382510       0.09117953        1       0.00000000      -0.09582635       0.12406657      -0.49648764
Pt       5.37118801      -0.00388984       0.08295960        1       0.00000000      -0.00750031       0.05220540      -0.49070132
Pt       8.07554844       0.02151228       0.08399210        1       0.00000000       0.04342375      -0.08070909      -0.47910009
Pt       1.32394199       2.35322238       0.09623149        1       0.00000000       0.00434230      -0.09027958      -0.33064823
Pt       4.01230943       2.35893940       0.09521336        1       0.00000000      -0.01789080       0.04630829      -0.46324968
Pt       6.74676709       2.34032236       0.08904330        1       0.00000000      -0.06419222       0.07402707      -0.47749366
Ni       9.40191502       2.33813583       0.07884472        1       1.00000000       0.03662615       0.01302195       0.29853619
Ni       2.68301556       4.65409794       0.08732080        1       1.00000000       0.01109027       0.00539661       0.31487328
Pt       5.36946955       4.68268537       0.09206287        1       0.00000000       0.05855765      -0.00272717      -0.33860198
Pt       8.06673717       4.65759975       0.00659896        0       0.00000000      -0.03006984      -0.00742086       0.02678435
Pt      10.75387279       4.63915082       0.00000000        0       0.00000000      -0.04206730      -0.02259341       0.15251915
Pt       4.04567258       6.95533419       0.09840759        1       0.00000000       0.02579563       0.04865301      -0.34562504
Ni       6.72246048       6.97378534       0.08631351        1       1.00000000      -0.03734807      -0.00700858       0.27537214
Pt       9.37872945       6.96673600       0.00304242        0       0.00000000       0.00909227      -0.09136924       0.01060244
Pt      12.10170910       6.94795965       0.00276933        0       0.00000000       0.08246347      -0.02236339      -0.02185409
Pt       1.33964214       0.78051664       2.37135013        3       0.00000000       0.01751606       0.01194766       0.48428544
Pt       4.01967318       0.78222634       2.36808055        3       0.00000000      -0.03939253      -0.03375063       0.50071386
Pt       6.71276966       0.78328721       2.36183948        3       0.00000000      -0.02050682      -0.03770497       0.47493168
Pt       9.40237154       0.79677295       2.33307658        2       0.00000000       0.02295231       0.08189817       0.34467576
Pt       2.67190823       3.12797542       2.37049771        3       0.00000000      -0.04734412       0.13178797       0.38084139
Pt       5.37107503       3.11401272       2.37174958        3       0.00000000       0.07088419       0.04634672       0.50006930
Pt       8.06950157       3.11540621       2.34031765        2       0.00000000       0.08770878       0.12525069       0.34168850
Pt      10.73961387       3.11803920       2.35277613        3       0.00000000      -0.09523601       0.10844987       0.31642026
Pt       4.02629305       5.42810086       2.37025270        3       0.00000000      -0.08039232      -0.01728648       0.37525266
Pt       6.70944910       5.44362641       2.36183298        3       0.00000000       0.07362011       0.02428034       0.39297721
Pt       9.40117579       5.43123477       2.37163822        3       0.00000000       0.04498719       0.02794297       0.41793725
Pt      12.09154188       5.41832057       2.35995462        3       0.00000000      -0.07130374       0.01183283       0.34909289
Pt       5.38119460       7.73424527       2.36546693        3       0.00000000       0.04049088      -0.09192185       0.35968587
Pt       8.05049907       7.74144290       2.34151848        2       0.00000000       0.02329874      -0.13486338       0.28875658
Pt      10.74284006       7.74345505       2.36815913        3       0.00000000      -0.02394062      -0.17214794       0.43051682
Pt      13.42886127       7.75297169       2.36078394        3       0.00000000      -0.04763983      -0.03789741       0.42894720
Pt       0.00434940       1.58978261       4.66269008        4       0.00000000      -0.02146810       0.05453903      -0.41795899
Pt       2.66241359       1.58702409       4.66635014        4       0.00000000      -0.04216616       0.04413464      -0.43502828
Pt       5.36270871       1.56546400       4.66226087        4       0.00000000      -0.00590338       0.06013605      -0.46113607
Pt       8.06389240       1.57072407       4.65157512        4       0.00000000       0.10737501       0.05893102      -0.47179026
Ni       1.33684408       3.89013562       4.69397778        4       1.00000000       0.01444092       0.06636282      -0.32481475
Pt       4.00328591       3.91838675       4.66268879        4       0.00000000      -0.05056500       0.10326583      -0.39163878
Pt       6.71008482       3.92719588       4.68683995        4       0.00000000       0.07231219       0.12177362      -0.38702330
Pt       9.42994658       3.90672207       4.71761244        4       0.00000000       0.07014456       0.09550499      -0.12274315
Pt       2.67580744       6.17598240       4.68900625        4       0.00000000      -0.10770538      -0.08732869      -0.31937358
Ni       5.37235066       6.20725771       4.67943693        4       1.00000000       0.00005852      -0.02621763      -0.40837354
Pt       8.04428627       6.19834578       4.72041565        4       0.00000000       0.10676161      -0.08052464      -0.13675077
Pt      10.75534686       6.17582222       4.76907893        5       0.00000000       0.04672954      -0.09024448       0.17025219
Pt       4.04342399       8.49670072       4.66821507        4       0.00000000       0.04872407      -0.08160435      -0.47483151
Pt       6.69930113       8.49524331       4.66142754        4       0.00000000      -0.02322397      -0.11422444      -0.41697228
Pt       9.39465044       8.50720179       4.68924180        4       0.00000000      -0.06665920      -0.19075890      -0.40525591
Pt      12.08598162       8.50434099       4.68360546        4       0.00000000       0.05382074      -0.20282564      -0.35558824
Pt      -0.00799647       0.01244818       6.93354429        6       0.00000000       0.00808078       0.06705757       0.40298178
Pt       2.68952573      -0.02313545       6.92363554        6       0.00000000       0.00692704      -0.03131353       0.40282592
Pt       5.36367787      -0.05621052       6.92047502        6       0.00000000       0.02140225      -0.15334900       0.49190092
Pt       8.03363201      -0.00591810       6.91987524        6       0.00000000       0.00158595       0.03013039       0.44340994
Pt       1.31305609       2.38498473       6.91610220        6       0.00000000      -0.07789168       0.23201018       0.32041754
Pt       4.01806447       2.34453049       6.92547454        6       0.00000000       0.03461302      -0.01780332       0.47715819
Pt       6.72926891       2.36247069       6.92345493        6       0.00000000       0.00590819      -0.03864014       0.46033064
Pt       9.39220803       2.40789143       6.99014476        7       0.00000000      -0.01511364       0.15097195       0.03574136
Pt       2.60862848       4.68915491       6.97833908        7       0.00000000      -0.28458371       0.05873447      -0.14181393
Pt       5.38593281       4.68114075       6.91048144        6       0.00000000      -0.03746900       0.19259520       0.30872437
Ni       8.06964723       4.67594566       6.92567958        6       1.00000000       0.12336482       0.06242367      -0.37617123
Ni      10.73012928       4.68183580       6.91365593        6       1.00000000      -0.02818830       0.07917616      -0.43902535
Pt       4.00646605       6.96794462       6.91790077        6       0.00000000       0.10195410      -0.11986979       0.27581223
Pt       6.75697430       6.94685004       6.98175623        7       0.00000000       0.00373372      -0.15164682      -0.05234663
Ni       9.40336922       6.96407430       6.91992689        6       1.00000000       0.06865760      -0.14092883      -0.44875518
Ni      12.06336483       6.97196646       6.91887655        6       1.00000000      -0.09199533      -0.04019523      -0.36164234
