64
Lattice="10.299253197990025 0.006448180497598921 -0.044179523099944835 5.155210887114121 8.810268408040502 -0.09071017876612587 -0.03607242955812255 -0.06469594978852314 8.74698157943848" Properties=species:S:1:pos:R:3:tags:I:1:initial_magmoms:R:1:forces:R:3 unique_id=15a6acca605a4e1fb914d7e5629b6ff7 stress="0.00017570906322394303 -3.3310125474793718e-06 1.3340923170081792e-05 -3.3310125474793718e-06 0.00019903094092538903 1.0215362429373988e-05 1.3340923170081792e-05 1.0215362429373988e-05 0.00018216482420524427" energy=-395.5266385855278 pbc="T T T"
Ni       0.01281618      -0.06769213       0.18292843        4       1.00000000       0.06778554      -0.11399944       0.26602968
Ni       2.56253554      -0.05879783       0.18856408        4       1.00000000      -0.04307271      -0.09007879       0.29639257
Ni       5.14631453      -0.03704692       0.14450673        4       1.00000000      -0.04511791      -0.06562422       0.21603039
Ni       7.70874114      -0.06249993       0.14316756        4       1.00000000      -0.06637108      -0.11031327       0.28787425
Pt       1.28216989       2.20226622       0.08219791        4       0.00000000       0.00328201      -0.02554479      -0.03159265
Pt       3.84644255       2.16859826       0.15612373        4       0.00000000      -0.07397160      -0.03819500       0.23004869
Pt       6.44058311       2.16853997       0.05790371        4       0.00000000       0.00251114      -0.03445768      -0.04801525
Pt       9.01359035       2.25225648       0.06830040        4       0.00000000      -0.02940995       0.07962097       0.16214471
Ni       2.56455105       4.45568530       0.02329114        4       1.00000000       0.01462012       0.08200686       0.02534014
Pt       5.14562464       4.51050295       0.03736292        4       0.00000000      -0.04697562       0.13717743      -0.10726982
Ni       7.72276376       4.46062128       0.00517134        4       1.00000000      -0.10370106       0.15620649       0.10443726
Ni      10.30587450       4.46080115      -0.01829997        4       1.00000000       0.01830033       0.16681184       0.01658733
Ni       3.83975666       6.63958135       0.03658873        4       1.00000000      -0.08701480       0.11223343       0.18768886
Ni       6.45396255       6.64573362       0.03633517        4       1.00000000       0.02830199       0.08995287       0.18131975
Ni       8.98872284       6.60889842       0.05994019        4       1.00000000      -0.13955228       0.01976044       0.18656822
Ni      11.60929447       6.60761894      -0.03221029        4       1.00000000       0.05215106      -0.05215771      -0.00112241
Ni       1.30652449       0.70448213       2.22302230        3       1.00000000       0.01247994       0.00243205       0.13501248
Ni       3.80412456       0.72135339       2.18620541        3       1.00000000      -0.17393330      -0.03948318       0.01494501
Ni       6.44168916       0.73133646       2.17471748        3       1.00000000       0.10331995       0.00386948       0.04116315
Pt       9.01716033       0.71777150       2.17527813        3       0.00000000       0.09028259       0.17207113      -0.11065140
Ni       2.57736062       2.90146751       2.24741854        3       1.00000000       0.03466990      -0.10507501       0.14793748
Ni       5.13598992       2.95228278       2.18914089        3       1.00000000      -0.06263008       0.18156328      -0.02223144
Ni       7.69269864       2.92509636       2.18440790        3       1.00000000       0.01373784      -0.05761524      -0.02774155
Ni      10.32209390       2.91277269       2.20917154        3       1.00000000       0.10306547      -0.07535769       0.15666697
Ni       3.86438996       5.12870252       2.15431553        3       1.00000000      -0.01027390      -0.00065778       0.04094956
Ni       6.42253942       5.15295236       2.12805691        3       1.00000000       0.01880256       0.07196046      -0.01532342
Pt       8.95047766       5.09557081       2.13758027        3       0.00000000       0.00421890      -0.02633181       0.03311187
Pt      11.64826698       5.08688388       2.13053724        3       0.00000000       0.07056070      -0.13714194       0.03804322
Ni       5.17542988       7.29808244       2.08756640        3       1.00000000       0.02318848      -0.08576910      -0.00966406
Ni       7.65307709       7.34312965       2.08332590        3       1.00000000      -0.13958649      -0.06464563       0.06481052
Pt      10.32955672       7.36791942       2.06364525        3       0.00000000       0.07313665      -0.03338697       0.06405759
Ni      12.89072641       7.31119461       2.05736793        3       1.00000000       0.07354811      -0.11872056      -0.00326280
Ni       0.03816491       1.47309683       4.30775413        2       1.00000000       0.09878580       0.01522258      -0.07939232
Ni       2.49439368       1.47500927       4.27446890        2       1.00000000      -0.03270890       0.03674624      -0.09078552
Pt       5.14352700       1.44040459       4.21245282        2       0.00000000      -0.11598298      -0.00114085       0.05066105
Ni       7.71428326       1.44599764       4.27526185        2       1.00000000       0.03608554      -0.04981742      -0.07892477
Ni       1.27567599       3.63320908       4.33407348        2       1.00000000       0.03992965       0.00099352      -0.06925787
Ni       3.78153874       3.67339480       4.25740162        2       1.00000000      -0.10116953       0.03582689      -0.18390765
Pt       6.49816696       3.65232459       4.27731885        2       0.00000000       0.06431959      -0.04794666      -0.07668504
Ni       9.04781504       3.67065019       4.25055368        2       1.00000000       0.18812967       0.01745938      -0.10600460
Ni       2.52897664       5.80681056       4.33043110        2       1.00000000      -0.02289751      -0.05418367      -0.00322378
Pt       5.13253972       5.83872677       4.26740180        2       0.00000000       0.03117606      -0.02502183      -0.09920099
Ni       7.70844091       5.83333344       4.26763581        2       1.00000000      -0.02801017       0.03651856      -0.05745743
Ni      10.32605342       5.79805752       4.28749208        2       1.00000000       0.09790048      -0.05946409      -0.01205458
Pt       3.81716261       8.02959643       4.21879037        2       0.00000000      -0.07506651      -0.00909229       0.11967505
Ni       6.41930512       8.06009496       4.19874044        2       1.00000000      -0.09776073       0.07257145      -0.16331987
Pt       8.94075576       8.00681712       4.17605520        2       0.00000000      -0.11346484      -0.06756127       0.09128787
Ni      11.58083780       8.00102881       4.21315584        2       1.00000000      -0.02322474      -0.12305133      -0.03000599
Pt      -0.01415478      -0.08488759       6.51427068        1       0.00000000       0.09373630      -0.06057378       0.11680221
Pt       2.52696625      -0.04256045       6.49899115        1       0.00000000      -0.08614312       0.03509098       0.16162648
Pt       5.14543644      -0.06183360       6.50778387        1       0.00000000       0.06402350       0.02011677       0.02313670
Pt       7.69207256      -0.08636545       6.48611991        1       0.00000000      -0.08030480      -0.03536817       0.14966373
Ni       1.25930243       2.21771367       6.35328059        1       1.00000000       0.01944453       0.10070513      -0.26376479
Pt       3.81055054       2.27973353       6.37612458        1       0.00000000      -0.00851936       0.23750179      -0.24851875
Ni       6.42204218       2.20047522       6.37202841        1       1.00000000      -0.00632486       0.03789598      -0.23852232
Pt       9.00242510       2.25690355       6.30370661        1       0.00000000       0.04204288       0.11302737      -0.36392478
Ni       2.51972064       4.40769330       6.40153799        1       1.00000000      -0.05924618       0.12772841      -0.24280852
Ni       5.13615441       4.39715384       6.36018736        1       1.00000000       0.01436749       0.08752974      -0.23487526
Ni       7.67044379       4.36666570       6.41488928        1       1.00000000      -0.11992618      -0.01344307      -0.10345690
Ni      10.34185901       4.36423373       6.36774525        1       1.00000000       0.28784264      -0.03067849      -0.25499330
Ni       3.82595390       6.49255882       6.42620450        1       1.00000000      -0.02959923      -0.15381432      -0.05726555
Ni       6.40719623       6.51007863       6.41118983        1       1.00000000       0.03403134      -0.05241395      -0.08194211
Pt       8.99802137       6.43243390       6.41822792        1       0.00000000       0.06655297      -0.13282955       0.09890996
Ni      11.59476614       6.49495390       6.36245903        1       1.00000000       0.03562874      -0.05964501      -0.19175525
