64
Lattice="10.483233275568688 0.022364305996658583 0.004363861414374206 5.260984694915461 9.087397427025453 0.03122611655726814 0.0035630779244789452 0.027383121024846024 9.0139089728041" Properties=species:S:1:pos:R:3:tags:I:1:initial_magmoms:R:1:forces:R:3 unique_id=5386dbd9b6cb43dbac0a050213a433b1 stress="0.0009946884713652113 2.4618872868666696e-06 7.268104439438799e-06 2.4618872868666696e-06 0.0009880957521819916 -2.9646903752659684e-06 7.268104439438799e-06 -2.9646903752659684e-06 0.0008488996565934187" energy=-409.5050333245782 pbc="T T T"
Ni      -0.01957978      -0.02573143       0.07184490        4       1.00000000      -0.03533284      -0.05554400       0.17496183
Pt       2.60101755      -0.01556550       0.12570479        4       0.00000000       0.04832845       0.00576736       0.11237262
Pt       5.29360606      -0.04093066       0.06117850        4       0.00000000       0.12901169      -0.07910778      -0.08644919
Pt       7.92782887      -0.05412377       0.05072557        4       0.00000000       0.13553981      -0.13707550      -0.17987221
Pt       1.29842740       2.25242858       0.09848784        4       0.00000000       0.04685456       0.04038660       0.05439000
Pt       3.93894939       2.28194980       0.04162343        4       0.00000000       0.01333871       0.00538851      -0.09552421
Pt       6.55943461       2.25960151       0.15689223        4       0.00000000       0.05256642      -0.06809586       0.17557060
Pt       9.18924910       2.23363122       0.04353623        4       0.00000000       0.01252635      -0.01684167      -0.08391033
Pt       2.63084802       4.63772746       0.03918651        4       0.00000000       0.03903309       0.19343041      -0.13717110
Pt       5.25307398       4.57563992       0.15415745        4       0.00000000       0.02468021      -0.01365201       0.11672948
Pt       7.87872643       4.57584594       0.18241645        4       0.00000000       0.03145941      -0.03750435       0.26986891
Pt      10.50714061       4.59104813       0.04409858        4       0.00000000       0.00008304      -0.00480869      -0.15545221
Ni       3.94678269       6.84485297       0.16324064        4       1.00000000       0.03649710       0.04846821       0.34108788
Pt       6.49547448       6.87008768       0.22514715        4       0.00000000      -0.06186829       0.04331666       0.25115993
Pt       9.21600776       6.83288739       0.14119334        4       0.00000000       0.00480408      -0.01940413       0.08958737
Ni      11.82639321       6.84359613       0.14623958        4       1.00000000       0.06478305       0.04831631       0.26736893
Pt       1.22808813       0.68221872       2.29304133        3       0.00000000      -0.06443060       0.03123825      -0.09668391
Pt       4.00196043       0.69700706       2.33895975        3       0.00000000      -0.06189891      -0.17136736      -0.06232943
Ni       6.57066909       0.76520102       2.31737200        3       1.00000000       0.09935300      -0.06754039       0.18338473
Ni       9.15968626       0.76520506       2.32065284        3       1.00000000      -0.12816604       0.03461815       0.27997784
Pt       2.66928637       3.05893073       2.34582264        3       0.00000000       0.01887069       0.09955768      -0.05711374
Ni       5.26762342       3.04722063       2.32860928        3       1.00000000      -0.03299660       0.04019619       0.21259605
Pt       7.80198667       3.02890150       2.40319933        3       0.00000000      -0.11753793      -0.11289958       0.14610350
Pt      10.44915579       3.04899954       2.36411552        3       0.00000000      -0.00481106      -0.01475056      -0.03115622
Pt       4.00088755       5.34367211       2.32559987        3       0.00000000      -0.05325665       0.02438976      -0.04740010
Ni       6.59779888       5.33161209       2.33346938        3       1.00000000       0.17695229       0.02351212       0.23803241
Ni       9.15195052       5.37401345       2.34454718        3       1.00000000      -0.13768559       0.14085147       0.30012333
Pt      11.72392320       5.39765538       2.35008012        3       0.00000000      -0.19834225       0.03922882       0.08225901
Ni       5.24932487       7.59143733       2.30125665        3       1.00000000      -0.15074957       0.04630424       0.18654407
Ni       7.89850367       7.52928815       2.34250195        3       1.00000000       0.08941420      -0.17641292       0.28915489
Ni      10.48292993       7.58591902       2.34484424        3       1.00000000      -0.06392374      -0.01118906       0.33271074
Pt      13.11868277       7.67962601       2.35072509        3       0.00000000      -0.06093632       0.15845624       0.24949143
Ni      -0.04444645       1.50495751       4.50960867        2       1.00000000      -0.18055940      -0.15311424      -0.03863832
Pt       2.63318042       1.57723278       4.49409135        2       0.00000000      -0.06357511      -0.06163812       0.02874876
Pt       5.30620196       1.51415508       4.46487535        2       0.00000000       0.23022118      -0.00711518      -0.01098052
Ni       7.89846651       1.49876898       4.49728046        2       1.00000000       0.15526386      -0.23064202      -0.06760267
Ni       1.31058023       3.82237750       4.53101302        2       1.00000000      -0.01632346       0.13047973      -0.03858393
Ni       3.94034797       3.79162340       4.51513617        2       1.00000000       0.03110025      -0.01685231      -0.07109367
Ni       6.56014595       3.80401481       4.47907027        2       1.00000000      -0.02381125      -0.00116392       0.00134168
Pt       9.21305335       3.82317765       4.51535852        2       0.00000000      -0.00399649       0.11913876       0.14260845
Pt       2.58879924       6.06696691       4.52990320        2       0.00000000       0.00644032       0.09053113       0.14531891
Pt       5.30228680       6.05103696       4.43942915        2       0.00000000       0.13734617       0.00199143       0.12710106
Ni       7.92240762       6.09679330       4.47110157        2       1.00000000       0.16714335       0.07053650      -0.17657423
Ni      10.45719844       6.11582086       4.51757916        2       1.00000000      -0.19486398       0.15316438      -0.08313260
Ni       3.92947109       8.39891946       4.52038824        2       1.00000000      -0.04411034       0.15208374      -0.02607786
Pt       6.55676533       8.34369612       4.47272636        2       0.00000000       0.05737564      -0.03952559       0.12901967
Ni       9.22789178       8.29235117       4.51712914        2       1.00000000       0.11730126      -0.23532280      -0.08120139
Ni      11.80703403       8.37049428       4.52332496        2       1.00000000      -0.01803233       0.00798413      -0.06572347
Ni      -0.03218839       0.04946577       6.67183565        1       1.00000000      -0.07692680       0.11935641      -0.30750281
Pt       2.69621001       0.02490024       6.62094904        1       0.00000000       0.14506070       0.02757198      -0.13318603
Ni       5.25249548       0.02070928       6.61017333        1       1.00000000       0.07322323      -0.01660219      -0.37240851
Ni       7.88015612       0.04760117       6.60496589        1       1.00000000       0.04140560       0.00153911      -0.47402528
Pt       1.25779481       2.33867689       6.59895713        1       0.00000000      -0.13211379      -0.01319622      -0.15839030
Ni       3.93314043       2.29587238       6.61981297        1       1.00000000      -0.00128231      -0.01856611      -0.35170077
Pt       6.59926775       2.22498036       6.61601795        1       0.00000000       0.14966247      -0.10364211      -0.07739929
Ni       9.19008363       2.27116156       6.61203199        1       1.00000000      -0.01721988      -0.18869937      -0.37935772
Ni       2.60878188       4.55157826       6.61890493        1       1.00000000      -0.12613524      -0.02992456      -0.36132642
Pt       5.19324631       4.51023506       6.61746746        1       0.00000000      -0.08655637      -0.09338189      -0.11775191
Pt       7.93606385       4.58065199       6.63094223        1       0.00000000       0.02731274      -0.00692682       0.00883113
Ni      10.50686869       4.58734042       6.61698424        1       1.00000000       0.04710683       0.11435974      -0.39612052
Pt       3.91811271       6.90332580       6.72497685        1       0.00000000      -0.04901518       0.11257516       0.08772564
Pt       6.58883060       6.85748989       6.67288255        1       0.00000000      -0.00165002       0.02436787       0.05764464
Ni       9.21096068       6.84691932       6.63223162        1       1.00000000      -0.04070522      -0.01536056      -0.33257797
Pt      11.72563716       6.86791787       6.69525950        1       0.00000000      -0.16124619       0.06876082       0.07260333
