64
Lattice="10.257191975270636 -0.02443026193049595 0.025178161299779345 5.1074387601824025 8.86200194145699 0.015017834534023247 0.02055788261531668 0.0022898511217386785 8.829977613586724" Properties=species:S:1:pos:R:3:tags:I:1:initial_magmoms:R:1:forces:R:3 unique_id=a1a3eade2f3f43fa97ff174a3604e548 stress="-6.0542148181193245e-05 3.3232271908896653e-06 -1.243651180884351e-05 3.3232271908896653e-06 -6.364093620749717e-05 8.948087840163613e-06 -1.243651180884351e-05 8.948087840163613e-06 -2.599895301368116e-05" energy=-397.1048657996192 pbc="T T T"
Ni       0.04267462       0.04892091       0.14794017        4       1.00000000       0.22353197       0.20307939       0.23984227
Ni       2.56963913       0.04785695       0.20057877        4       1.00000000       0.04952081       0.09193368       0.33815614
Ni       5.09944483       0.00370133       0.09169501        4       1.00000000      -0.08690701       0.06148907       0.17161275
Pt       7.71112093      -0.05526633       0.02697617        4       0.00000000      -0.00739701      -0.01568909      -0.14097863
Ni       1.28326704       2.23335449       0.11183065        4       1.00000000       0.05770642       0.09865499       0.19418868
Ni       3.79854872       2.21955855       0.20183322        4       1.00000000      -0.14014046       0.04690655       0.31181077
Pt       6.37962890       2.28442635       0.17774165        4       0.00000000      -0.06585301       0.09806805       0.45762116
Ni       9.02165584       2.25162375       0.09283802        4       1.00000000       0.15220339       0.17709121       0.06403673
Ni       2.54533077       4.41369269       0.11418446        4       1.00000000      -0.06523059      -0.11362097       0.21197348
Ni       5.06044758       4.42030739       0.17670880        4       1.00000000      -0.31085812      -0.02219186       0.30962983
Ni       7.72934932       4.39247231       0.09478845        4       1.00000000       0.25368816      -0.06155410       0.07656002
Ni      10.27657947       4.36952661       0.12456891        4       1.00000000       0.15808911      -0.11278254       0.18358207
Ni       3.81246035       6.59526902       0.07041137        4       1.00000000      -0.09760817      -0.22738524       0.10380860
Pt       6.37002663       6.64106537       0.01546887        4       0.00000000      -0.06162970       0.00923196      -0.32222776
Pt       8.99170659       6.60110523       0.14104654        4       0.00000000       0.16062929      -0.03988087       0.17165446
Ni      11.53519166       6.57294946       0.16306103        4       1.00000000      -0.02417573      -0.23805816       0.19337390
Ni       1.33978233       0.78855725       2.18027258        3       1.00000000       0.05961657       0.18154054      -0.03556599
Ni       3.80507608       0.75341102       2.20061054        3       1.00000000      -0.01938385       0.01116268      -0.03205932
Pt       6.33098453       0.76020623       2.30151797        3       0.00000000      -0.02826958       0.06582085      -0.03453182
Pt       9.05622316       0.82977167       2.21144582        3       0.00000000       0.07083563       0.05818576      -0.06693367
Ni       2.55992246       2.96987532       2.18640695        3       1.00000000      -0.09958043       0.12231247      -0.05610313
Ni       5.03999019       2.96247076       2.24965591        3       1.00000000      -0.25601410      -0.00681230       0.19513627
Ni       7.74585385       2.98206264       2.23425048        3       1.00000000       0.18404734       0.06023035       0.03792891
Ni      10.28869037       2.98574169       2.21995044        3       1.00000000       0.14105064       0.09914838      -0.01274753
Ni       3.81026531       5.09370503       2.22880591        3       1.00000000      -0.08959127      -0.15925246       0.09764684
Pt       6.44100877       5.11770864       2.21921525        3       0.00000000       0.08003344       0.03090609      -0.15917126
Ni       8.99528395       5.09497873       2.27151170        3       1.00000000       0.14355141      -0.13729310       0.07883142
Ni      11.52101620       5.08054042       2.22470762        3       1.00000000      -0.04785482      -0.14432693      -0.06810829
Pt       5.13655230       7.37222231       2.21633119        3       0.00000000       0.02456678      -0.08589468      -0.19195015
Ni       7.69304105       7.40566950       2.25018870        3       1.00000000       0.01190323      -0.00753643      -0.06600192
Pt      10.18139903       7.33033326       2.34221411        3       0.00000000      -0.17836543      -0.17544530      -0.08479822
Pt      12.78821391       7.25137124       2.26327367        3       0.00000000      -0.09133500      -0.10465271      -0.03596055
Ni       0.01942065       1.51609522       4.40452821        2       1.00000000       0.15332482       0.02653710      -0.04791265
Pt       2.60327818       1.49899936       4.29327928        2       0.00000000       0.06646560       0.06662668      -0.00624442
Ni       5.11573677       1.44664036       4.40744628        2       1.00000000      -0.03026456       0.04708346       0.08551982
Pt       7.75627292       1.48393361       4.41359062        2       0.00000000       0.09182750       0.14790459       0.12316265
Pt       1.25097351       3.74859125       4.38751320        2       0.00000000       0.00053841      -0.03098740      -0.07069868
Ni       3.84238071       3.73107764       4.36615984        2       1.00000000      -0.03007005       0.08090511      -0.13558854
Pt       6.40454797       3.71998684       4.37884354        2       0.00000000      -0.08935538      -0.05941933       0.04260583
Ni       8.99149581       3.71750322       4.42082899        2       1.00000000       0.02415484       0.13258219      -0.09350938
Ni       2.56560710       5.86897668       4.40294540        2       1.00000000       0.00167113      -0.17239314      -0.09734131
Ni       5.09320828       5.88412148       4.40827385        2       1.00000000      -0.07271171      -0.11426203      -0.19191109
Ni       7.72776233       5.87610674       4.38514236        2       1.00000000       0.16201355      -0.07034403      -0.30076807
Ni      10.24610139       5.88214203       4.39651403        2       1.00000000       0.01589594      -0.10212512      -0.08126922
Pt       3.79666910       8.04710628       4.44654138        2       0.00000000       0.03469267      -0.03745548       0.00130461
Pt       6.45629107       8.06359674       4.37673756        2       0.00000000       0.09221797       0.06528659      -0.00994240
Ni       9.00503218       8.11133470       4.40605152        2       1.00000000      -0.02277513       0.08205020       0.06632058
Ni      11.47614264       8.09352650       4.45268139        2       1.00000000      -0.08091347      -0.02100530       0.03689678
Pt      -0.03949459       0.04322272       6.60433302        1       0.00000000      -0.10910086       0.11149492       0.12433175
Pt       2.58844378      -0.01699891       6.61674409        1       0.00000000       0.01924718       0.03774165       0.22922027
Ni       5.16218401      -0.02764381       6.53538854        1       1.00000000      -0.02084803      -0.05609276      -0.20307764
Ni       7.68679989      -0.02885097       6.48418572        1       1.00000000      -0.13962671      -0.00702920      -0.30571935
Ni       1.24858496       2.26338193       6.56597420        1       1.00000000      -0.06976511       0.09325325      -0.08856732
Pt       3.81851991       2.25377225       6.58999605        1       0.00000000      -0.16400775       0.07553538       0.14892324
Pt       6.45888210       2.17810781       6.54809729        1       0.00000000       0.06249160      -0.03937431      -0.17442696
Ni       9.01700449       2.24618094       6.57340403        1       1.00000000       0.07230224       0.21269595      -0.15622539
Ni       2.53870370       4.44018822       6.55787862        1       1.00000000      -0.09776245      -0.00061518      -0.09412828
Pt       5.10702689       4.52686637       6.59031300        1       0.00000000      -0.01443266       0.12196123       0.18797890
Ni       7.72763098       4.40793449       6.56103866        1       1.00000000       0.03236387      -0.10197612      -0.18483397
Ni      10.25383085       4.36827186       6.57522692        1       1.00000000      -0.01790035      -0.08784981      -0.07796750
Ni       3.83683624       6.64122625       6.56430420        1       1.00000000      -0.01326426       0.05295258      -0.09305916
Ni       6.40051743       6.62670164       6.46426252        1       1.00000000       0.03011325      -0.00308838      -0.54601906
Pt       8.96744264       6.56092044       6.45467700        1       0.00000000       0.00238900      -0.12846695      -0.28897418
Pt      11.59007207       6.61247483       6.55930574        1       0.00000000       0.01030899      -0.08551159       0.07166408
