64
Lattice="10.263935477229388 -0.006387160028377724 -0.010181997745923684 5.126436295772086 8.86959577399546 0.017939590394155845 -0.008313566346560499 0.021713447794001334 8.782924577160315" Properties=species:S:1:pos:R:3:tags:I:1:initial_magmoms:R:1:forces:R:3 unique_id=87b118b092ba4bdd9f3b35537ee94da8 stress="-0.00027587097787290515 3.2958663462915383e-07 6.908280961704045e-07 3.2958663462915383e-07 -0.00027602626835691174 -3.879224024960242e-06 6.908280961704045e-07 -3.879224024960242e-06 -0.00022536354507673995" energy=-395.5328999218407 pbc="T T T"
Ni       0.06315406       0.02893413       0.15044201        4       1.00000000       0.19897356       0.15653067       0.18495492
Ni       2.54902099      -0.02697448       0.20370542        4       1.00000000      -0.00623574      -0.07356797       0.26295186
Ni       5.08992414      -0.03382291       0.06474659        4       1.00000000      -0.13929806      -0.04515572       0.05461940
Pt       7.72110478      -0.05701743      -0.02390645        4       0.00000000       0.07564792      -0.03680701      -0.16438908
Ni       1.24063427       2.23991739       0.11708479        4       1.00000000      -0.09174091       0.13195245       0.13446519
Pt       3.77485411       2.23012223       0.20656248        4       0.00000000      -0.09439166      -0.00117210       0.36629785
Pt       6.44908458       2.31806791       0.03585916        4       0.00000000       0.06453668       0.18845922      -0.04097216
Ni       9.03275310       2.27966413       0.06866659        4       1.00000000       0.10618317       0.18875269       0.08837007
Ni       2.52712261       4.46395111       0.11568397        4       1.00000000      -0.13256472       0.04301505       0.15892494
Ni       5.10257642       4.47731722       0.17375246        4       1.00000000      -0.15291904       0.04727501       0.29790149
Ni       7.75367704       4.46988998       0.08040836        4       1.00000000       0.25153888       0.12665342       0.02218393
Ni      10.26716717       4.42622631       0.10211360        4       1.00000000       0.02366348       0.04264784       0.11104146
Ni       3.85732743       6.59518020       0.06870161        4       1.00000000       0.00431450      -0.18553521       0.01662269
Ni       6.43929578       6.65296808       0.06433941        4       1.00000000       0.11663703       0.00497338      -0.07843515
Ni       8.95164764       6.62988953       0.15472831        4       1.00000000      -0.10567018      -0.05176752       0.16000110
Ni      11.51720243       6.58976552       0.06042163        4       1.00000000      -0.14470090      -0.15194760      -0.03439638
Ni       1.32891442       0.78484458       2.15533162        3       1.00000000       0.02348543       0.11542711      -0.04576780
Ni       3.79162126       0.71364971       2.20396746        3       1.00000000      -0.01538533      -0.08159729       0.02716824
Pt       6.36674232       0.76162077       2.18614819        3       0.00000000       0.01209127       0.06082265      -0.19641895
Pt       9.06056304       0.84282962       2.17561786        3       0.00000000       0.07256455       0.03991725      -0.07675957
Ni       2.52735168       3.00669265       2.21667273        3       1.00000000      -0.05319135       0.12265292      -0.02217379
Ni       5.08042434       2.99894251       2.23587158        3       1.00000000      -0.09727505      -0.04357127       0.06766407
Ni       7.73950078       2.99925428       2.18876416        3       1.00000000       0.11232018       0.00713014      -0.02565065
Ni      10.30020788       3.01024849       2.16080387        3       1.00000000       0.07770361       0.07410793      -0.01194243
Ni       3.82093419       5.10745152       2.21631185        3       1.00000000      -0.04631916      -0.09995839       0.07964138
Pt       6.46514946       5.15443242       2.15908634        3       0.00000000       0.09938761       0.03498077      -0.02662855
Ni       8.99664376       5.13859393       2.17967799        3       1.00000000       0.11661835      -0.08714002      -0.04080080
Ni      11.52510468       5.11148896       2.16969000        3       1.00000000      -0.08290069      -0.04323697      -0.09386105
Pt       5.16608215       7.37333620       2.14435072        3       0.00000000      -0.03803686      -0.06196222      -0.09732361
Ni       7.70423857       7.40417258       2.19370578        3       1.00000000      -0.02229766      -0.05534458       0.03811581
Pt      10.17321518       7.32742227       2.22609559        3       0.00000000      -0.04206792      -0.08641294      -0.00893160
Pt      12.79616098       7.26621408       2.21329905        3       0.00000000      -0.04937463      -0.14170616      -0.13621191
Ni       0.00806380       1.50543686       4.38348521        2       1.00000000       0.04913656       0.01556141      -0.00203378
Pt       2.52120748       1.49907830       4.26628196        2       0.00000000       0.02852948      -0.01299739       0.11560278
Pt       5.10222511       1.42793628       4.36877643        2       0.00000000      -0.06482051      -0.02887576       0.04768711
Pt       7.73170743       1.47991933       4.42810305        2       0.00000000       0.02650393      -0.02058251      -0.06467718
Pt       1.31149736       3.78758923       4.37194565        2       0.00000000       0.00517905       0.02102218      -0.00055404
Ni       3.83268715       3.77126506       4.33164528        2       1.00000000       0.01714069       0.04985489      -0.05145441
Pt       6.37924430       3.75877518       4.36601860        2       0.00000000      -0.08644223       0.03082220       0.07730087
Pt       9.00564031       3.77268061       4.37154111        2       0.00000000       0.05734506       0.08862538      -0.02394275
Ni       2.55033718       5.90432273       4.42298248        2       1.00000000       0.00910834      -0.01436551       0.00163120
Ni       5.08939901       5.90424751       4.37886001        2       1.00000000      -0.05482608      -0.11292873      -0.11150443
Ni       7.71956312       5.93568869       4.37191580        2       1.00000000       0.12318008       0.00951508      -0.09857510
Ni      10.28161684       5.95860768       4.37989011        2       1.00000000       0.07109632       0.01268599      -0.03263841
Pt       3.80183324       8.04845877       4.42284718        2       0.00000000       0.03591072       0.01978205      -0.00207402
Pt       6.44529069       8.06141841       4.35163090        2       0.00000000       0.02240017      -0.01258316       0.08523588
Ni       8.99841957       8.08844792       4.37331202        2       1.00000000      -0.03607165      -0.10316759       0.03820289
Ni      11.49967520       8.06519567       4.42561198        2       1.00000000      -0.05466022      -0.10999792      -0.07495515
Pt      -0.06575374       0.04343445       6.58396673        1       0.00000000      -0.15523568       0.00947498       0.05343694
Pt       2.58206178      -0.01024317       6.58537081        1       0.00000000       0.05786885      -0.00964673       0.18091781
Ni       5.18205169      -0.02329214       6.50215608        1       1.00000000       0.05913834      -0.11725290      -0.08216049
Ni       7.63064764      -0.02637008       6.41875120        1       1.00000000      -0.18130666      -0.12849506      -0.31462568
Ni       1.23138972       2.27576347       6.53152426        1       1.00000000      -0.07230836       0.04539121      -0.05813829
Pt       3.82248239       2.28325307       6.50229901        1       0.00000000      -0.09359307       0.08553470      -0.23876619
Ni       6.44062272       2.21925387       6.45096134        1       1.00000000      -0.00299571      -0.00692888      -0.22174145
Ni       8.97747653       2.26620200       6.53400850        1       1.00000000       0.00771578       0.12555276      -0.03474322
Ni       2.51987195       4.50171011       6.52685948        1       1.00000000      -0.05744749       0.14247657       0.00285668
Pt       5.11689688       4.53927024       6.57015635        1       0.00000000       0.02704402       0.12827333       0.12417028
Ni       7.70392379       4.42833850       6.53839004        1       1.00000000       0.00137799      -0.07373572      -0.04457148
Ni      10.28615063       4.42626636       6.54227419        1       1.00000000       0.13900830      -0.05924246       0.05109496
Ni       3.78839217       6.65069281       6.53528804        1       1.00000000      -0.16679229       0.04887392      -0.06764631
Ni       6.40611185       6.64621366       6.52689904        1       1.00000000       0.06649269       0.03050309      -0.18062304
Pt       9.02612242       6.58606204       6.52145926        1       0.00000000       0.10563844      -0.12876195       0.10809136
Ni      11.56888471       6.65561569       6.49421358        1       1.00000000       0.07538879      -0.06280300      -0.15106423
