64
Lattice="10.30847402867037 0.000419686168867352 0.00046730274336838264 5.15460047321904 8.873381377567297 -0.012358400845179147 0.0 0.0 21.543841588533834" Properties=species:S:1:pos:R:3:tags:I:1:initial_magmoms:R:1:forces:R:3 unique_id=9ab0a651d06346c1b98a9cae8253d87b energy=-375.02515554553753 stress="0.0052506459511736485 0.00012001929604199207 0.0001832747343567182 0.00012001929604199207 0.005577909448110695 4.566019936388553e-05 0.0001832747343567182 4.566019936388553e-05 -0.0014716706540550198" pbc="T T T"
Ni      -0.02601893       0.03904727       0.15547364        2       1.00000000      -0.01862564       0.10330416      -0.02999124
Ni       2.57227326       0.00508592       0.05770726        1       1.00000000      -0.08114222       0.02975903       0.39301685
Ni       5.15381759      -0.02394281       0.10661648        1       1.00000000       0.02849402       0.12101086      -0.37669647
Ni       7.76308736      -0.04438726       0.05800224        1       1.00000000       0.03652487       0.00703161       0.41646986
Ni       1.24419478       2.21304215       0.12608530        1       1.00000000      -0.09096624      -0.00741105       0.18213190
Pt       3.77734669       2.16471830       0.05453598        1       0.00000000       0.00671778       0.08459649       0.02895617
Pt       6.49730390       2.12459471       0.13701803        1       0.00000000       0.04598164      -0.02851577      -0.47800619
Ni       9.06908563       2.18806243       0.12537251        1       1.00000000       0.09602559      -0.04933031       0.13578800
Ni       2.53503790       4.45036588       0.07051841        1       1.00000000      -0.02892708      -0.08986705      -0.22926375
Pt       5.13350852       4.44984156       0.08483235        1       0.00000000       0.21547446      -0.11331106      -0.90963127
Pt       7.84636842       4.44463595       0.04506045        0       0.00000000      -0.02693277      -0.07622777      -0.02688826
Ni      10.33714868       4.42898742       0.01780690        0       1.00000000       0.06199042      -0.12935965       0.18758968
Ni       3.81573090       6.70903840       0.03100852        0       1.00000000       0.03074142       0.03249044       0.29381612
Pt       6.44951942       6.75357152       0.13346595        1       0.00000000      -0.05669817      -0.01628029      -0.60551334
Ni       9.04989178       6.67735057       0.00939406        0       1.00000000      -0.02203387       0.01070979       0.13496039
Ni      11.61311838       6.66545416       0.00000000        0       1.00000000       0.08558972       0.01253064       0.23495143
Ni       1.28207882       0.76836621       2.12501968        3       1.00000000      -0.01198312       0.11591933       0.02093958
Ni       3.83405719       0.76346365       2.17575441        4       1.00000000      -0.12604558       0.09786051       0.22214688
Ni       6.47409216       0.74067798       2.19750689        4       1.00000000       0.12575228       0.09006580       0.20571220
Ni       9.02332481       0.76294719       2.13355216        3       1.00000000      -0.01801843       0.12756471       0.09737404
Ni       2.55351219       2.90189042       2.18956865        4       1.00000000      -0.06651686      -0.14802974       0.29733539
Ni       5.13957850       2.90621889       2.19829301        4       1.00000000      -0.17450279      -0.12814693       0.18513266
Ni       7.78883265       2.93110604       2.17863007        4       1.00000000       0.24260714      -0.08666127       0.09908217
Ni      10.29187296       2.90658480       2.16032484        4       1.00000000      -0.03282439      -0.13981992       0.17776198
Pt       3.83062296       5.18069579       2.18124579        4       0.00000000      -0.00669631      -0.06275487      -0.08723114
Ni       6.49746268       5.17667649       2.16854415        4       1.00000000       0.12527598       0.00243852       0.11699461
Ni       8.99704093       5.15066028       2.18173194        4       1.00000000      -0.11678487      -0.12726220       0.23279682
Pt      11.54998905       5.10285233       2.12201768        3       0.00000000      -0.18837658      -0.18089307       0.06133200
Ni       5.13148076       7.44517605       2.12630692        3       1.00000000      -0.12136861       0.11397319       0.01170673
Ni       7.73552252       7.41241619       2.15389095        4       1.00000000       0.01905702       0.08920488       0.06330718
Pt      10.28529203       7.41537409       2.06291911        3       0.00000000       0.00180735      -0.06049286      -0.04826450
Ni      12.90028254       7.43492591       2.10094213        3       1.00000000      -0.02537387       0.12994962      -0.03040161
Ni       0.00209562       1.54135573       4.25286205        6       1.00000000       0.00713871       0.19293958      -0.34885288
Ni       2.58909353       1.53557536       4.27599339        6       1.00000000      -0.00989692       0.13565549      -0.27776585
Ni       5.11481445       1.50857177       4.26339547        6       1.00000000      -0.06927145       0.12515476      -0.34263497
Ni       7.76478322       1.49289578       4.25166715        6       1.00000000       0.12955959       0.06797146      -0.35867349
Ni       1.29443457       3.64395061       4.27879668        6       1.00000000      -0.00328745      -0.17195115      -0.26285706
Ni       3.81858420       3.63095254       4.28318934        6       1.00000000      -0.04988637      -0.12338614      -0.24135978
Pt       6.50565101       3.65411234       4.18714804        5       0.00000000       0.03941731      -0.04653282      -0.09677010
Ni       9.03961575       3.66174822       4.27276268        6       1.00000000       0.10057644      -0.16173730      -0.31788898
Ni       2.56368606       5.88771383       4.31534471        6       1.00000000      -0.00951037      -0.03681639      -0.12448422
Pt       5.14684177       5.91275782       4.25401050        6       0.00000000       0.03371767       0.06666296      -0.01093278
Ni       7.75777472       5.87675495       4.27276673        6       1.00000000       0.00512314      -0.03476368      -0.34438183
Pt      10.29137777       5.82276298       4.36978345        7       0.00000000       0.03738588      -0.04129837       0.08064089
Pt       3.84880849       8.18482417       4.24027616        5       0.00000000      -0.01830810       0.17237915      -0.01978042
Pt       6.45162874       8.22241939       4.20076378        5       0.00000000      -0.02869201       0.36253251      -0.07769478
Pt       8.99454257       8.16950327       4.28052107        6       0.00000000      -0.12399768       0.07803802      -0.00487414
Pt      11.61239113       8.16391116       4.29030850        6       0.00000000       0.03690654       0.10284887       0.00061502
Pt      -0.02926445      -0.03656709       6.54384159        9       0.00000000       0.08560976       0.09956259       0.20034191
Ni       2.59719498      -0.00327335       6.47794543        9       1.00000000      -0.04801875      -0.02560436      -0.10522896
Pt       5.11725155      -0.06598737       6.54146124        9       0.00000000       0.00183556       0.03465484       0.43028082
Ni       7.72742573      -0.05361502       6.48794723        9       1.00000000      -0.07856629       0.00254299      -0.12148542
Pt       1.33895347       2.20324300       6.44299758        8       0.00000000      -0.05879775      -0.01239915      -0.11160474
Ni       3.85510440       2.18932964       6.36615197        8       1.00000000       0.04495051      -0.03033496      -0.00381708
Pt       6.44273616       2.15841232       6.39562333        8       0.00000000      -0.03125246      -0.15476896       0.50740993
Pt       9.02442500       2.26638320       6.44451478        8       0.00000000       0.04683255      -0.08533422      -0.06881137
Pt       2.52403750       4.49649901       6.44120478        8       0.00000000      -0.01069994      -0.06580783       0.02124644
Pt       5.12907975       4.40595392       6.39828429        8       0.00000000      -0.07168365      -0.06340475       0.85392097
Ni       7.77610338       4.44784148       6.37382156        8       1.00000000       0.02534170       0.01363896      -0.00858660
Ni      10.28504204       4.45845894       6.46947697        9       1.00000000      -0.00729895      -0.03461023      -0.08274594
Ni       3.81889573       6.66579802       6.46335050        9       1.00000000       0.02055053       0.00000685      -0.17901552
Pt       6.54349605       6.63846544       6.41792715        8       0.00000000       0.10734386      -0.06852417       0.61196177
Ni       9.04390123       6.60539717       6.46701853        9       1.00000000       0.04087594      -0.10530166      -0.05792687
Ni      11.60438401       6.64817768       6.47471724        9       1.00000000      -0.05221982       0.08394135      -0.11565882
