64
Lattice="10.32536610892628 0.014677796252360003 -0.013389684137253088 5.175394398889259 8.871723267450479 -0.11336307892428368 0.0 0.0 21.669973193192305" Properties=species:S:1:pos:R:3:tags:I:1:initial_magmoms:R:1:forces:R:3 unique_id=23135479848c4d2c85ca60e1ee497c84 stress="0.005624333963343577 3.294022722738979e-05 -9.655108733498343e-05 3.294022722738979e-05 0.004921556047201779 -0.0007811539641605603 -9.655108733498343e-05 -0.0007811539641605603 -0.002064908676998411" energy=-374.34143775403214 pbc="T T T"
Ni       0.00507656       0.00763548       0.24348653        2       1.00000000       0.08977879       0.02165220      -0.31303777
Ni       2.58022527      -0.00804736       0.26628365        3       1.00000000       0.01682202       0.00755429      -0.19940931
Ni       5.16675008      -0.02702012       0.13332045        1       1.00000000       0.00182579       0.09132499       0.17863358
Ni       7.74861850      -0.01908127       0.10673736        1       1.00000000      -0.00771435       0.05493601       0.09534795
Ni       1.26197170       2.21331714       0.22374412        2       1.00000000      -0.07309106       0.04220583       0.04250270
Pt       3.82830209       2.20665160       0.22800458        2       0.00000000       0.00205413      -0.01223396      -0.64840148
Pt       6.50941087       2.21008904       0.21214565        2       0.00000000       0.05117821      -0.02443579      -0.51195095
Ni       9.07044765       2.24581419       0.17280685        2       1.00000000       0.04078011       0.14500564      -0.04346377
Ni       2.55850686       4.43849254       0.05214211        1       1.00000000      -0.16102045      -0.10530159       0.09665108
Ni       5.16632172       4.43736890       0.04671237        0       1.00000000       0.05677476      -0.16514523      -0.09922444
Ni       7.80347612       4.42896530       0.07140427        1       1.00000000       0.19692807      -0.05390131       0.19189156
Ni      10.31512914       4.42411758       0.06576175        1       1.00000000      -0.10006875      -0.07495994       0.31942125
Ni       3.86870953       6.64818146       0.02423543        0       1.00000000       0.05026943       0.04981408       0.03975727
Pt       6.46328977       6.67447399       0.02689651        0       0.00000000       0.03810569       0.17231198      -0.24401850
Ni       9.04619775       6.63309180       0.11384135        1       1.00000000      -0.13731556      -0.19533300      -0.26042032
Ni      11.62415830       6.64767940       0.00000000        0       1.00000000      -0.06892560      -0.12552815       0.13763076
Ni       1.29549129       0.73017415       2.20929138        5       1.00000000      -0.00528329       0.01617225       0.02213257
Ni       3.86794122       0.72375862       2.25951161        6       1.00000000       0.06480867      -0.03229074       0.19874443
Ni       6.42901320       0.75415931       2.29434375        6       1.00000000      -0.05038507       0.09272211       0.29119489
Pt       9.06055727       0.80835888       2.23434219        5       0.00000000      -0.09509648      -0.04535801       0.11843101
Ni       2.53038009       2.89753073       2.23191708        5       1.00000000      -0.17359872      -0.04836251       0.06943451
Ni       5.17386105       2.88988722       2.27031470        6       1.00000000       0.02466769      -0.13895433       0.26102432
Ni       7.80174936       2.95346275       2.24116268        5       1.00000000       0.22463528       0.09934252       0.16680579
Ni      10.31700359       2.94389072       2.22724126        5       1.00000000      -0.01675621       0.01850442       0.20111250
Pt       3.88721228       5.11330775       2.12231589        4       0.00000000       0.08089439      -0.11577161      -0.14228002
Pt       6.54380018       5.13940282       2.18244351        5       0.00000000       0.04484497      -0.06244488      -0.00459200
Ni       9.04012788       5.12021559       2.19975454        5       1.00000000       0.06649465      -0.12298828       0.12630665
Pt      11.55701982       5.07940022       2.20114016        5       0.00000000       0.00580015      -0.00781149       0.05454667
Ni       5.18750591       7.39710560       2.14367451        4       1.00000000      -0.01983349      -0.00303407       0.04950534
Ni       7.75125330       7.39919486       2.14836612        4       1.00000000       0.01199248       0.04144026       0.11170413
Pt      10.28903058       7.40101613       2.10155198        4       0.00000000      -0.07132854      -0.01059036       0.04634789
Pt      12.89848024       7.41102017       2.10707263        4       0.00000000       0.00710600       0.03610523      -0.02079942
Ni      -0.03049393       1.48916489       4.39201364        9       1.00000000      -0.05709764       0.18750261      -0.13796048
Pt       2.53447407       1.46121949       4.29060516        8       0.00000000      -0.09845228       0.04347371      -0.06553615
Ni       5.20251142       1.39844588       4.35936371        9       1.00000000       0.05341557      -0.02900052      -0.28741131
Ni       7.73615881       1.43171099       4.37214412        9       1.00000000       0.00046627       0.06997601      -0.21023830
Ni       1.23060273       3.68919959       4.39167282        9       1.00000000      -0.14078959       0.01861095      -0.05071428
Pt       3.82533570       3.67976826       4.36431096        9       0.00000000      -0.10515410      -0.04486896      -0.05679209
Pt       6.54040068       3.61952945       4.34880719        8       0.00000000       0.06575068      -0.04176203       0.03860262
Ni       9.08060074       3.67951410       4.35713255        9       1.00000000       0.15434410       0.05819062      -0.17765911
Ni       2.50823685       5.86939855       4.42063000        9       1.00000000      -0.20047473       0.04608713      -0.03639740
Pt       5.15117123       5.87181498       4.42698384        9       0.00000000      -0.04944759       0.06245277      -0.11974523
Ni       7.80663852       5.83430299       4.35749057        9       1.00000000       0.21863896      -0.05593386      -0.17430985
Ni      10.35502429       5.82386354       4.36960676        9       1.00000000       0.00846917      -0.03835595      -0.09416042
Pt       3.77989342       8.11097937       4.35584053        9       0.00000000      -0.04412228       0.06673829       0.08208459
Pt       6.46057240       8.07761872       4.24218557        7       0.00000000      -0.00965073       0.06354324      -0.13919549
Pt       9.11748227       8.06153255       4.30968941        8       0.00000000      -0.00099189       0.02400989      -0.01074115
Ni      11.61720799       8.09390805       4.36750038        9       1.00000000      -0.07263821      -0.00998038      -0.04490575
Pt      -0.06428156      -0.13367256       6.66882955       13       0.00000000       0.00897382       0.09010350       0.30330968
Pt       2.59717981      -0.10127369       6.66997319       13       0.00000000       0.01750266      -0.03054683       0.40524319
Ni       5.21230926      -0.10121164       6.57728411       12       1.00000000       0.03349046      -0.02891692      -0.09701910
Ni       7.68166665      -0.11017012       6.58406302       12       1.00000000      -0.06238441      -0.02062418      -0.06604999
Pt       1.27604048       2.25441214       6.58480338       12       0.00000000      -0.02292969      -0.07723666       0.08744864
Pt       3.89623945       2.19606319       6.53328976       11       0.00000000       0.12663783       0.03114956       0.71626256
Pt       6.45617186       2.11775923       6.50198130       11       0.00000000      -0.05330049      -0.03441865       0.57856440
Pt       9.01022546       2.22813013       6.53136213       11       0.00000000       0.01421177       0.00801781      -0.01531650
Ni       2.56259872       4.45647322       6.52321742       11       1.00000000      -0.03274753       0.08888854      -0.24300094
Ni       5.16361887       4.42379435       6.54798019       11       1.00000000       0.02263302      -0.07492294      -0.01256359
Ni       7.73122998       4.40385700       6.52048011       11       1.00000000      -0.06106898      -0.00935194      -0.14187637
Ni      10.35168530       4.41707150       6.49484564       11       1.00000000       0.12121150       0.04290327      -0.28079316
Ni       3.81805821       6.54704348       6.51649581       11       1.00000000      -0.10758319       0.00496187      -0.14167654
Ni       6.45577258       6.53805093       6.43672286       10       1.00000000       0.18843986       0.03088320       0.37543632
Pt       9.09353133       6.50091326       6.51653551       11       0.00000000      -0.00677507      -0.00574059       0.05184269
Ni      11.65256387       6.59406488       6.46732763       11       1.00000000      -0.00392098       0.01952090      -0.36626035
