64
Lattice="10.33355220913284 0.0068367253360506796 0.0247533667099489 5.172696882386139 8.906971069067572 0.019467356876251805 0.020211039285123474 0.006685151106766563 8.850654493333975" Properties=species:S:1:pos:R:3:tags:I:1:initial_magmoms:R:1:forces:R:3 unique_id=22c67c2e975e45d7ad493d1871b3f76e stress="0.0002978629605003627 -1.1909543555476532e-06 9.300459905002498e-07 -1.1909543555476532e-06 0.0003099045616958701 1.537243554317737e-05 9.300459905002498e-07 1.537243554317737e-05 0.0002840379188323999" energy=-399.2048706695505 pbc="T T T"
Ni       0.01115238       0.00545576       0.17350064        4       1.00000000       0.06692945       0.05994032       0.32391446
Ni       2.58265898       0.01238700       0.20163194        4       1.00000000       0.00997660       0.03935166       0.44304619
Ni       5.16425564      -0.01660983       0.16279369        4       1.00000000      -0.04086645       0.06440614       0.21467292
Ni       7.75013673      -0.05157332       0.19946806        4       1.00000000       0.00596742      -0.10377221       0.38464697
Ni       1.30010668       2.23383457       0.10965873        4       1.00000000       0.04105325       0.00971416       0.25730069
Pt       3.78937749       2.18951275       0.19319382        4       0.00000000      -0.04071513       0.03482319       0.10070079
Pt       6.46248543       2.14563229       0.12659714        4       0.00000000       0.07205876      -0.10416784      -0.04871623
Pt       9.14148649       2.23200210       0.14211221        4       0.00000000       0.13626258       0.00635631       0.07841127
Ni       2.54094918       4.47686398       0.06798067        4       1.00000000      -0.03464385       0.03247116       0.01097429
Pt       5.12809200       4.47994671       0.15503648        4       0.00000000      -0.05717377       0.03129367       0.25437828
Pt       7.80691800       4.49880907       0.05442453        4       0.00000000       0.13769539       0.09971710      -0.18755003
Ni      10.39260174       4.48582846       0.08648106        4       1.00000000       0.11618303       0.08416157       0.08037410
Ni       3.82743592       6.72246216       0.10466534        4       1.00000000      -0.08187114       0.08932200       0.19008142
Pt       6.46852487       6.78735688       0.21196491        4       0.00000000       0.00140633       0.05783739       0.19094152
Ni       9.08477493       6.71869286       0.09510844        4       1.00000000       0.05131558       0.08437378       0.07290280
Ni      11.64866724       6.69141186       0.09544464        4       1.00000000       0.10077786       0.01499076       0.05028040
Ni       1.32866189       0.75607544       2.24209285        3       1.00000000       0.05158182       0.06728337       0.13237854
Ni       3.84649279       0.77172687       2.26344831        3       1.00000000      -0.08962968       0.14487043       0.12973925
Ni       6.45633831       0.77612857       2.26421534        3       1.00000000      -0.02825627       0.10346886       0.14892707
Pt       9.06220276       0.75078739       2.27324769        3       0.00000000       0.04118222       0.22701079      -0.05603934
Ni       2.56649259       2.92017941       2.29001181        3       1.00000000      -0.05915810      -0.12149714       0.20760022
Ni       5.16993223       2.92741523       2.29379145        3       1.00000000      -0.14542814      -0.10772349       0.02072271
Ni       7.73996731       2.95370482       2.27829223        3       1.00000000       0.06345302      -0.08152296      -0.13526904
Ni      10.38387280       2.94525578       2.29477680        3       1.00000000       0.10827942      -0.11560371       0.16171966
Pt       3.86616619       5.20186709       2.28231478        3       0.00000000      -0.03627062      -0.10546188      -0.14892275
Ni       6.47698571       5.20108971       2.26498162        3       1.00000000       0.01491642       0.00083536      -0.12873830
Pt       9.00438255       5.17387695       2.30097859        3       0.00000000      -0.15354116      -0.10111946      -0.10861953
Pt      11.63973102       5.14576840       2.22721715        3       0.00000000      -0.06304956      -0.09444673       0.06957081
Ni       5.19680251       7.45240011       2.25208809        3       1.00000000       0.05033476       0.07333945       0.06299007
Ni       7.72795251       7.47347259       2.27468505        3       1.00000000      -0.12265128       0.07772763       0.10117990
Pt      10.33724406       7.48192569       2.17095799        3       0.00000000      -0.01788039      -0.03929516      -0.05085880
Ni      12.93663694       7.43570008       2.22627064        3       1.00000000      -0.00508182      -0.04298063       0.01826302
Ni       0.06773102       1.53535338       4.37066638        2       1.00000000       0.17352848       0.08807827      -0.12254560
Ni       2.54870747       1.53144336       4.35159447        2       1.00000000      -0.10469863       0.04664763      -0.17735904
Ni       5.16320985       1.51645624       4.36950143        2       1.00000000      -0.13400017       0.00649307      -0.16227999
Ni       7.76877967       1.51264920       4.39508409        2       1.00000000       0.06934559      -0.06150274      -0.10066522
Ni       1.32415492       3.66194144       4.42675356        2       1.00000000       0.04324817      -0.10324924      -0.07672190
Ni       3.83131014       3.69364311       4.36873292        2       1.00000000      -0.10847828      -0.10372329      -0.15980950
Pt       6.51942313       3.65568468       4.35067563        2       0.00000000      -0.04052195      -0.03557895      -0.06956474
Ni       9.07264274       3.69680696       4.39335129        2       1.00000000       0.11235332      -0.18294478      -0.26225765
Ni       2.59223764       5.89445538       4.45994617        2       1.00000000      -0.00099545      -0.09364103       0.05791453
Pt       5.20229637       5.94860896       4.35026450        2       0.00000000       0.20850450       0.00681372       0.11470537
Ni       7.77228731       5.92815608       4.41213914        2       1.00000000       0.00835479       0.00158485      -0.10544729
Pt      10.35732875       5.86012166       4.52878589        2       0.00000000       0.06772217      -0.03426355       0.05096486
Pt       3.92376060       8.18281096       4.38573163        2       0.00000000      -0.01636572      -0.00836201       0.17079112
Ni       6.47862680       8.21268544       4.36195456        2       1.00000000      -0.03360654       0.16613842      -0.13668352
Pt       8.97773995       8.20311947       4.36379003        2       0.00000000      -0.07798332       0.08692793       0.11809150
Pt      11.65068018       8.19642641       4.37088414        2       0.00000000       0.03619451       0.04507176       0.04206409
Pt       0.02095713       0.02403880       6.59040306        1       0.00000000       0.00284374       0.03955613       0.13900658
Pt       2.58455943       0.02037226       6.60617051        1       0.00000000      -0.03366728       0.02551027       0.18120371
Pt       5.18262594      -0.03987707       6.62386128        1       0.00000000      -0.00721735      -0.11305866       0.03013059
Pt       7.75621053      -0.02731598       6.64977877        1       0.00000000      -0.08851817      -0.06196648       0.21497262
Ni       1.29686866       2.29376569       6.53751962        1       1.00000000      -0.06653463       0.17944283      -0.23097670
Pt       3.83453921       2.27054751       6.46566359        1       0.00000000      -0.10856511       0.05869831      -0.20952915
Ni       6.48568023       2.23642820       6.50329608        1       1.00000000      -0.02914023      -0.04704853      -0.27526754
Pt       9.06895535       2.32848255       6.46579994        1       0.00000000      -0.03524338       0.06612004      -0.31267320
Ni       2.54100975       4.48020081       6.54801786        1       1.00000000      -0.16649608       0.02362172      -0.26158065
Pt       5.15429479       4.44913006       6.52108416        1       0.00000000      -0.05820078       0.00288701      -0.34331617
Ni       7.80364297       4.46743551       6.48116868        1       1.00000000       0.08769847       0.03639650      -0.48467650
Ni      10.38112097       4.46725680       6.60017613        1       1.00000000       0.11385791      -0.04760980      -0.04639387
Ni       3.84619089       6.64728374       6.58245788        1       1.00000000      -0.09034439      -0.09366245      -0.13731133
Pt       6.53347817       6.64517887       6.52667353        1       0.00000000       0.05619112      -0.01892286      -0.13291486
Ni       9.08825714       6.62677853       6.60047864        1       1.00000000       0.05723397      -0.14341419      -0.08226551
Ni      11.65703709       6.62025853       6.61303641        1       1.00000000       0.07034415      -0.11674376      -0.07060838
