64
Lattice="10.178156572571764 0.02387881095045962 -0.04095795244991911 5.10975794318115 8.811917698644493 -0.03435798234959038 0.0 0.0 21.448895096533807" Properties=species:S:1:pos:R:3:tags:I:1:initial_magmoms:R:1:forces:R:3 unique_id=cc0668f047f148088867db2e2e3233c0 energy=-370.41684958720896 stress="0.005236905992619116 7.593070045166908e-05 -0.0002636226890163348 7.593070045166908e-05 0.00487530209409809 -0.0001360944155733188 -0.0002636226890163348 -0.0001360944155733188 -0.0009253557266419143" pbc="T T T"
Ni       0.02074007      -0.01302605       0.12134906        1       1.00000000       0.05851321       0.12495122      -0.35506048
Ni       2.49221442       0.00600424       0.13556266        1       1.00000000       0.00661501      -0.01454919      -0.00696559
Pt       5.13996333      -0.00018776       0.13685202        1       0.00000000      -0.09597250      -0.02495677      -0.57632291
Ni       7.65229445      -0.01755080       0.10573520        1       1.00000000       0.03248668      -0.07598358      -0.24882095
Ni       1.27063775       2.21762504       0.06594082        1       1.00000000      -0.04592521       0.02743045       0.38294637
Pt       3.77987636       2.27278655       0.13317819        1       0.00000000      -0.04124718       0.01744165      -0.46823067
Ni       6.36925206       2.25244643       0.04564737        0       1.00000000      -0.07032163       0.01066980       0.24449874
Pt       8.91274899       2.28009071       0.03534287        0       0.00000000       0.07777293       0.07258109      -0.60298153
Ni       2.52410307       4.44634768       0.04892903        0       1.00000000       0.04002143       0.01801695       0.45864900
Ni       5.10833677       4.44544206       0.12453941        1       1.00000000      -0.13230147       0.07718960      -0.08190360
Ni       7.59164702       4.41456065       0.03126816        0       1.00000000      -0.03456138       0.04143919       0.20101446
Ni      10.23768873       4.42274456       0.01943854        0       1.00000000       0.08043965       0.01621794       0.37599566
Ni       3.80648030       6.58407632       0.01474313        0       1.00000000      -0.07826541      -0.09850077       0.25298375
Ni       6.35091388       6.59445820       0.00000000        0       1.00000000       0.06052714      -0.06451986       0.08360966
Pt       8.89467526       6.55705698       0.11029873        1       0.00000000       0.02144481       0.00882104      -0.54623517
Ni      11.51105824       6.58682569       0.01193480        0       1.00000000      -0.03891002       0.00921511       0.37194261
Ni       1.30529566       0.77094711       2.15542170        3       1.00000000       0.00603430       0.18295056       0.16613463
Ni       3.75807459       0.71749698       2.16095868        3       1.00000000      -0.22422007      -0.08777852       0.07008157
Ni       6.36614439       0.75378215       2.14878792        2       1.00000000       0.08228526       0.02869241       0.06022665
Pt       8.88944365       0.78824417       2.15276810        3       0.00000000       0.14311725       0.12181929       0.03356951
Ni       2.50429624       2.96464518       2.19487563        3       1.00000000      -0.05074881       0.08736890       0.19955952
Ni       5.09481384       2.97562109       2.11925773        2       1.00000000      -0.06597412       0.05142995       0.00014047
Ni       7.61025065       2.98983391       2.11898773        2       1.00000000       0.02159172       0.02143274       0.07480824
Ni      10.22606045       3.00032530       2.14378573        2       1.00000000       0.13907870       0.05456010       0.17547979
Ni       3.78246287       5.10424366       2.12665008        2       1.00000000      -0.17934969      -0.09572435       0.13163342
Ni       6.37985309       5.11303182       2.06169968        2       1.00000000       0.10286440      -0.03813725      -0.05930546
Ni       8.94050846       5.10348590       2.13167014        2       1.00000000       0.22146557      -0.18689546       0.01261767
Ni      11.45732375       5.15213846       2.10098656        2       1.00000000      -0.00042922      -0.01526941       0.15129331
Pt       5.13727242       7.26699055       2.08145996        2       0.00000000      -0.03911466      -0.10402460       0.00301891
Ni       7.66071374       7.38235267       2.12486020        2       1.00000000       0.04558676       0.17866224       0.07162239
Ni      10.21123785       7.32189872       2.17764799        3       1.00000000       0.04028141      -0.11222782       0.24232404
Ni      12.67784134       7.30731374       2.06842270        2       1.00000000      -0.08718612      -0.17474427       0.07989690
Ni       0.04223223       1.50067763       4.25530025        6       1.00000000       0.16271705       0.05041879      -0.16101331
Ni       2.47366075       1.48593201       4.20784199        5       1.00000000      -0.05735049       0.04493282      -0.24269959
Pt       5.05488137       1.44206862       4.13809481        4       0.00000000      -0.08833378      -0.04535925       0.08872682
Ni       7.62370670       1.47966605       4.23232601        5       1.00000000      -0.04537487      -0.08591302      -0.16092021
Ni       1.26608911       3.67218036       4.26922043        6       1.00000000       0.04947548      -0.00663334      -0.15761846
Ni       3.74143778       3.72110308       4.20575914        5       1.00000000      -0.11524456       0.07251788      -0.24382912
Pt       6.37139183       3.66767918       4.20210667        5       0.00000000       0.00897331      -0.03821862       0.04545757
Ni       8.96781132       3.70360888       4.18398344        5       1.00000000       0.17827350       0.08444976      -0.28364648
Ni       2.51028974       5.81788773       4.26426073        6       1.00000000      -0.07587878      -0.14732771      -0.19628040
Ni       5.05284258       5.85902755       4.25210802        6       1.00000000      -0.03789050      -0.12898074      -0.15881998
Pt       7.63549118       5.90795623       4.14667630        4       0.00000000       0.01816340       0.05547849       0.08048271
Ni      10.24162239       5.85765774       4.19430406        5       1.00000000       0.10485675      -0.07847230      -0.22837678
Pt       3.79172777       8.00458353       4.23311260        5       0.00000000      -0.07856462      -0.09720323       0.14387717
Ni       6.38210898       8.10194208       4.20302345        5       1.00000000       0.03069583       0.12070726      -0.25179158
Ni       8.90423087       8.07573066       4.16367258        5       1.00000000      -0.01948152       0.04386040      -0.32460714
Ni      11.43602274       8.01287753       4.16273872        5       1.00000000      -0.09651673      -0.19860159      -0.21485247
Pt      -0.00939326      -0.03897528       6.44889510        8       0.00000000       0.00374103       0.21544048       0.25292401
Pt       2.50928311      -0.01110017       6.38349293        8       0.00000000       0.11940082      -0.01277557       0.10622372
Pt       5.08362493      -0.02468275       6.33173855        7       0.00000000      -0.02771533      -0.14297956       0.70364446
Pt       7.60142642      -0.02829514       6.42392817        8       0.00000000      -0.05101372       0.13993418       0.35265791
Ni       1.24143845       2.25558887       6.37534381        8       1.00000000      -0.01414473       0.05637903      -0.26158764
Pt       3.74117464       2.28413437       6.32024575        7       0.00000000      -0.09614636       0.14826153       0.49511698
Ni       6.35364897       2.23202218       6.38791323        8       1.00000000      -0.03232442       0.02384140      -0.04606109
Pt       8.90439430       2.30760547       6.25571154        7       0.00000000       0.03601245      -0.07289509       0.57741032
Ni       2.47553282       4.44260784       6.36922784        8       1.00000000       0.03962287      -0.01228047      -0.37131670
Pt       5.08280276       4.48034739       6.42561291        8       0.00000000      -0.19401749      -0.03488269       0.05914659
Ni       7.61314574       4.41175089       6.38661660        8       1.00000000       0.00151588       0.00174944      -0.12834435
Ni      10.23368437       4.41097699       6.33888547        7       1.00000000       0.11334555      -0.03686888      -0.33713153
Ni       3.77816170       6.56176000       6.38643967        8       1.00000000      -0.11140975      -0.07069349      -0.12738196
Ni       6.35045892       6.59167502       6.37008671        8       1.00000000       0.07313311       0.04185285      -0.15770415
Pt       8.94076743       6.50182089       6.32057936        7       0.00000000       0.20956401       0.01741072       0.55240402
Ni      11.48644913       6.54287365       6.33130566        7       1.00000000      -0.00368216       0.03527212      -0.30231027
