64
Lattice="10.49953258839615 -0.01067864435986065 0.06163446477303849 5.240518316904456 9.117660732740672 0.00830189683822847 0.0 0.0 21.753522525670622" Properties=species:S:1:pos:R:3:tags:I:1:initial_magmoms:R:1:forces:R:3 unique_id=a3cdde9029b6403aad2d83c0336a1fb0 energy=-386.9063614148393 stress="0.006590937692696357 -0.00021190988741341766 0.0002891611837153652 -0.00021190988741341766 0.006694421577192191 -0.0001309758451683077 0.0002891611837153652 -0.0001309758451683077 -0.00012608448671560211" pbc="T T T"
Pt      -0.08918401      -0.02893605       0.07493836        1       0.00000000      -0.33620059      -0.12143986      -0.45701788
Ni       2.65204399      -0.03221771       0.00000000        0       1.00000000       0.07246747      -0.09570081       0.43459211
Ni       5.26495688      -0.04268636       0.07786973        1       1.00000000       0.17168633      -0.01089660       0.08658813
Ni       7.86639694      -0.03626793       0.06194720        1       1.00000000      -0.14188768      -0.16059088       0.69235835
Pt       1.27849940       2.27859565       0.03070247        0       0.00000000       0.04256278      -0.00983074      -0.89757396
Pt       3.97407612       2.24198994       0.05235777        1       0.00000000       0.12903106       0.10813620      -0.79719945
Pt       6.59793807       2.20610117       0.10233597        1       0.00000000       0.02186080      -0.20090715      -0.04567575
Ni       9.17623894       2.26555219       0.09830865        1       1.00000000      -0.03111923      -0.11023966       0.16089364
Pt       2.62449489       4.63726628       0.02739105        0       0.00000000       0.01436617       0.05644876      -0.94523563
Ni       5.25866277       4.56204818       0.07574914        1       1.00000000       0.19802049      -0.08553119       0.12291129
Pt       7.93162420       4.57089753       0.10807594        1       0.00000000       0.04663087       0.02747576       0.06702344
Ni      10.48548854       4.57980603       0.02939953        0       1.00000000       0.02856935       0.15383018       0.37396500
Ni       3.91910445       6.85786804       0.07667180        1       1.00000000      -0.11559758       0.15950485       0.17125372
Pt       6.57640518       6.84156345       0.14029122        1       0.00000000      -0.02705311       0.00577917      -0.12726929
Ni       9.20558017       6.84255111       0.03046776        0       1.00000000       0.03720525      -0.01699000       0.56235946
Ni      11.80019471       6.85783254       0.10323201        1       1.00000000       0.14365155       0.13699041       0.13561337
Pt       1.31178605       0.66519030       2.19950265        2       0.00000000       0.08435826      -0.13833327       0.03860349
Pt       4.02046105       0.72244110       2.21886246        2       0.00000000       0.12021652      -0.01807582       0.19783460
Ni       6.60544619       0.73719309       2.24484741        2       1.00000000       0.16770750      -0.09062318       0.22319848
Ni       9.14461156       0.72200568       2.23942383        2       1.00000000      -0.31111575      -0.00249979       0.11056282
Pt       2.65992146       3.04741067       2.23179320        2       0.00000000      -0.05442385       0.08734180       0.32394809
Ni       5.29335577       3.03373126       2.23897982        2       1.00000000       0.11179538       0.02619111       0.33844599
Pt       7.82621906       3.01933700       2.34247957        3       0.00000000      -0.17805522      -0.01260295       0.36846578
Pt      10.41952481       3.05112276       2.23391501        2       0.00000000      -0.26345619       0.13158637       0.00938883
Pt       4.03697321       5.38046341       2.16029370        2       0.00000000       0.15027792       0.12261991      -0.00594733
Ni       6.60013617       5.31483942       2.23676265        2       1.00000000       0.24521200      -0.05270723       0.34498678
Ni       9.16386034       5.33252249       2.26760557        3       1.00000000      -0.21001096       0.14644648       0.34080412
Pt      11.76251796       5.36081981       2.23433157        2       0.00000000      -0.11836005       0.02128200       0.15428126
Ni       5.24228209       7.58560158       2.19732267        2       1.00000000      -0.04187330       0.03937060       0.28098105
Ni       7.88721116       7.54400500       2.22299160        2       1.00000000       0.14277891      -0.24368546       0.20003499
Pt      10.49128035       7.57875497       2.15927924        2       0.00000000      -0.08249897       0.01018606      -0.02456038
Ni      13.14433681       7.63179878       2.21325294        2       1.00000000       0.03468723       0.21700739      -0.08700261
Pt      -0.07454091       1.54740181       4.37293996        5       0.00000000      -0.27011251       0.07862838      -0.34932430
Pt       2.67809217       1.47248883       4.43167200        5       0.00000000       0.00414990      -0.09834566      -0.15601305
Ni       5.32027712       1.51155227       4.42927305        5       1.00000000       0.14347633       0.00794624      -0.46963650
Ni       7.86918465       1.52850285       4.44657100        5       1.00000000      -0.11917965       0.08629246      -0.31791504
Pt       1.23092456       3.84635624       4.43528226        5       0.00000000      -0.21362416       0.13193986      -0.11287019
Pt       4.05388651       3.75059404       4.38993570        5       0.00000000       0.18409086      -0.03092655      -0.26434576
Ni       6.62406137       3.76572452       4.44156989        5       1.00000000       0.14794639      -0.00840077      -0.29841988
Ni       9.16980921       3.81966582       4.46269726        6       1.00000000      -0.19841183       0.15390243      -0.36597493
Pt       2.60945756       6.09935345       4.38768284        5       0.00000000       0.00391719       0.07718062      -0.27415358
Pt       5.35910937       6.02981834       4.37203372        5       0.00000000       0.20914188      -0.09636196      -0.27326920
Ni       7.93912972       6.02243024       4.42958916        5       1.00000000       0.21770560      -0.21490206      -0.46986141
Ni      10.46086655       6.04380241       4.49891951        6       1.00000000      -0.19998232      -0.03482633      -0.10506642
Pt       3.92116861       8.38039893       4.34404215        4       0.00000000       0.02199845      -0.00232147      -0.36063840
Pt       6.60856164       8.30335575       4.39577633        5       0.00000000      -0.03060483      -0.07460384      -0.23555573
Pt       9.21590623       8.25552962       4.47985721        6       0.00000000       0.04760919      -0.25972455      -0.11761294
Pt      11.81961052       8.41516820       4.42924654        5       0.00000000      -0.08560027       0.16788567      -0.26735655
Pt       0.03014488      -0.01125813       6.63380957        7       0.00000000       0.07558740       0.01499818       0.45035786
Ni       2.67604902      -0.03750480       6.69106579        8       1.00000000      -0.04726650       0.01793098      -0.22719234
Pt       5.25060531      -0.05885485       6.73552629        8       0.00000000      -0.04238297       0.07668437      -0.01049609
Ni       7.89802143      -0.02284560       6.71167013        8       1.00000000      -0.04836658      -0.04708828      -0.37448529
Pt       1.32828726       2.26062521       6.62144679        7       0.00000000      -0.03641226      -0.06128198       0.77512891
Pt       3.97323503       2.21583656       6.62882361        7       0.00000000       0.10975512      -0.01474894       0.75440608
Pt       6.61414249       2.21950196       6.57816149        7       0.00000000      -0.06370400       0.02828132       0.20283918
Pt       9.20672329       2.27139213       6.72191548        8       0.00000000      -0.05885740       0.09933066      -0.01106237
Pt       2.61394330       4.55131671       6.62272323        7       0.00000000       0.10139210      -0.03094308       0.75503641
Pt       5.30856539       4.54337559       6.69857760        8       0.00000000       0.19694136       0.04245931       0.18054162
Pt       7.98693821       4.58371015       6.57901321        7       0.00000000      -0.05808712       0.02871754       0.06726781
Ni      10.50728294       4.55955463       6.70640964        8       1.00000000      -0.02747985       0.04627785      -0.28476362
Pt       3.93684743       6.85989874       6.71573291        8       0.00000000       0.06512102      -0.01838458       0.04988825
Pt       6.68109538       6.85212405       6.64951333        7       0.00000000       0.03857707      -0.04458419       0.27873304
Ni       9.22201887       6.81397205       6.69429494        8       1.00000000       0.07106671      -0.01304840      -0.34485827
Pt      11.75922852       6.80656005       6.75352253        9       0.00000000      -0.18983768      -0.08750572      -0.17493983
