64
Lattice="10.181006280115502 0.011595640528217294 0.004805868135837381 5.1005452593283955 8.737985707459062 -0.06136577416733361 0.003923974901300742 -0.060121714694204784 8.67431235495753" Properties=species:S:1:pos:R:3:tags:I:1:initial_magmoms:R:1:forces:R:3 unique_id=0b9b764de67247f8a5fead7d0f9fa2ab stress="-0.007656247607285151 2.0039619659310987e-05 6.146165106699354e-06 2.0039619659310987e-05 -0.007602021214195072 -6.397088354339402e-06 6.146165106699354e-06 -6.397088354339402e-06 -0.0065313776573461685" energy=-390.69777885843644 pbc="T T T"
Ni       0.04544503      -0.05899423       0.20168160        4       1.00000000       0.07234497      -0.06341214       0.14624896
Ni       2.48516830      -0.03655092       0.22660314        4       1.00000000      -0.02487784      -0.01782081       0.17457313
Pt       5.08334131      -0.05859146       0.16583522        4       0.00000000      -0.01767926       0.02802150      -0.17463922
Ni       7.66336157      -0.05828501       0.20223664        4       1.00000000       0.00286932      -0.04172874       0.17584206
Ni       1.27574405       2.19617026       0.11671645        4       1.00000000       0.00096805       0.02624657       0.13099756
Pt       3.73169451       2.24986720       0.17219435        4       0.00000000      -0.00186999       0.01774122      -0.14151992
Pt       6.38137353       2.26273060       0.09678968        4       0.00000000      -0.01229661       0.03372260      -0.06152232
Pt       8.99252568       2.24801693       0.12244854        4       0.00000000       0.05112338       0.07553350      -0.17867576
Ni       2.52368704       4.41795305       0.08230539        4       1.00000000       0.01812006       0.03898637       0.05831970
Ni       5.08744497       4.45665901       0.08606577        4       1.00000000      -0.05390424       0.07618688       0.04863710
Ni       7.64020370       4.44744952       0.09179418        4       1.00000000       0.00618349       0.05286833       0.05462766
Ni      10.22884230       4.42228206       0.09092045        4       1.00000000       0.08644143       0.08509215       0.07944711
Ni       3.83395651       6.53089174       0.07035880        4       1.00000000       0.04461021      -0.00841316       0.03677454
Ni       6.35948420       6.54165302       0.07874589        4       1.00000000      -0.02119821      -0.02270909      -0.01537937
Ni       8.87241731       6.49686996       0.16227892        4       1.00000000      -0.08030122      -0.04563474       0.13589870
Ni      11.51113478       6.49772348       0.04240193        4       1.00000000       0.10077461      -0.03684263      -0.07266990
Ni       1.30538068       0.73135249       2.20121810        3       1.00000000       0.01186621       0.05686500       0.12016774
Ni       3.77645670       0.76295927       2.20910044        3       1.00000000      -0.03510136       0.05588018       0.01701982
Ni       6.36153315       0.74755546       2.24517832        3       1.00000000      -0.00949482       0.01724616       0.04112861
Pt       8.93354672       0.72747910       2.21366378        3       0.00000000       0.02993602      -0.00778801       0.13889955
Ni       2.50891822       2.93086010       2.23872821        3       1.00000000      -0.00608117       0.02390220       0.03391291
Ni       5.06022686       2.93297721       2.20164072        3       1.00000000      -0.09797537       0.04898844      -0.04123247
Ni       7.64948287       2.95350764       2.20730038        3       1.00000000       0.02203335       0.00662168       0.00137142
Ni      10.24560847       2.95162817       2.22409632        3       1.00000000       0.08371463       0.00112661       0.03725036
Ni       3.81829284       5.07681218       2.14876446        3       1.00000000       0.00051734      -0.02874472       0.01606996
Ni       6.34285591       5.09218329       2.09503190        3       1.00000000      -0.04879434      -0.05377741      -0.01060073
Ni       8.91467630       5.02717226       2.12930144        3       1.00000000       0.05035001      -0.10973545       0.03916943
Ni      11.50293049       5.03146296       2.16477748        3       1.00000000       0.08271460      -0.08270855       0.09026665
Ni       5.13078063       7.20688578       2.10328155        3       1.00000000      -0.02016310      -0.09119478       0.05868825
Ni       7.58257822       7.26106173       2.08881985        3       1.00000000      -0.04959561      -0.05447280       0.05726802
Pt      10.24686054       7.16382636       2.16380423        3       0.00000000       0.05566322      -0.14393703       0.10325565
Ni      12.75947046       7.20126163       2.10737895        3       1.00000000       0.09553773      -0.13171136       0.02488561
Ni       0.06691347       1.46645280       4.26582213        2       1.00000000       0.06170940      -0.00544231      -0.03088635
Ni       2.49913461       1.49542188       4.23231441        2       1.00000000      -0.01184799       0.07053703      -0.04037776
Ni       5.09091215       1.44544025       4.21998834        2       1.00000000      -0.09613140       0.02076691      -0.16224579
Ni       7.61619706       1.42490028       4.27068383        2       1.00000000      -0.03441247      -0.07730136      -0.03921633
Ni       1.28679197       3.61781789       4.27953197        2       1.00000000       0.00808541       0.00251306      -0.03029661
Ni       3.76719414       3.66685574       4.21165746        2       1.00000000      -0.06562749       0.06111094      -0.15704444
Pt       6.31898080       3.57655659       4.26154051        2       0.00000000      -0.02855836      -0.01577839      -0.08428584
Ni       8.97471538       3.63311352       4.21256554        2       1.00000000       0.03289054       0.02886549      -0.16443190
Ni       2.53139379       5.73275951       4.25975860        2       1.00000000      -0.04931239      -0.04726161      -0.14829946
Ni       5.05809980       5.76096762       4.26070175        2       1.00000000      -0.02077823      -0.08941814      -0.13310802
Pt       7.61814871       5.78527343       4.20391187        2       0.00000000       0.00485025       0.00387515      -0.00995244
Ni      10.25562822       5.73836903       4.27840314        2       1.00000000      -0.00536845      -0.04184868      -0.01504763
Pt       3.83056901       7.88819050       4.20841593        2       0.00000000      -0.00205282      -0.03042276       0.04869016
Ni       6.35000166       8.00098773       4.18261663        2       1.00000000      -0.05170376       0.03740572      -0.08421081
Pt       8.88298989       8.04193508       4.16606106        2       0.00000000      -0.09537072       0.00451004      -0.04637691
Ni      11.49029573       7.95372562       4.21127641        2       1.00000000       0.03032508      -0.07854917      -0.07680897
Pt       0.01419038      -0.08499366       6.47303922        1       0.00000000      -0.06671422       0.02644415       0.14080993
Pt       2.52122606      -0.02591424       6.47700325        1       0.00000000       0.08651291       0.06635644       0.19168011
Pt       5.12612469      -0.01587145       6.33263823        1       0.00000000      -0.04256039       0.07172726       0.04728255
Pt       7.63457742      -0.08179856       6.47103332        1       0.00000000       0.05037330       0.00761424       0.20375784
Ni       1.27735958       2.21586549       6.36790789        1       1.00000000       0.02319155       0.04994119      -0.06831447
Pt       3.80990181       2.28908034       6.28942162        1       0.00000000       0.00770749       0.08166308      -0.04930301
Ni       6.37004418       2.19459889       6.32561371        1       1.00000000      -0.01095534      -0.00064515      -0.07809834
Pt       8.92412872       2.25810323       6.27348866        1       0.00000000      -0.00578532       0.04179472      -0.04396862
Ni       2.52392498       4.38688167       6.35899195        1       1.00000000      -0.01184962       0.07202673      -0.07598302
Ni       5.09889069       4.39677070       6.38955127        1       1.00000000      -0.02682203       0.09012849      -0.01922048
Ni       7.57882429       4.33498116       6.40631472        1       1.00000000      -0.13696822       0.01095197      -0.02093043
Ni      10.27365084       4.33316794       6.36622136        1       1.00000000       0.12985423       0.00434678      -0.07475524
Ni       3.82184086       6.41782782       6.37841867        1       1.00000000      -0.02741854      -0.06687621      -0.02452042
Ni       6.33401024       6.45286232       6.38727066        1       1.00000000      -0.01326773       0.01160912      -0.08470472
Pt       8.94619966       6.39485326       6.45669410        1       0.00000000       0.02020613      -0.04097578       0.15455918
Ni      11.50530872       6.44896083       6.35027439        1       1.00000000       0.01136371       0.02593304      -0.14887258
