64
Lattice="10.197169063307376 -0.027675084843596154 0.014725157725392667 5.074617205127245 8.843488438005389 0.0104199928237226 0.012023040936404635 0.002882557526314789 8.791668087531054" Properties=species:S:1:pos:R:3:tags:I:1:initial_magmoms:R:1:forces:R:3 unique_id=90cbb693e9c9425f8d29653d58909679 stress="-0.00034595592795001046 -2.993487197362067e-06 4.737696056252659e-06 -2.993487197362067e-06 -0.0003466143175242867 5.6326703436296716e-06 4.737696056252659e-06 5.6326703436296716e-06 -0.0002715674543386573" energy=-394.8954212447543 pbc="T T T"
Ni       0.05042672       0.04530124       0.15453789        4       1.00000000       0.19286232       0.12712465       0.17152360
Ni       2.55623199      -0.01024669       0.21278601        4       1.00000000       0.05401459      -0.04262866       0.30593491
Ni       5.05706219      -0.06489041       0.09971152        4       1.00000000      -0.09049045      -0.08783733       0.10745363
Pt       7.65886079      -0.07945783       0.00715136        4       0.00000000      -0.00538964      -0.06739279      -0.16866229
Ni       1.22560561       2.23437266       0.11445683        4       1.00000000      -0.08464214       0.13833631       0.14466942
Pt       3.74321423       2.21012686       0.20177935        4       0.00000000      -0.08773189      -0.00129176       0.28192669
Pt       6.40081718       2.28040853       0.18715154        4       0.00000000       0.04261349       0.12763506       0.51846195
Ni       8.97527972       2.25235763       0.08405681        4       1.00000000       0.09806155       0.16448602       0.02285235
Ni       2.49750957       4.44561002       0.11403559        4       1.00000000      -0.15515872       0.01875328       0.16922124
Ni       5.04620861       4.43200729       0.17877570        4       1.00000000      -0.15801479       0.01463351       0.31095623
Ni       7.71952309       4.41523475       0.09344303        4       1.00000000       0.34910675       0.05582385       0.05239946
Ni      10.19601580       4.39892796       0.12209782        4       1.00000000       0.05115004       0.02153144       0.11952511
Ni       3.78728941       6.57154853       0.06942013        4       1.00000000      -0.04869485      -0.20499771       0.06161564
Pt       6.40946660       6.62822254       0.00417684        4       0.00000000       0.10060901      -0.00544503      -0.28588864
Ni       8.95177785       6.60768296       0.19720016        4       1.00000000       0.11317340      -0.07142434       0.21509862
Ni      11.41321793       6.55250640       0.08782194        4       1.00000000      -0.14542077      -0.14895527       0.00457791
Ni       1.32932637       0.78149680       2.16519091        3       1.00000000       0.01134460       0.10430896      -0.04053420
Ni       3.78795253       0.68119846       2.22827643        3       1.00000000       0.00152527      -0.10622606       0.00546283
Pt       6.26033357       0.69512275       2.27934861        3       0.00000000      -0.05076321      -0.03494827      -0.06657725
Pt       8.99292052       0.82133548       2.19053380        3       0.00000000       0.02577013       0.01333867      -0.12599783
Ni       2.50658581       2.99377340       2.22362695        3       1.00000000      -0.09591110       0.15691477      -0.06297905
Ni       5.02874599       2.95919843       2.27257743        3       1.00000000      -0.15834845      -0.07308680       0.14989727
Ni       7.71426126       2.98241354       2.22993359        3       1.00000000       0.20121571       0.11433899       0.05952058
Ni      10.22144099       2.99039253       2.19937513        3       1.00000000       0.01004612       0.07193467       0.00771804
Ni       3.77803456       5.08765428       2.22050903        3       1.00000000      -0.08700946      -0.07749870       0.08668268
Pt       6.42047173       5.11792712       2.20413939        3       0.00000000       0.13089646       0.02024128      -0.06967357
Ni       8.96747879       5.14494322       2.22613720        3       1.00000000       0.12353066      -0.02443942       0.09230710
Ni      11.41443795       5.08875875       2.19946716        3       1.00000000      -0.11989330      -0.02503076      -0.05664461
Pt       5.09340936       7.35028359       2.18711200        3       0.00000000       0.04147968      -0.10553198      -0.24565121
Ni       7.71338498       7.37070429       2.22337547        3       1.00000000       0.04290225      -0.11196865       0.04584619
Ni      10.11208689       7.30294081       2.23880757        3       1.00000000      -0.05026565      -0.14598625       0.09471856
Pt      12.63907178       7.22141683       2.23868426        3       0.00000000      -0.14923596      -0.15094066      -0.08297920
Ni       0.01689753       1.51420178       4.38507808        2       1.00000000       0.09375339      -0.00786676      -0.04938498
Pt       2.57210878       1.48689185       4.25523879        2       0.00000000       0.11511192       0.05725084       0.13619165
Ni       5.08517722       1.42714204       4.37622504        2       1.00000000      -0.01503836      -0.00579907       0.10471358
Pt       7.70255197       1.47301145       4.37637986        2       0.00000000      -0.01062304       0.08360510       0.16650659
Pt       1.23416871       3.75522263       4.36899599        2       0.00000000      -0.04880449      -0.00440648      -0.00807249
Ni       3.80914609       3.73722933       4.32923065        2       1.00000000      -0.05322189       0.08414149      -0.06632926
Pt       6.36477405       3.71241241       4.35745801        2       0.00000000      -0.07422570       0.02319875       0.09417535
Ni       8.93339432       3.71603383       4.39244164        2       1.00000000       0.02833851       0.14018309      -0.08044650
Ni       2.51468600       5.87079519       4.41534400        2       1.00000000      -0.08749774      -0.05716232      -0.01351034
Ni       5.05079110       5.87049240       4.37500688        2       1.00000000      -0.05349600      -0.11276973      -0.15771681
Ni       7.70658396       5.86992783       4.37398239        2       1.00000000       0.23005255      -0.02868383      -0.14669799
Ni      10.18385929       5.90122212       4.35606546        2       1.00000000       0.00880321       0.02912610      -0.18668975
Pt       3.75727555       8.02069820       4.41309351        2       0.00000000       0.04256570       0.00986920      -0.00394592
Pt       6.41717891       8.03970826       4.34563586        2       0.00000000       0.07746160       0.02095455      -0.03707760
Ni       8.97000186       8.06609153       4.34629220        2       1.00000000       0.03534495      -0.05180185      -0.07942862
Ni      11.38436139       8.03911642       4.43330426        2       1.00000000      -0.08090496      -0.12234088      -0.03732845
Pt      -0.05371033       0.04211374       6.58304577        1       0.00000000      -0.14489929       0.03259595       0.04857422
Pt       2.58175999      -0.02835479       6.59254356        1       0.00000000       0.04760436       0.00569247       0.17351916
Ni       5.14893106      -0.05561808       6.49438190        1       1.00000000       0.02161253      -0.08218648      -0.15877934
Ni       7.60999782      -0.06788419       6.43649836        1       1.00000000      -0.16360142      -0.10287226      -0.30839222
Ni       1.23252268       2.26239641       6.52856460        1       1.00000000      -0.02637733       0.05413948      -0.06911324
Pt       3.78897279       2.25950241       6.47107855        1       0.00000000      -0.17885347       0.09784255      -0.23252882
Pt       6.42135746       2.16869447       6.51765954        1       0.00000000       0.09597982      -0.08002106      -0.17137357
Ni       8.96661447       2.24898411       6.53121450        1       1.00000000       0.06471396       0.18993771      -0.14910834
Ni       2.49104887       4.47719639       6.52164765        1       1.00000000      -0.12858938       0.12931192      -0.03672414
Pt       5.06509921       4.52858037       6.56105842        1       0.00000000      -0.03867099       0.19278909       0.15434591
Ni       7.68698762       4.40603385       6.52458298        1       1.00000000       0.06642638      -0.03067778      -0.11807455
Ni      10.20614177       4.37759589       6.54344365        1       1.00000000       0.04627419      -0.03321445      -0.00164207
Ni       3.75534334       6.62805924       6.52908999        1       1.00000000      -0.17076621       0.05479126      -0.06282227
Ni       6.36358631       6.61330980       6.42057199        1       1.00000000       0.05361718      -0.01480764      -0.49219437
Pt       8.97848756       6.54720407       6.52255925        1       0.00000000       0.11076669      -0.07352972       0.13855596
Ni      11.49534452       6.60537191       6.51178687        1       1.00000000       0.03381169      -0.06106027      -0.17198291
