64
Lattice="10.422753818974362 0.006467831438528433 0.025430588162586493 5.216978215820402 8.976463469502107 -0.03058695779140168 0.0 0.0 21.644246476345494" Properties=species:S:1:pos:R:3:tags:I:1:initial_magmoms:R:1:forces:R:3 unique_id=904013adb4d746c1a97f38d42f335fc4 stress="0.006087036339364303 0.00024396327826136787 0.0003438438352109123 0.00024396327826136787 0.005803252732012488 -0.0002332597921601534 0.0003438438352109123 -0.0002332597921601534 -0.0016360968517991539" energy=-379.66559234228566 pbc="T T T"
Ni      -0.04007052      -0.00028288       0.11954543        1       1.00000000      -0.25227777      -0.09965000      -0.17470189
Ni       2.62208543      -0.01558842       0.11462191        1       1.00000000       0.12777258      -0.08021911      -0.29112753
Ni       5.22936794      -0.03269692       0.10919012        1       1.00000000       0.12632283       0.07877918      -0.29197188
Ni       7.84333145      -0.03414948       0.07691612        1       1.00000000       0.02945406      -0.08428514       0.53822183
Ni       1.29559388       2.25334453       0.09605516        1       1.00000000       0.06588257       0.08471399      -0.32552468
Pt       3.85653383       2.29230973       0.08904080        1       0.00000000      -0.00175713       0.14951946      -0.70020851
Pt       6.53151240       2.17533263       0.09879523        1       0.00000000      -0.06134559      -0.13032587      -0.31854854
Ni       9.14117603       2.21297308       0.10930801        1       1.00000000      -0.08427317      -0.16466719      -0.04984165
Ni       2.59626226       4.50638792       0.00000000        0       1.00000000      -0.02630309       0.02639624       0.25022233
Ni       5.21016271       4.49545868       0.08766930        1       1.00000000       0.16762789      -0.04743916      -0.12151361
Pt       7.89241086       4.50901811       0.02596657        0       0.00000000      -0.00876769      -0.00087449       0.13949983
Ni      10.45471050       4.50708024       0.00622807        0       1.00000000       0.04535834       0.07085925       0.25924688
Ni       3.88622842       6.74992385       0.09672276        1       1.00000000      -0.06660101       0.14849222       0.03711825
Pt       6.50059607       6.77599897       0.13415365        1       0.00000000      -0.07846243       0.02429479      -0.45613438
Ni       9.15239697       6.74179512       0.01457383        0       1.00000000      -0.03397570      -0.02849270       0.29135775
Ni      11.74811209       6.73971852       0.00492659        0       1.00000000       0.15089590       0.05244616       0.32347600
Pt       1.27977988       0.69225311       2.09928288        2       0.00000000      -0.00755931      -0.02565480       0.09412135
Pt       3.97314868       0.75685817       2.19527907        3       0.00000000       0.18511942       0.03721637       0.12233906
Ni       6.55631007       0.72212853       2.22166279        3       1.00000000       0.17210931      -0.04206531       0.20504002
Ni       9.08100078       0.70587011       2.16763126        3       1.00000000      -0.19709175      -0.03801031      -0.01320058
Ni       2.61683598       3.00724049       2.18549022        3       1.00000000       0.00932321       0.07217525       0.24858518
Ni       5.22212042       2.99978843       2.23534954        3       1.00000000       0.05576875       0.05000129       0.39196433
Pt       7.78212103       2.98800652       2.30871591        4       0.00000000      -0.09492110       0.04718188       0.18551304
Pt      10.40054839       3.01170309       2.13238819        2       0.00000000      -0.11719523       0.15148346       0.05189712
Pt       3.94413692       5.21500488       2.12716075        2       0.00000000       0.04750644      -0.06435972      -0.01562757
Ni       6.54713384       5.23050060       2.20029557        3       1.00000000       0.13926924      -0.06742001       0.22675588
Ni       9.10140815       5.25133580       2.21927831        3       1.00000000      -0.11602589       0.02384583       0.24622935
Pt      11.75270394       5.25356044       2.14255849        2       0.00000000       0.06237424      -0.00540467       0.01269986
Ni       5.18541634       7.47154024       2.14525355        2       1.00000000      -0.15732603      -0.05183024       0.11055870
Ni       7.83836736       7.42305458       2.16970716        3       1.00000000       0.12226491      -0.20300462       0.16939483
Pt      10.43635537       7.44740046       2.09246045        2       0.00000000      -0.00108508      -0.04975878      -0.05778346
Ni      13.05780593       7.51058020       2.13996772        2       1.00000000      -0.00262757       0.10189477      -0.12273187
Pt      -0.06435108       1.52990468       4.32643395        5       0.00000000      -0.09620845       0.10854706      -0.13960978
Pt       2.65130420       1.53564342       4.31744684        5       0.00000000      -0.09467179       0.01549536      -0.10056659
Ni       5.26452806       1.51498590       4.34564145        5       1.00000000       0.07430109       0.09878034      -0.40952201
Ni       7.79938535       1.49899283       4.35785731        6       1.00000000      -0.06440418      -0.07193902      -0.25391087
Pt       1.31396339       3.83700267       4.39854763        6       0.00000000      -0.08185936       0.08740489      -0.01661341
Ni       3.94242463       3.72769706       4.34186669        5       1.00000000       0.06321330      -0.03119364      -0.32926872
Ni       6.54588008       3.71107730       4.36317025        6       1.00000000      -0.02660701       0.00337183      -0.18973832
Ni       9.09271591       3.78676861       4.40200268        6       1.00000000      -0.02382518       0.13447994      -0.14523201
Ni       2.60423982       5.95356730       4.37708591        6       1.00000000       0.06498861       0.04859096      -0.13565371
Pt       5.24195902       5.87442093       4.28649054        5       0.00000000       0.06345856      -0.12187396      -0.11636800
Ni       7.87934768       5.88925849       4.35050703        6       1.00000000       0.06781655      -0.20793824      -0.29366391
Ni      10.40927060       5.94438283       4.42140701        6       1.00000000      -0.06618886       0.01913376      -0.07215926
Pt       3.88111580       8.19537837       4.26491496        5       0.00000000       0.03385327      -0.02735559      -0.17721942
Pt       6.54076584       8.15871922       4.27565657        5       0.00000000      -0.02194166       0.00120818      -0.17466693
Pt       9.15397657       8.11856147       4.35321032        6       0.00000000      -0.06482066      -0.06840788      -0.05580112
Pt      11.75660884       8.20155421       4.34435076        5       0.00000000      -0.02932097      -0.03590647      -0.06161664
Pt      -0.04070188      -0.03076932       6.63983018        9       0.00000000       0.05971567       0.03669062       0.25126332
Pt       2.64323106      -0.05399817       6.64424648        9       0.00000000      -0.02900669       0.03579153       0.46629378
Pt       5.28375884      -0.11610982       6.63770682        9       0.00000000      -0.02902396       0.05546593       0.21520771
Ni       7.81936053      -0.02917382       6.59108825        9       1.00000000       0.03960772       0.04261146      -0.22106297
Pt       1.30072458       2.31621292       6.63185733        9       0.00000000      -0.05261020      -0.02293199       0.32210664
Pt       3.92945051       2.25453499       6.49345551        8       0.00000000       0.16658179      -0.09745582       0.72677045
Pt       6.55931945       2.21026316       6.44860372        7       0.00000000      -0.06569451      -0.00847256       0.49236986
Pt       9.10733826       2.30611289       6.59860161        9       0.00000000      -0.00038014       0.24156861       0.10253364
Ni       2.58288522       4.49928028       6.54803241        8       1.00000000      -0.03422551       0.08183633      -0.16217762
Pt       5.22505150       4.46334131       6.56031050        9       0.00000000       0.04348617      -0.01141515       0.21685224
Ni       7.88148626       4.48533329       6.45886480        8       1.00000000       0.05929141       0.05656460      -0.05609447
Ni      10.42208734       4.54009903       6.55943519        9       1.00000000      -0.11760441       0.11634092      -0.34238253
Pt       3.79592491       6.68898218       6.58704347        9       0.00000000       0.01744236      -0.04967988      -0.06145356
Pt       6.60764767       6.64288653       6.50949337        8       0.00000000       0.02463457      -0.05378453       0.41833103
Ni       9.17818602       6.63966034       6.54449296        8       1.00000000       0.04062886      -0.11631480      -0.29012238
Ni      11.71532905       6.65836656       6.55861912        9       1.00000000      -0.12008055      -0.19505085      -0.37214987
