64
Lattice="10.244853277418068 -0.008380647073660307 -0.01666256716265379 5.115168785443091 8.781795956809018 -0.021670735054330568 0.0 0.0 21.495776936107035" Properties=species:S:1:pos:R:3:tags:I:1:initial_magmoms:R:1:forces:R:3 unique_id=12ae2f518a6746e2b4d8ff2edb6ed606 stress="0.005473462128940249 -8.706661076807138e-05 -6.011155483488265e-05 -8.706661076807138e-05 0.0047675266573413404 1.0110462419539522e-05 -6.011155483488265e-05 1.0110462419539522e-05 -0.0020541018847739633" energy=-371.1220281798895 pbc="T T T"
Ni       0.00377805       0.01498346       0.15145276        2       1.00000000       0.08460842      -0.03059633      -0.36316947
Ni       2.55270593      -0.00459798       0.18076189        2       1.00000000      -0.01506377      -0.00290946      -0.28316328
Ni       5.12309365      -0.01415987       0.11812307        1       1.00000000       0.00822083       0.20469885      -0.36477328
Ni       7.68235862      -0.04620438       0.12581941        1       1.00000000      -0.12503456      -0.07751162      -0.29906583
Ni       1.24204422       2.20589897       0.15860190        2       1.00000000      -0.05291338       0.06528199      -0.06548449
Pt       3.79112231       2.21168177       0.14095512        1       0.00000000      -0.00025259      -0.00393869      -0.62879907
Pt       6.45370866       2.20539694       0.06018479        1       0.00000000       0.04688277      -0.06609391      -0.03364834
Ni       8.99646906       2.22215220       0.10234261        1       1.00000000       0.00998538       0.15062676      -0.13489503
Ni       2.54968305       4.42419088       0.02967305        0       1.00000000       0.02155616      -0.01755062       0.20200245
Ni       5.09909632       4.41151360       0.05303149        1       1.00000000      -0.07257921      -0.00693601       0.30722497
Ni       7.71994395       4.39213953       0.05555278        1       1.00000000       0.12633581       0.03774949       0.29513774
Ni      10.22882742       4.37849685       0.02809943        0       1.00000000      -0.06593645      -0.02063513       0.31725965
Ni       3.80515988       6.57898560       0.05204961        1       1.00000000      -0.02200402      -0.00187653       0.31650298
Pt       6.38774621       6.57295099       0.04506994        0       0.00000000       0.00708539       0.06184769      -0.03675641
Ni       8.96089425       6.56229109       0.10361766        1       1.00000000      -0.11988524      -0.14345211      -0.29148613
Ni      11.54020748       6.57401578       0.00000000        0       1.00000000       0.06524344      -0.01633751       0.12851480
Ni       1.28295493       0.74136503       2.10832696        3       1.00000000      -0.00385914       0.03240472       0.08327679
Ni       3.83935761       0.73404397       2.14984579        3       1.00000000       0.09516907       0.00137222       0.13845453
Ni       6.39237836       0.74765857       2.18001199        4       1.00000000      -0.02237892       0.14163096       0.29870929
Pt       8.95885871       0.76126692       2.12368442        3       0.00000000      -0.04436363       0.10367621       0.09077863
Ni       2.54907007       2.94336540       2.15406866        4       1.00000000       0.06329848       0.10806766       0.05491663
Ni       5.11781595       2.94638019       2.18305669        4       1.00000000      -0.05224177       0.05866301       0.12642818
Ni       7.69259170       2.96343333       2.15636353        4       1.00000000       0.03132931       0.12672713       0.15844507
Ni      10.23083139       2.92522279       2.14009135        3       1.00000000      -0.01939821       0.05958344       0.22719813
Ni       3.86719784       5.11467425       2.13818942        3       1.00000000       0.10041757      -0.06423189       0.02660834
Ni       6.39568681       5.10733306       2.14239540        3       1.00000000      -0.00422867       0.00307354       0.03851393
Ni       8.92204575       5.07900599       2.13491694        3       1.00000000      -0.03113434      -0.09658030       0.11813949
Pt      11.54672837       5.06428569       2.13284274        3       0.00000000       0.04099174      -0.04792250       0.04023860
Ni       5.09567954       7.27023918       2.10902786        3       1.00000000      -0.11323324      -0.16942166      -0.00383293
Ni       7.66199992       7.29044904       2.11201343        3       1.00000000       0.02085494      -0.14719440       0.09315361
Pt      10.26206863       7.31454510       2.07548115        3       0.00000000       0.07362405      -0.04088637       0.04927560
Ni      12.81290028       7.28541133       2.08843156        3       1.00000000       0.08717127      -0.09480423      -0.03068310
Ni      -0.03614626       1.50915414       4.26308387        6       1.00000000      -0.05250841       0.06515708      -0.11304034
Pt       2.54245803       1.54059058       4.16594421        5       0.00000000      -0.03236116       0.04659287       0.02204913
Ni       5.16623445       1.46210610       4.22719118        5       1.00000000       0.03538563      -0.06993115      -0.30228530
Ni       7.65402176       1.46328507       4.25009986        6       1.00000000       0.00224235      -0.03451556      -0.18331417
Ni       1.24813204       3.70955054       4.28338667        6       1.00000000      -0.03955340      -0.02996165      -0.05432817
Ni       3.82598731       3.73421508       4.23542960        5       1.00000000      -0.06893702       0.08598927      -0.25984298
Pt       6.39484504       3.66545865       4.25083458        6       0.00000000       0.00394856      -0.02211700      -0.04135714
Ni       8.98031951       3.67834731       4.23225447        5       1.00000000       0.06704971       0.02630918      -0.22086338
Ni       2.53578103       5.80228588       4.30831864        6       1.00000000      -0.06319403      -0.09399838      -0.09398396
Ni       5.07677901       5.80061778       4.27283284        6       1.00000000      -0.07934028      -0.04194156      -0.23379213
Ni       7.68690319       5.79055317       4.24027603        5       1.00000000       0.11389961      -0.05892879      -0.29893880
Ni      10.26715956       5.78623851       4.27790614        6       1.00000000       0.02887008      -0.01500622      -0.13055775
Pt       3.76275506       7.97149342       4.21360801        5       0.00000000      -0.02019724      -0.09671939       0.05966178
Pt       6.37022676       7.96981424       4.17264915        5       0.00000000      -0.07553341       0.01139250      -0.10759517
Pt       8.99280554       8.00507466       4.20252961        5       0.00000000       0.02906277      -0.00472470      -0.03263195
Ni      11.51954944       8.01609376       4.22964262        5       1.00000000      -0.03972479      -0.07164488      -0.19671845
Pt      -0.02510419      -0.07900442       6.48383998        9       0.00000000      -0.00048009       0.14359792       0.36917544
Pt       2.55022045      -0.04390113       6.49577694        9       0.00000000       0.07983334       0.05530452       0.52393692
Pt       5.14608221      -0.02224289       6.43860325        8       0.00000000       0.02101580       0.08840334       0.43830634
Pt       7.65805337      -0.06925185       6.44365489        8       0.00000000      -0.04062392       0.04738417       0.31643959
Pt       1.26099948       2.29803871       6.44262325        8       0.00000000      -0.00327550      -0.04230822       0.23372219
Pt       3.90136006       2.31062780       6.34419325        7       0.00000000       0.05829292       0.08579314       0.58620529
Ni       6.39798482       2.22510611       6.32800243        7       1.00000000      -0.03111353      -0.01408206       0.25247964
Pt       8.89181210       2.27801122       6.38600635        8       0.00000000       0.04870441      -0.06883344       0.07672066
Ni       2.55513865       4.46428885       6.38102800        8       1.00000000       0.07880962      -0.05629403      -0.28203546
Ni       5.12337422       4.44376585       6.39121460        8       1.00000000       0.01277049       0.06768967      -0.23406840
Ni       7.61736181       4.38313932       6.39556119        8       1.00000000      -0.17269209       0.02539714      -0.13442870
Ni      10.26682459       4.40575542       6.37054293        8       1.00000000       0.06935101      -0.04188984      -0.21353814
Ni       3.81610044       6.48773351       6.39602350        8       1.00000000       0.06029175      -0.04624773      -0.28633830
Ni       6.35856001       6.48988274       6.31897941        7       1.00000000       0.00587882      -0.07467424       0.07058734
Pt       8.96038577       6.43284212       6.42093264        8       0.00000000      -0.12644358       0.00335048       0.14950937
Ni      11.54271615       6.49922841       6.36671605        8       1.00000000       0.01230411       0.02493319      -0.25415708
