64
Lattice="10.742592009188986 0.00692682387602555 -0.015894506949372788 5.377294810038672 9.301631975186197 0.004661527169343776 -0.01297781057969487 0.011887672394516557 9.357916447630283" Properties=species:S:1:pos:R:3:tags:I:1:initial_magmoms:R:1:forces:R:3 unique_id=37dfd81e42694a5e8b99ce81dbac5763 stress="-8.47357040465041e-05 -8.262014774049893e-07 -2.869751171404966e-06 -8.262014774049893e-07 -8.4805368508592e-05 1.9567675985009616e-06 -2.869751171404966e-06 1.9567675985009616e-06 -4.173395809638214e-05" energy=-427.17471794944214 pbc="T T T"
Pt      -0.00050649       0.00153858       0.09305133        4       0.00000000       0.00699168       0.00566327       0.05750760
Pt       2.66313248      -0.02382510       0.08481410        4       0.00000000      -0.05857783      -0.02445549       0.05252068
Pt       5.37118801      -0.00388984       0.07659417        4       0.00000000      -0.01138752      -0.02609356       0.09582630
Pt       8.07554844       0.02151228       0.07762667        4       0.00000000       0.02754999      -0.00253954       0.06863218
Pt       1.32394199       2.35322238       0.08986606        4       0.00000000      -0.05370542       0.03609526       0.03454752
Pt       4.01230943       2.35893940       0.08884792        4       0.00000000      -0.04768632       0.10023149       0.07870871
Pt       6.74676709       2.34032236       0.08267787        4       0.00000000       0.04574588       0.04380985       0.07326494
Ni       9.40191502       2.33813583       0.07247928        4       1.00000000       0.02140807       0.05101950       0.32515995
Ni       2.68301556       4.65409794       0.08095537        4       1.00000000      -0.02800691       0.01861543       0.26750528
Pt       5.36946955       4.68268537       0.08569744        4       0.00000000       0.04452951       0.06071242       0.03108792
Pt       8.06673717       4.65759975       0.00023353        4       0.00000000       0.02703120       0.01608863      -0.14401910
Pt      10.75387279       4.63915082      -0.00636543        4       0.00000000      -0.01830338      -0.00763551      -0.14587339
Pt       4.04567258       6.95533419       0.09204216        4       0.00000000       0.01700063      -0.01137229       0.03181645
Ni       6.72246048       6.97378534       0.07994808        4       1.00000000       0.00507760      -0.03500809       0.28308593
Pt       9.37872945       6.96673600      -0.00332301        4       0.00000000      -0.02373626      -0.05521629      -0.15931355
Pt      12.10170910       6.94795965      -0.00359610        4       0.00000000       0.02815388      -0.09886389      -0.12892991
Pt       1.33964214       0.78051664       2.36498470        3       0.00000000       0.00813354       0.00025189       0.10615641
Pt       4.01967318       0.78222634       2.36171512        3       0.00000000      -0.02387062      -0.01864919       0.12744792
Pt       6.71276966       0.78328721       2.35547405        3       0.00000000      -0.01238890      -0.02138976       0.12724346
Pt       9.40237154       0.79677295       2.32671115        3       0.00000000       0.02158445       0.01486045       0.05034036
Pt       2.67190823       3.12797542       2.36413228        3       0.00000000      -0.05802443       0.05715522       0.12581122
Pt       5.37107503       3.11401272       2.36538415        3       0.00000000       0.03231164       0.03326342       0.13040381
Pt       8.06950157       3.11540621       2.33395222        3       0.00000000       0.03423567       0.10725836       0.08818675
Pt      10.73961387       3.11803920       2.34641070        3       0.00000000      -0.00276760       0.10401716       0.10460286
Pt       4.02629305       5.42810086       2.36388727        3       0.00000000       0.01596181       0.03048453       0.11058660
Pt       6.70944910       5.44362641       2.35546755        3       0.00000000       0.02896472      -0.01333129       0.11526309
Pt       9.40117579       5.43123477       2.36527279        3       0.00000000       0.02714167       0.02111547       0.18263415
Pt      12.09154188       5.41832057       2.35358919        3       0.00000000      -0.08052204       0.00171820       0.13183507
Pt       5.38119460       7.73424527       2.35910150        3       0.00000000      -0.01014757      -0.06376925       0.05547779
Pt       8.05049907       7.74144290       2.33515305        3       0.00000000       0.04958356      -0.07449583       0.01738918
Pt      10.74284006       7.74345505       2.36179370        3       0.00000000      -0.01571320      -0.12166711       0.12325060
Pt      13.42886127       7.75297169       2.35441851        3       0.00000000      -0.04461665      -0.02877930       0.05249641
Pt       0.00434940       1.58978261       4.65632465        2       0.00000000      -0.00427808       0.05166230      -0.08246425
Pt       2.66241359       1.58702409       4.65998471        2       0.00000000      -0.03368783       0.04631314      -0.04656714
Pt       5.36270871       1.56546400       4.65589544        2       0.00000000       0.00669922       0.01501187      -0.02255606
Pt       8.06389240       1.57072407       4.64520969        2       0.00000000       0.06456540       0.04636930      -0.08903195
Ni       1.33684408       3.89013562       4.68761235        2       1.00000000       0.00679724       0.04811838      -0.02055368
Pt       4.00328591       3.91838675       4.65632335        2       0.00000000      -0.03522000       0.06898477      -0.03009568
Pt       6.71008482       3.92719588       4.68047452        2       0.00000000       0.00889428       0.07498723      -0.06983732
Pt       9.42994658       3.90672207       4.71124701        2       0.00000000       0.06811111       0.01668305       0.08338129
Pt       2.67580744       6.17598240       4.68264082        2       0.00000000      -0.04753299      -0.08696053      -0.07239760
Ni       5.37235066       6.20725771       4.67307150        2       1.00000000       0.01440261      -0.01491740      -0.05086234
Pt       8.04428627       6.19834578       4.71405022        2       0.00000000       0.03597820      -0.03627321       0.05593247
Pt      10.75534686       6.17582222       4.76271350        2       0.00000000       0.05643644      -0.08388676       0.28493313
Pt       4.04342399       8.49670072       4.66184963        2       0.00000000       0.03229495      -0.08233239      -0.11841851
Pt       6.69930113       8.49524331       4.65506211        2       0.00000000      -0.01667715      -0.10876770      -0.07450884
Pt       9.39465044       8.50720179       4.68287637        2       0.00000000      -0.03533418      -0.09137545      -0.08486592
Pt      12.08598162       8.50434099       4.67724003        2       0.00000000       0.02151113      -0.09029315      -0.04851675
Pt      -0.00799647       0.01244818       6.92717886        1       0.00000000       0.00899118       0.04135382      -0.11196832
Pt       2.68952573      -0.02313545       6.91727011        1       0.00000000       0.00261900      -0.05923177      -0.10930485
Pt       5.36367787      -0.05621052       6.91410959        1       0.00000000       0.00740002      -0.22459383      -0.07623677
Pt       8.03363201      -0.00591810       6.91350981        1       0.00000000       0.02838228      -0.01025145      -0.09998017
Pt       1.31305609       2.38498473       6.90973677        1       0.00000000      -0.07112663       0.13002669      -0.11769810
Pt       4.01806447       2.34453049       6.91910911        1       0.00000000      -0.00129081       0.03865093      -0.10718361
Pt       6.72926891       2.36247069       6.91708950        1       0.00000000       0.03100127       0.03234984      -0.10879451
Pt       9.39220803       2.40789143       6.98377933        1       0.00000000      -0.02123957       0.19623583       0.12167200
Pt       2.60862848       4.68915491       6.97197364        1       0.00000000      -0.24411954       0.12209577       0.02610312
Pt       5.38593281       4.68114075       6.90411601        1       0.00000000      -0.03800487       0.04865199      -0.11243570
Ni       8.06964723       4.67594566       6.91931415        1       1.00000000       0.13102032       0.08407854      -0.35225031
Ni      10.73012928       4.68183580       6.90729050        1       1.00000000      -0.06132676       0.12262010      -0.32091220
Pt       4.00646605       6.96794462       6.91153533        1       0.00000000       0.01703241      -0.03519459      -0.11061500
Pt       6.75697430       6.94685004       6.97539080        1       0.00000000       0.14159087      -0.09448511       0.08611991
Ni       9.40336922       6.96407430       6.91356146        1       1.00000000       0.05459449      -0.17844737      -0.35597754
Ni      12.06336483       6.97196646       6.91251112        1       1.00000000      -0.08043486      -0.08627696      -0.33476200
