64
Lattice="10.196449006199723 0.03266435313827457 -0.05044931455731821 5.126512662715791 8.80246482879108 -0.018520844697625802 -0.041191692846197524 0.006320415114469802 8.701436868897783" Properties=species:S:1:pos:R:3:tags:I:1:initial_magmoms:R:1:forces:R:3 unique_id=87ecb2f4b4584336b06d33ae45142119 stress="0.0001086800885627473 -6.968137696252541e-06 3.21395292756964e-05 -6.968137696252541e-06 0.00011627421239202018 -3.7774594300906065e-06 3.21395292756964e-05 -3.7774594300906065e-06 0.00012121946219102037" energy=-392.2182520428226 pbc="T T T"
Ni       0.00588432       0.02125177       0.18009997        4       1.00000000       0.05669974       0.05560770       0.33814900
Ni       2.53388576       0.00788461       0.19127820        4       1.00000000      -0.06466662      -0.00298544       0.32422546
Ni       5.09447213       0.00625164       0.14701948        4       1.00000000      -0.04138259       0.10503009       0.27193594
Ni       7.64713609       0.01299698       0.11192088        4       1.00000000       0.00390726       0.05443369       0.21795324
Ni       1.23803183       2.21156501       0.10894242        4       1.00000000      -0.11698761       0.04881340       0.20443658
Pt       3.76658029       2.22672966       0.16667427        4       0.00000000      -0.13992047       0.04811824       0.22867473
Pt       6.42945088       2.24020153       0.07206349        4       0.00000000       0.05491406       0.09156744      -0.06853418
Ni       8.96466793       2.26499259       0.10299907        4       1.00000000       0.07470447       0.14568256       0.17033947
Ni       2.54612152       4.43040951       0.05833260        4       1.00000000      -0.07335344       0.06258090       0.02525625
Ni       5.08963417       4.43130770       0.08167237        4       1.00000000      -0.07169370       0.02212834       0.15017326
Ni       7.69825833       4.42208352       0.07503161        4       1.00000000       0.10026132       0.03550579       0.20004273
Ni      10.19355711       4.41317383       0.02879570        4       1.00000000      -0.08236875      -0.01209767       0.03976743
Ni       3.82924305       6.58155532       0.05453679        4       1.00000000      -0.00646248      -0.06382526      -0.00928896
Pt       6.38230174       6.60154960       0.06692096        4       0.00000000      -0.07203089      -0.00726622      -0.26303513
Ni       8.93854732       6.59412196       0.11549293        4       1.00000000      -0.11018851      -0.08831718       0.19777891
Ni      11.48525639       6.61008804      -0.00694777        4       1.00000000      -0.09389372      -0.06837163      -0.10051865
Ni       1.30093390       0.75318358       2.19429404        3       1.00000000       0.01922184       0.04756050       0.14849691
Ni       3.76472269       0.75858857       2.17474654        3       1.00000000      -0.11578983       0.00291349       0.01997321
Ni       6.36258741       0.78461992       2.16382596        3       1.00000000       0.08921272       0.03190121       0.02455082
Pt       8.95707268       0.84163925       2.14037077        3       0.00000000      -0.01744048       0.04146128       0.07656915
Ni       2.53514255       2.90824263       2.23919975        3       1.00000000       0.01719575      -0.10252923       0.16029775
Ni       5.09753688       2.99630915       2.17697979        3       1.00000000      -0.01243492       0.12483864      -0.09109299
Ni       7.66245875       3.01071168       2.17144757        3       1.00000000       0.05344640       0.10544894       0.05646792
Ni      10.20069208       2.96337195       2.14843008        3       1.00000000       0.03768904       0.00910894       0.12522396
Ni       3.88072207       5.09829588       2.17271533        3       1.00000000       0.06920237      -0.06914854       0.01148910
Ni       6.38150629       5.14778980       2.16423905        3       1.00000000       0.00491337       0.08269303      -0.07120557
Ni       8.88082837       5.11705282       2.15434459        3       1.00000000      -0.05745987      -0.03718913       0.09680733
Pt      11.47237000       5.06361020       2.14688274        3       0.00000000       0.04190993      -0.13321233       0.02114495
Ni       5.15952878       7.31434743       2.18545462        3       1.00000000       0.07003034      -0.08194799       0.02784926
Ni       7.60641730       7.33879422       2.16115411        3       1.00000000      -0.12157482      -0.10054250       0.02979645
Pt      10.16604147       7.35050657       2.11079307        3       0.00000000      -0.06261840      -0.08319798       0.06954443
Pt      12.79293090       7.32310037       2.08871307        3       0.00000000       0.09661533      -0.11762516      -0.04602102
Ni       0.02945470       1.51431216       4.31081412        2       1.00000000       0.08088094       0.06901931      -0.00017475
Ni       2.46458735       1.51820034       4.26138408        2       1.00000000      -0.04991399       0.03989882      -0.04974408
Pt       5.09580793       1.50131146       4.20167413        2       0.00000000      -0.09239233       0.01357654       0.05304506
Ni       7.65699294       1.51218180       4.26898346        2       1.00000000       0.08043414       0.04369364      -0.04712984
Ni       1.26670300       3.65636865       4.35237270        2       1.00000000       0.03347526      -0.05275595      -0.01857366
Ni       3.77028005       3.74720981       4.26189667        2       1.00000000      -0.03348194       0.08764701      -0.18819064
Pt       6.39605497       3.75707963       4.27629853        2       0.00000000       0.01076697      -0.03262038      -0.06357823
Ni       8.95639876       3.72503672       4.24547709        2       1.00000000       0.11719342       0.07161589      -0.17664655
Ni       2.53995898       5.81925672       4.36160207        2       1.00000000      -0.02025292      -0.06313114      -0.09540612
Ni       5.09360044       5.86549534       4.30055620        2       1.00000000      -0.03270105      -0.05017643      -0.22158363
Ni       7.63247154       5.87464310       4.25823345        2       1.00000000       0.03663327       0.02634586      -0.22144271
Ni      10.22121217       5.83020847       4.29274082        2       1.00000000       0.02502887      -0.10121853      -0.05498755
Pt       3.86135218       8.01634106       4.29125495        2       0.00000000       0.03065328      -0.00693774       0.19578256
Ni       6.36766879       8.05600984       4.24316491        2       1.00000000      -0.04205072       0.00932227      -0.12960223
Pt       8.86259359       8.04715244       4.22501076        2       0.00000000      -0.05489255      -0.01611315       0.13927530
Ni      11.48486128       8.04539088       4.25930769        2       1.00000000      -0.00403037      -0.10440481      -0.05267534
Pt      -0.01392065      -0.02900817       6.49224412        1       0.00000000       0.11203616      -0.07993043       0.15220164
Pt       2.49964747       0.02200817       6.46437454        1       0.00000000      -0.09102845       0.01690027       0.17986615
Pt       5.08969892      -0.00153335       6.47435695        1       0.00000000       0.12492135      -0.03044190       0.05844697
Pt       7.61563152      -0.01504936       6.43990079        1       0.00000000      -0.07180220      -0.08273093       0.02674501
Ni       1.24663483       2.27136061       6.41540578        1       1.00000000       0.04126808       0.07317470      -0.15362726
Pt       3.77582482       2.34348976       6.36262414        1       0.00000000       0.03069909       0.21765891      -0.30903801
Ni       6.35844468       2.26979789       6.35068932        1       1.00000000      -0.01496547       0.03472440      -0.25240218
Pt       8.91471038       2.33120986       6.38864609        1       0.00000000       0.02465247       0.10927110      -0.02034039
Ni       2.50884015       4.45985826       6.40816193        1       1.00000000      -0.00819106       0.08849253      -0.20186471
Ni       5.08912820       4.46972482       6.41494524        1       1.00000000      -0.00347883       0.11387183      -0.13882434
Ni       7.59173616       4.42542944       6.41591464        1       1.00000000      -0.15737498      -0.02597635      -0.05219954
Ni      10.25234055       4.42166757       6.37475783        1       1.00000000       0.27357508      -0.04352098      -0.19180198
Ni       3.81357625       6.51741129       6.42261086        1       1.00000000       0.02456127      -0.17098847      -0.17771340
Ni       6.33863954       6.54991642       6.31992723        1       1.00000000       0.00087598      -0.04241418      -0.38456955
Pt       8.92185826       6.47924697       6.43200564        1       0.00000000       0.04660154      -0.19903511       0.06680135
Ni      11.50121934       6.55659374       6.36935690        1       1.00000000       0.05264281      -0.05995454      -0.25729507
