64
Lattice="10.309707557896157 -0.008963097453225452 0.016543745989580874 5.147091508856987 8.862505091858804 -0.014597978545085913 0.0 0.0 21.555066871889053" Properties=species:S:1:pos:R:3:tags:I:1:initial_magmoms:R:1:forces:R:3 unique_id=10a3851cb57c4db0b29b5d746db8e5ff stress="0.0052229098913174395 -3.2788131601389784e-05 0.0003145225612823006 -3.2788131601389784e-05 0.00523993371351729 1.5702331474320587e-05 0.0003145225612823006 1.5702331474320587e-05 -0.002098592401042848" energy=-374.7657352329182 pbc="T T T"
Ni      -0.00113614       0.01810858       0.13152656        1       1.00000000       0.11187531      -0.00878304      -0.25802164
Ni       2.57870550       0.00259842       0.16517240        2       1.00000000      -0.02715230       0.01326919      -0.13194925
Ni       5.15410449      -0.02044610       0.12382135        1       1.00000000       0.01608177       0.18710105      -0.39493367
Ni       7.74619826      -0.05441717       0.04797225        0       1.00000000      -0.06508059      -0.06554057       0.24544528
Ni       1.25685471       2.21917011       0.13516283        1       1.00000000      -0.08906822       0.04046839       0.05060341
Pt       3.80341966       2.21611661       0.06093215        1       0.00000000      -0.00251449      -0.01705669      -0.03929382
Pt       6.47087878       2.15479581       0.14534519        1       0.00000000       0.05372836      -0.06252084      -0.52825201
Ni       9.06160143       2.20665291       0.10475853        1       1.00000000       0.08147266       0.11442670      -0.08526861
Ni       2.55307853       4.44903195       0.00000000        0       1.00000000      -0.10422302      -0.03276955       0.17106160
Ni       5.14597889       4.43403492       0.10514504        1       1.00000000       0.17816465      -0.08877989      -0.36749761
Pt       7.80973765       4.43688484       0.05436771        1       0.00000000       0.03113518      -0.00879420      -0.04796438
Ni      10.33644784       4.41931914       0.02697726        0       1.00000000       0.07004813      -0.07428270       0.28328703
Ni       3.82357958       6.66701656       0.02166763        0       1.00000000      -0.01276952       0.10069610       0.24442251
Pt       6.41605891       6.69319133       0.13639347        1       0.00000000      -0.00308437       0.01536539      -0.65688507
Ni       9.04206671       6.65548635       0.01972968        0       1.00000000      -0.07824332      -0.00831123       0.11547681
Ni      11.61239515       6.64152728       0.00554949        0       1.00000000       0.07843596      -0.02674502       0.24593602
Ni       1.30197447       0.75507238       2.11249092        3       1.00000000       0.00019055       0.09126218       0.04900368
Ni       3.86107458       0.74912353       2.15611538        4       1.00000000       0.03661703       0.04564125       0.21434175
Ni       6.44116212       0.73314224       2.20225063        4       1.00000000      -0.00456815       0.06453008       0.24847298
Pt       9.02257684       0.76400839       2.14158438        3       0.00000000      -0.07942182       0.07646447       0.07168591
Ni       2.55652673       2.92841239       2.15164183        4       1.00000000      -0.06226847       0.00575956       0.08890632
Ni       5.14800428       2.91872209       2.19040970        4       1.00000000      -0.09977055      -0.12536693       0.22355873
Ni       7.76508574       2.96092396       2.19081739        4       1.00000000       0.18106480       0.08196324       0.15932770
Ni      10.30525920       2.93675238       2.17466434        4       1.00000000      -0.02432815       0.00998689       0.18556388
Pt       3.86819904       5.14570629       2.09863708        3       0.00000000      -0.03050304      -0.05289281      -0.05057799
Ni       6.47957723       5.15118956       2.16433635        4       1.00000000       0.11246285      -0.04515711       0.15404638
Ni       9.00000187       5.13774366       2.20191836        4       1.00000000      -0.06495633      -0.10856397       0.28174289
Pt      11.56010608       5.09853067       2.16691524        4       0.00000000      -0.06760679      -0.07440668       0.07383909
Ni       5.13861767       7.39877775       2.13359037        3       1.00000000      -0.11633551       0.01291553       0.05524032
Ni       7.73358900       7.37522066       2.14531505        3       1.00000000       0.05435911      -0.06838459       0.10228066
Pt      10.28620065       7.37807886       2.06856854        3       0.00000000      -0.02282747      -0.08736900      -0.06642604
Ni      12.88870834       7.37960503       2.11351306        3       1.00000000      -0.02418894       0.01908144      -0.06110403
Ni      -0.00700252       1.53759153       4.28035013        6       1.00000000       0.03774470       0.21163522      -0.21124697
Pt       2.59929972       1.56777704       4.22684035        5       0.00000000      -0.04262732       0.04668736      -0.05678909
Ni       5.15755528       1.47972061       4.27666638        6       1.00000000      -0.01627104       0.01261031      -0.32203130
Ni       7.75771653       1.47669080       4.28729954        6       1.00000000       0.07564138       0.03408737      -0.25859604
Ni       1.26362665       3.73175860       4.30969255        6       1.00000000      -0.11205437       0.01180588      -0.07403394
Ni       3.84021455       3.68440086       4.30803005        6       1.00000000      -0.01092953       0.03726653      -0.18964074
Pt       6.50549210       3.65136219       4.21269032        5       0.00000000       0.05291459      -0.03870535      -0.05716630
Ni       9.06804035       3.70174560       4.29443269        6       1.00000000       0.16589981      -0.00633929      -0.25790585
Ni       2.53460299       5.84330802       4.35225656        7       1.00000000      -0.07762620      -0.15797408      -0.01661966
Pt       5.12125653       5.85993962       4.26031939        6       0.00000000      -0.00175704      -0.04168384      -0.07553040
Ni       7.79844807       5.84014205       4.28647335        6       1.00000000       0.12312871      -0.08784638      -0.27750879
Ni      10.30687074       5.82431082       4.35924442        7       1.00000000      -0.01026088      -0.08099199      -0.06556756
Pt       3.83056631       8.12688097       4.28658307        6       0.00000000      -0.00802686       0.06125166       0.04869417
Pt       6.44133650       8.14195922       4.18794025        5       0.00000000      -0.05153741       0.17690399      -0.15987024
Pt       9.02635220       8.05268149       4.27120353        6       0.00000000      -0.07097082      -0.03728516      -0.00921197
Pt      11.61095659       8.08649464       4.29616213        6       0.00000000      -0.05382728      -0.03968520      -0.04802330
Pt      -0.04963333      -0.03741048       6.54109083        9       0.00000000       0.18417519       0.15905100       0.35077903
Pt       2.61488327      -0.00440278       6.55506687       10       0.00000000      -0.05444081       0.02491370       0.39784720
Pt       5.20667911      -0.09687722       6.54893300        9       0.00000000       0.01111530      -0.05074500       0.45766919
Ni       7.73426185      -0.06627645       6.49912693        9       1.00000000      -0.04334391       0.01220984      -0.03792648
Pt       1.32146047       2.32484966       6.49002438        9       0.00000000      -0.13457089       0.03171718      -0.01953411
Ni       3.86889571       2.21663683       6.39309822        8       1.00000000       0.06755682      -0.08747679       0.11532492
Pt       6.44721509       2.17334321       6.40814851        8       0.00000000      -0.05532937      -0.06422441       0.60733283
Pt       9.02345745       2.26638368       6.45094831        9       0.00000000       0.07638716       0.09592550       0.01947270
Ni       2.55022763       4.47307641       6.43753699        8       1.00000000      -0.09095698       0.13305250      -0.26479190
Pt       5.05188738       4.39476686       6.50565343        9       0.00000000      -0.08116285      -0.05251166       0.28084210
Ni       7.78391673       4.43217173       6.38539930        8       1.00000000       0.02910090       0.03059808       0.00098078
Ni      10.31815678       4.48110141       6.44222626        8       1.00000000       0.01602566       0.05817854      -0.36325089
Ni       3.79102181       6.61786233       6.46692997        9       1.00000000      -0.06548955      -0.03119484      -0.19956123
Pt       6.50056528       6.56692330       6.42367460        8       0.00000000       0.09776909      -0.09933431       0.65103991
Ni       9.06980437       6.55428722       6.45630277        9       1.00000000       0.05594031      -0.06663124      -0.21191717
Ni      11.62096757       6.56426142       6.46596292        9       1.00000000      -0.03894181      -0.11847176      -0.32932770
