64
Lattice="10.223015300723416 -0.007702217108189463 -0.0034956120243647224 5.104837334680552 8.800240578265397 -0.0037171541679453537 -0.002854155266143595 -0.0018567192472762676 8.71755667568146" Properties=species:S:1:pos:R:3:tags:I:1:initial_magmoms:R:1:forces:R:3 unique_id=afb966ff96de4c5dba12834aec66550a stress="0.00011604634323434532 1.7064400803611096e-06 -5.478434479067108e-06 1.7064400803611096e-06 0.00012109845148235154 -9.772587228186066e-06 -5.478434479067108e-06 -9.772587228186066e-06 0.0001233109329280141" energy=-393.1949690909948 pbc="T T T"
Ni       0.00912978       0.01459539       0.18623701        4       1.00000000       0.03546693       0.02298348       0.22629564
Ni       2.54923705      -0.00320417       0.21979828        4       1.00000000       0.01436044      -0.01876358       0.34883577
Ni       5.11469238      -0.01255235       0.16115894        4       1.00000000      -0.00074750       0.11430576       0.23634180
Ni       7.66604546      -0.04566458       0.17492165        4       1.00000000      -0.06284300      -0.08978405       0.31697653
Ni       1.23986913       2.21164365       0.11085159        4       1.00000000      -0.10704725       0.07253461       0.15869144
Pt       3.78039315       2.21610304       0.18451887        4       0.00000000      -0.06978393       0.01989069       0.22462251
Pt       6.44266340       2.21025383       0.10608996        4       0.00000000       0.08909961       0.03429863      -0.02185060
Ni       8.98276753       2.22906904       0.14623609        4       1.00000000       0.09620465       0.13821991       0.12999099
Ni       2.54432689       4.43046905       0.07060036        4       1.00000000      -0.02746637       0.07091167      -0.00553219
Ni       5.09161437       4.42066676       0.10392567        4       1.00000000      -0.04588856       0.00368061       0.21285245
Ni       7.70365434       4.40344903       0.10817737        4       1.00000000       0.13465018       0.02245836       0.18885238
Ni      10.21229257       4.38477918       0.07776020        4       1.00000000      -0.03634218      -0.00125360       0.05902528
Ni       3.79963196       6.59311062       0.10331560        4       1.00000000      -0.06144708      -0.01642364       0.14168001
Pt       6.37861881       6.58753186       0.09987369        4       0.00000000      -0.03651037      -0.03099668      -0.18504649
Ni       8.94629796       6.57734241       0.15959257        4       1.00000000      -0.04114068      -0.08690328       0.18615105
Ni      11.51864481       6.58942610       0.05883443        4       1.00000000       0.06498917      -0.04894359      -0.07478973
Ni       1.28702066       0.75906801       2.14192159        3       1.00000000      -0.02710216       0.12998879      -0.03084291
Ni       3.83071916       0.74048151       2.19546617        3       1.00000000       0.08434594       0.04789480       0.04826669
Ni       6.37887249       0.75214523       2.22697517        3       1.00000000      -0.01010228       0.11425764       0.16625054
Pt       8.94243125       0.77369163       2.16350930        3       0.00000000      -0.03583916       0.13104726       0.07377591
Ni       2.53969591       2.94620762       2.19877106        3       1.00000000       0.00306193       0.07547464      -0.07588692
Ni       5.10857413       2.94879839       2.22850650        3       1.00000000      -0.05608840       0.00716160       0.01680160
Ni       7.68357196       2.97031217       2.20021995        3       1.00000000       0.10283216       0.10131708       0.00175574
Ni      10.21731398       2.93277560       2.18890590        3       1.00000000       0.02475604       0.06709474       0.09678274
Ni       3.84742401       5.11809523       2.15653996        3       1.00000000       0.00857131      -0.07647161      -0.12073056
Ni       6.39871160       5.11053163       2.17767218        3       1.00000000       0.04858442      -0.02312427      -0.05158560
Ni       8.90730761       5.09216141       2.19020070        3       1.00000000       0.01294625      -0.04865275       0.07716524
Pt      11.52014364       5.07519332       2.19108216        3       0.00000000       0.02454260      -0.05516521      -0.00354306
Ni       5.08914091       7.30560585       2.15415621        3       1.00000000      -0.10005238      -0.10657123      -0.11204579
Ni       7.65136190       7.31193265       2.16771535        3       1.00000000       0.03161358      -0.16059318       0.00468389
Pt      10.24199938       7.33265681       2.13597764        3       0.00000000       0.06732761      -0.03353262       0.05314548
Ni      12.78800992       7.30605997       2.15197996        3       1.00000000       0.04919239      -0.12356542      -0.04847870
Ni      -0.02107158       1.53535244       4.31512299        2       1.00000000      -0.06499610       0.12132680      -0.04195092
Pt       2.52152498       1.56274034       4.23605317        2       0.00000000       0.01225551       0.05010625       0.10485659
Ni       5.15036595       1.46564392       4.28072899        2       1.00000000      -0.00903710      -0.03609645      -0.12689556
Ni       7.65283488       1.46775294       4.30872386        2       1.00000000       0.03079759      -0.06007681      -0.04299748
Ni       1.24442238       3.70606811       4.36233597        2       1.00000000      -0.05881751       0.00675906      -0.02329331
Ni       3.79722499       3.70219345       4.28204544        2       1.00000000      -0.13473109      -0.01402623      -0.24072876
Pt       6.42985260       3.61742916       4.30078673        2       0.00000000       0.03423095      -0.02107965      -0.06862401
Ni       8.98001145       3.69055685       4.29071312        2       1.00000000       0.10950774       0.05177440      -0.20440958
Ni       2.49729410       5.82503656       4.36263436        2       1.00000000      -0.10526633      -0.06138673      -0.06224874
Pt       5.05778691       5.80004493       4.31328524        2       0.00000000      -0.01760651      -0.02438333      -0.16847831
Ni       7.69631756       5.80755261       4.29725579        2       1.00000000       0.09467512      -0.07456831      -0.21660889
Ni      10.24893310       5.80207241       4.34037525        2       1.00000000      -0.01049234      -0.03818095      -0.07676554
Pt       3.74339818       8.04964001       4.27052429        2       0.00000000      -0.09997351      -0.06033764       0.11883168
Pt       6.37727436       8.04844994       4.22635996        2       0.00000000      -0.08114719       0.04213950      -0.02395078
Pt       8.98411723       8.03656738       4.26828052        2       0.00000000      -0.02356451      -0.08191453       0.10297138
Ni      11.49476421       8.04088876       4.29589634        2       1.00000000      -0.03001067      -0.05739349      -0.07016525
Pt      -0.00846541      -0.02960779       6.52641723        1       0.00000000       0.08625769      -0.07688727       0.08500226
Pt       2.54253275      -0.00186696       6.54762859        1       0.00000000      -0.10201277       0.02143940       0.21719932
Pt       5.13389924      -0.00489989       6.48840084        1       0.00000000       0.09080822      -0.02427605       0.04767806
Pt       7.64899600      -0.04712273       6.50775077        1       0.00000000      -0.06143356      -0.07682025       0.12995151
Ni       1.26659158       2.26809942       6.45315599        1       1.00000000       0.03766122       0.10302220      -0.13578205
Pt       3.84818760       2.32743411       6.40249243        1       0.00000000       0.00828725       0.22276482      -0.31420794
Ni       6.39412887       2.23287477       6.38874952        1       1.00000000       0.01536874      -0.00272688      -0.20527105
Pt       8.94616569       2.29835938       6.44276259        1       0.00000000       0.01147101       0.11224487       0.00360119
Ni       2.52065908       4.44501578       6.43604803        1       1.00000000      -0.02430243       0.07593027      -0.20499806
Ni       5.11857544       4.43556511       6.47528979        1       1.00000000       0.05738807       0.12527235      -0.04400091
Ni       7.61908726       4.39217636       6.45540939        1       1.00000000      -0.18426588      -0.01779068      -0.09042480
Ni      10.28234601       4.38735601       6.43177873        1       1.00000000       0.24151029      -0.02793105      -0.16892381
Ni       3.80123601       6.52296359       6.47246857        1       1.00000000      -0.07119039      -0.15733074      -0.06672648
Ni       6.36268131       6.53420978       6.39435385        1       1.00000000       0.02397463      -0.04294897      -0.30942220
Pt       8.95193757       6.45324775       6.48479843        1       0.00000000       0.02943269      -0.17116348       0.08466519
Ni      11.52352444       6.52279133       6.43326635        1       1.00000000       0.02107723      -0.05823602      -0.22649394
