64
Lattice="10.21428786646658 -0.0111134613294863 0.08621472735441166 5.097519393397977 8.824855023313862 0.013921347095401927 0.07039403011049306 -0.027516840321088577 8.73334367558984" Properties=species:S:1:pos:R:3:tags:I:1:initial_magmoms:R:1:forces:R:3 unique_id=bd6fd07f9be44e8991339b80038c7109 stress="0.0001737180916484629 4.233825566157498e-06 -3.3332935755309e-06 4.233825566157498e-06 0.00017379753859108477 5.2400866466973115e-06 -3.3332935755309e-06 5.2400866466973115e-06 0.00018066396570341758" energy=-394.6277161080488 pbc="T T T"
Pt       0.04810729       0.09660317       0.04855902        4       0.00000000       0.07926587       0.03177076      -0.13972105
Ni       2.54194490      -0.01289975       0.10158168        4       1.00000000      -0.08163995       0.01016301       0.19017076
Ni       5.11484889      -0.01813539       0.11670413        4       1.00000000       0.01993461      -0.00850645       0.16384363
Ni       7.68006720       0.00151239       0.14102670        4       1.00000000       0.15400038      -0.02311084       0.24983496
Ni       1.24360347       2.21065075       0.10380635        4       1.00000000       0.00586108       0.11520822       0.21259074
Pt       3.77691941       2.11344495       0.06831268        4       0.00000000      -0.04871379      -0.14901578      -0.16604009
Pt       6.42922946       2.09025055       0.08567697        4       0.00000000       0.09067962      -0.14420953      -0.22394189
Ni       8.98973786       2.19757169       0.15147367        4       1.00000000       0.12995712       0.05181296       0.16202694
Pt       2.47367683       4.36412953       0.10367211        4       0.00000000       0.01595001      -0.00000770      -0.07890163
Pt       5.13317108       4.40439340       0.22677052        4       0.00000000       0.05405635      -0.06305498       0.44435879
Pt       7.73858178       4.39883525       0.11302382        4       0.00000000       0.11089096      -0.05539126      -0.15495831
Ni      10.21137162       4.35368902       0.27470081        4       1.00000000       0.01268306      -0.01815914       0.48471695
Pt       3.84629813       6.65716447       0.02850281        4       0.00000000       0.11373989      -0.00023340      -0.08961467
Ni       6.41128743       6.64018201       0.18386743        4       1.00000000       0.02239181      -0.01449820       0.27503305
Pt       8.89718345       6.68632603       0.15337046        4       0.00000000      -0.03403283       0.06427049      -0.03039808
Pt      11.44737660       6.65193405       0.11710717        4       0.00000000       0.00067703       0.00214599      -0.12522199
Ni       1.30136018       0.78563423       2.24740779        3       1.00000000       0.03951491       0.18010635       0.20970599
Pt       3.83815607       0.69978301       2.32211006        3       0.00000000      -0.04958035       0.08917231       0.03599587
Ni       6.38348583       0.71084682       2.29823760        3       1.00000000      -0.08690896      -0.02700127       0.20667438
Ni       8.97274883       0.75246468       2.28483742        3       1.00000000       0.10143836       0.04896287       0.11114623
Ni       2.53738577       2.93692923       2.27997323        3       1.00000000      -0.00591399      -0.05358992       0.15599204
Ni       5.10026907       2.93096271       2.30915752        3       1.00000000      -0.06577090      -0.06037984       0.19119909
Pt       7.67654441       2.88914562       2.30606649        3       0.00000000      -0.04534638      -0.08859260      -0.09488336
Ni      10.27962741       2.90983389       2.26972537        3       1.00000000       0.08386359      -0.07942957       0.16434196
Ni       3.80172416       5.09100662       2.27916103        3       1.00000000      -0.17008672      -0.10429972       0.08275586
Ni       6.44504885       5.13564761       2.27402648        3       1.00000000       0.21605957      -0.03736912       0.07047540
Ni       8.97204593       5.15833260       2.28336368        3       1.00000000       0.00537140      -0.00009845       0.08695793
Ni      11.48087546       5.08533546       2.31461668        3       1.00000000       0.01873952      -0.10722942       0.10772267
Pt       5.19994975       7.37882558       2.24835648        3       0.00000000       0.03225181       0.15436526      -0.05075819
Ni       7.68963243       7.32958046       2.29510761        3       1.00000000       0.07877230      -0.02969036       0.30259778
Ni      10.19212231       7.34214698       2.30007347        3       1.00000000      -0.04149680       0.05775923       0.06405437
Pt      12.72038909       7.35374691       2.36001990        3       0.00000000      -0.07870107      -0.09494310      -0.01233758
Ni       0.08856362       1.46614085       4.35046990        2       1.00000000       0.16788807       0.07203169      -0.10073371
Ni       2.57134568       1.46275999       4.39432307        2       1.00000000      -0.09188344       0.03542739      -0.01095549
Ni       5.14007727       1.45015207       4.40955187        2       1.00000000      -0.04091997       0.01134838      -0.04307822
Ni       7.64846411       1.44003702       4.43349135        2       1.00000000      -0.09101833      -0.00475907      -0.05312755
Ni       1.35862392       3.62809799       4.32286360        2       1.00000000       0.00972440      -0.05182055      -0.07263774
Ni       3.81667869       3.60325185       4.33029019        2       1.00000000      -0.05107329      -0.14959242      -0.10862821
Ni       6.39591731       3.60406478       4.37672880        2       1.00000000      -0.10727102      -0.10032887      -0.02944763
Pt       8.97458066       3.60783115       4.41394984        2       0.00000000       0.15556771      -0.03304874       0.05232887
Ni       2.57365296       5.82833382       4.36725076        2       1.00000000      -0.01170423      -0.12921618      -0.08195860
Pt       5.13856546       5.81596196       4.31194562        2       0.00000000       0.03442677      -0.18222626       0.16139890
Ni       7.69901643       5.88920290       4.36335984        2       1.00000000       0.00554796       0.04336768      -0.09399314
Pt      10.26369905       5.92421761       4.36908087        2       0.00000000       0.04065365      -0.00345030       0.04814883
Pt       3.82539782       8.15876216       4.42082491        2       0.00000000       0.01247128       0.11567397       0.03417372
Ni       6.46825556       8.13201817       4.37570953        2       1.00000000       0.12280451       0.14220636      -0.03848933
Ni       8.94730931       8.10664740       4.43026721        2       1.00000000      -0.02969143       0.07419123       0.12867330
Ni      11.47850642       8.12858555       4.45777636        2       1.00000000      -0.15359811       0.22475045       0.04023659
Ni       0.04982005       0.03683809       6.39067636        1       1.00000000       0.08460694       0.18290623      -0.21243504
Ni       2.62279189       0.02521264       6.45788630        1       1.00000000       0.04326328       0.15490890      -0.15961379
Ni       5.15006324      -0.00947474       6.47510948        1       1.00000000      -0.08435550       0.09619405      -0.15540456
Ni       7.67209898      -0.00220104       6.53967632        1       1.00000000      -0.20834376       0.10502883       0.02001319
Ni       1.34131109       2.15352575       6.44274551        1       1.00000000       0.02317854      -0.04016331      -0.18184248
Ni       3.84659134       2.14072040       6.37122575        1       1.00000000      -0.09859676      -0.11690340      -0.34820375
Ni       6.43691542       2.13459029       6.39939630        1       1.00000000      -0.06826028      -0.11728037      -0.33159398
Ni       8.96588934       2.13460301       6.53310003        1       1.00000000      -0.07372950      -0.13122841      -0.10758299
Ni       2.58917987       4.38315707       6.36821447        1       1.00000000      -0.01786410      -0.07733510      -0.31131630
Pt       5.11570338       4.30613100       6.44682535        1       0.00000000      -0.09991743      -0.10276823      -0.13061768
Ni       7.69081845       4.36977261       6.43622717        1       1.00000000      -0.11312786       0.00173131      -0.31828358
Pt      10.28563146       4.36714728       6.59567723        1       0.00000000       0.00880960       0.02263246       0.31637140
Ni       3.82160476       6.61072383       6.39003780        1       1.00000000      -0.11251565      -0.07026007      -0.25676032
Pt       6.46664711       6.66627349       6.50048205        1       0.00000000      -0.04071026       0.08497631       0.04336801
Ni       8.99316072       6.64308916       6.44644096        1       1.00000000       0.05863318       0.14040006      -0.19679504
Ni      11.55125614       6.63676476       6.44719745        1       1.00000000       0.04909754       0.15567922      -0.30663221
