64
Lattice="10.519859380987144 0.01336871122497731 0.026979563624537083 5.2715073340302645 9.142140160466665 0.04116489648501751 0.022028721454356682 0.026092348340288098 9.107779103566406" Properties=species:S:1:pos:R:3:tags:I:1:initial_magmoms:R:1:forces:R:3 unique_id=a94ce674a2ec4cf1bbfbf5d91d289bba stress="0.001313613233338555 9.952236737797913e-06 2.7291445533134454e-06 9.952236737797913e-06 0.001320764244648491 -4.4484677588805644e-06 2.7291445533134454e-06 -4.4484677588805644e-06 0.0010785430690548534" energy=-412.74337767040953 pbc="T T T"
Pt       0.01296036       0.04498122       0.02143892        4       0.00000000       0.04861024       0.04333748      -0.14906631
Ni       2.63635838       0.01566341       0.04326259        4       1.00000000       0.01526424       0.00450890       0.17586555
Pt       5.22080251       0.00215454       0.02634553        4       0.00000000      -0.05556350      -0.03718426      -0.13887544
Pt       7.89390175       0.04047909       0.13400239        4       0.00000000      -0.00140200       0.08775941       0.09261686
Pt       1.31158095       2.30071421       0.01166926        4       0.00000000       0.00959986       0.08384897      -0.19208433
Ni       3.93763194       2.28414917       0.13413643        4       1.00000000      -0.03617078       0.07205427       0.40163914
Pt       6.60665981       2.32612436       0.14171482        4       0.00000000       0.12489723       0.03729397       0.14856289
Ni       9.21599595       2.33010401       0.09041677        4       1.00000000       0.01919465       0.19283599       0.24108729
Pt       2.56948352       4.58832099       0.14341190        4       0.00000000      -0.15477620       0.13158806       0.19088856
Pt       5.29074958       4.53982388       0.17492467        4       0.00000000      -0.02529290      -0.03801038       0.11752572
Ni       7.93272125       4.56701692       0.15512629        4       1.00000000       0.17559926      -0.06060317       0.28034092
Ni      10.50634372       4.58154334       0.10144448        4       1.00000000      -0.10539363      -0.05672872       0.19125041
Pt       3.92941893       6.85113370       0.12823451        4       0.00000000       0.00014295       0.00617176       0.08522953
Pt       6.63158090       6.84601913       0.15559154        4       0.00000000       0.13746275      -0.03316840       0.19939718
Pt       9.25714586       6.78906518       0.07564318        4       0.00000000       0.16622076      -0.26103136      -0.08529976
Ni      11.82470627       6.85303130       0.16333994        4       1.00000000      -0.05277656       0.01548260       0.27116983
Pt       1.29877769       0.77929826       2.29842950        3       0.00000000      -0.08026633       0.07653426       0.05299634
Pt       3.96617872       0.79015460       2.27110747        3       0.00000000       0.05522923      -0.16341492       0.03248272
Pt       6.61639209       0.80639091       2.39239896        3       0.00000000       0.17406210      -0.00384435       0.11563082
Ni       9.20647237       0.80456249       2.31753783        3       1.00000000       0.00706007       0.22172996       0.03395246
Pt       2.65777029       3.07557974       2.33161785        3       0.00000000      -0.06121845       0.02475154       0.14636346
Ni       5.28606749       3.07436723       2.33944693        3       1.00000000       0.10338156       0.03085818       0.23687958
Pt       7.88685454       3.13881228       2.37986056        3       0.00000000      -0.07746740       0.13056739       0.25825084
Pt      10.48329196       3.13753737       2.30184555        3       0.00000000      -0.05975096       0.09720083      -0.09934232
Pt       3.98673153       5.29021360       2.38148152        3       0.00000000       0.04217095      -0.12920191       0.05192708
Ni       6.61864381       5.31214497       2.33968701        3       1.00000000       0.14312362      -0.06231419       0.11434729
Ni       9.21146631       5.33507986       2.34407464        3       1.00000000      -0.03444557      -0.02058673       0.19936370
Ni      11.81299702       5.34985122       2.32698650        3       1.00000000      -0.12464516      -0.06222092       0.04458513
Pt       5.26647787       7.62533497       2.35057465        3       0.00000000       0.03337708       0.03572726      -0.08889116
Pt       7.93301914       7.54643028       2.37251427        3       0.00000000       0.04253802      -0.17953958       0.20413564
Pt      10.54695216       7.54141748       2.38332283        3       0.00000000      -0.01653627      -0.11922134       0.18912036
Pt      13.13231401       7.62122635       2.36667598        3       0.00000000      -0.03727867      -0.06294835      -0.09572445
Pt      -0.07207485       1.59075868       4.61457308        2       0.00000000      -0.22702221       0.15104338      -0.03086600
Pt       2.64621788       1.56029050       4.58840239        2       0.00000000      -0.00651398       0.07272705       0.00856796
Pt       5.32490624       1.57534396       4.54043428        2       0.00000000      -0.04367884       0.15451032       0.01345312
Ni       7.90820531       1.57844130       4.55161357        2       1.00000000       0.00468628       0.23492764      -0.11843400
Pt       1.24398962       3.86281090       4.56269667        2       0.00000000      -0.28814383       0.15886403      -0.06715555
Ni       3.98104300       3.81178323       4.55241209        2       1.00000000       0.02645534      -0.09052236      -0.00154009
Ni       6.62548413       3.82913983       4.53901267        2       1.00000000       0.20149883       0.01530790      -0.14191069
Ni       9.19128379       3.85956615       4.57355789        2       1.00000000      -0.19022511       0.19080654      -0.13039741
Pt       2.58278440       6.11244012       4.52902977        2       0.00000000      -0.17343644      -0.01590932       0.07003211
Pt       5.34801320       6.03181119       4.51418911        2       0.00000000       0.28147030      -0.08736689       0.07093880
Ni       7.94670366       6.06653768       4.56998176        2       1.00000000       0.21138848      -0.25926422      -0.15595113
Ni      10.50367188       6.09697839       4.58674735        2       1.00000000      -0.24677075      -0.17797212      -0.07702210
Pt       3.92767413       8.44424909       4.53902146        2       0.00000000      -0.08128812       0.07678152      -0.12805429
Pt       6.61945011       8.39911662       4.60845608        2       0.00000000       0.02755346       0.03469829       0.02007897
Pt       9.28068540       8.32194755       4.67498754        2       0.00000000       0.05674526      -0.05693498       0.07026721
Ni      11.84436543       8.40449150       4.61023605        2       1.00000000      -0.04445182       0.01702665       0.02137779
Ni       0.03495719       0.05513690       6.70964985        1       1.00000000       0.06766854       0.10353286      -0.37655732
Ni       2.64669218       0.02314777       6.78744602        1       1.00000000      -0.03007645      -0.01663325      -0.16789068
Ni       5.25281052       0.00815611       6.71578305        1       1.00000000      -0.03175882      -0.00629381      -0.35845478
Pt       7.90959042       0.06882504       6.70585909        1       0.00000000       0.02854532      -0.01188684      -0.15623446
Ni       1.29546196       2.28507565       6.72229330        1       1.00000000      -0.21579406      -0.09488716      -0.36195282
Pt       3.92348122       2.22975224       6.81260119        1       0.00000000      -0.03934857      -0.21627693       0.20079120
Pt       6.63731709       2.30543905       6.71210795        1       0.00000000       0.13235513       0.10534644      -0.10072353
Ni       9.25000938       2.31948735       6.79757381        1       1.00000000       0.10713697       0.03656296      -0.13353831
Pt       2.58830414       4.55012018       6.73460645        1       0.00000000      -0.12395857      -0.08414650      -0.13236508
Pt       5.29492728       4.56423522       6.71888679        1       0.00000000       0.03964077      -0.05199893      -0.08378238
Pt       8.02239477       4.59715312       6.75546064        1       0.00000000       0.23586737       0.01957011      -0.05479626
Ni      10.52395248       4.58682690       6.80649855        1       1.00000000      -0.00962410      -0.09336906      -0.21688337
Pt       3.97932065       6.90497827       6.74346914        1       0.00000000       0.03581303       0.00469229      -0.28829658
Pt       6.67522517       6.92268399       6.75676432        1       0.00000000       0.18166601      -0.02274333      -0.13276211
Ni       9.23544700       6.88120130       6.75122639        1       1.00000000      -0.03356513      -0.08046207      -0.28678260
Pt      11.74677638       6.89033810       6.80298151        1       0.00000000      -0.22778451      -0.01196246       0.00051889
