64
Lattice="10.438046174537693 -0.016716124211019805 0.05851702246422751 5.204546499049288 8.937326624977613 -0.010746278246093973 0.04777894876811286 -0.0377168772266413 8.895519030254226" Properties=species:S:1:pos:R:3:tags:I:1:initial_magmoms:R:1:forces:R:3 unique_id=631cace3a0d94282a0b6fe0ecc71a461 stress="0.00011479007990910367 1.1689599777839308e-07 -8.944051319299956e-06 1.1689599777839308e-07 0.00011926104229045137 1.5136529413668122e-05 -8.944051319299956e-06 1.5136529413668122e-05 9.520225466245341e-05" energy=-403.8555883269695 pbc="T T T"
Ni      -0.00888144      -0.02181361       0.20736464        4       1.00000000       0.01589065      -0.00292246       0.17642695
Ni       2.64553285      -0.02093784       0.14655607        4       1.00000000       0.08270090      -0.00750654       0.12456488
Ni       5.22338253      -0.04291780       0.20186058        4       1.00000000       0.04036910      -0.01277929       0.10855395
Ni       7.82599482      -0.09116164       0.25808360        4       1.00000000      -0.00362830      -0.08368193       0.20598068
Pt       1.31544753       2.23466060       0.18952165        4       0.00000000       0.05049029       0.02442603      -0.05012605
Pt       3.89907671       2.16566826       0.12203181        4       0.00000000       0.05102220      -0.02434481      -0.09567312
Pt       6.52863307       2.12292710       0.13260296        4       0.00000000       0.05549170      -0.05822840      -0.12712648
Pt       9.16294460       2.20658819       0.17074542        4       0.00000000       0.05109557       0.00253434      -0.16091217
Ni       2.59360225       4.50641882       0.13105198        4       1.00000000       0.04878586      -0.01860895       0.03263670
Pt       5.17986365       4.49072095       0.16001926        4       0.00000000       0.08095641      -0.02663411      -0.17013680
Pt       7.86798065       4.50901947       0.15741987        4       0.00000000      -0.00657544      -0.01108635      -0.23702829
Ni      10.46884843       4.50610619       0.12368430        4       1.00000000       0.04269074       0.03419253       0.04956953
Ni       3.86070223       6.74655544       0.10921570        4       1.00000000       0.00841812       0.02620885       0.10211002
Pt       6.52417362       6.80575715       0.21492378        4       0.00000000       0.01205924       0.01957720      -0.04914070
Ni       9.16078106       6.73215966       0.10377544        4       1.00000000       0.03500482       0.02811748       0.03246960
Ni      11.76098845       6.69161444       0.10806210        4       1.00000000       0.09407148      -0.04174623       0.01588862
Ni       1.35218462       0.74608791       2.24406020        3       1.00000000       0.02976744       0.03166013      -0.00311104
Ni       3.87464406       0.74781416       2.25954782        3       1.00000000      -0.04906791      -0.00329917       0.02714367
Ni       6.54356323       0.74317346       2.28236627        3       1.00000000       0.00038381       0.02553726       0.05838714
Pt       9.15027368       0.72701577       2.31402281        3       0.00000000       0.01009080      -0.01838614       0.13284877
Ni       2.62375106       2.91989067       2.31134292        3       1.00000000       0.02068338      -0.03466074       0.01494543
Ni       5.21319876       2.93930344       2.27175521        3       1.00000000      -0.03399415      -0.01769471      -0.05294513
Ni       7.82853600       2.92675359       2.28720075        3       1.00000000      -0.00275889      -0.04601605      -0.10027760
Ni      10.46479939       2.93112412       2.36273898        3       1.00000000       0.04477154      -0.03000185       0.01277748
Pt       3.89801944       5.20668815       2.27286837        3       0.00000000      -0.02184656       0.00604703       0.09029455
Ni       6.53045913       5.21842635       2.26439377        3       1.00000000      -0.02929385       0.06703172      -0.01132849
Pt       9.09638733       5.16688406       2.33133391        3       0.00000000       0.03101337      -0.00636637       0.08850281
Pt      11.74754518       5.13579628       2.26190385        3       0.00000000      -0.03688794      -0.03377158       0.05711554
Ni       5.21122637       7.45540139       2.22885833        3       1.00000000      -0.06790219       0.02242839       0.09896634
Ni       7.82924267       7.47640651       2.24955486        3       1.00000000       0.03344367       0.04996629       0.02720601
Pt      10.43795247       7.47986428       2.17046250        3       0.00000000       0.02208579      -0.06953047       0.10170879
Ni      13.05323355       7.42529053       2.23854978        3       1.00000000      -0.00619945      -0.04236560       0.09161400
Ni       0.04829573       1.53843087       4.34665520        2       1.00000000       0.08011566       0.01456240      -0.09958254
Ni       2.62290663       1.52575204       4.35955388        2       1.00000000      -0.00771908       0.02837918      -0.14785582
Pt       5.19205939       1.51610944       4.38339345        2       0.00000000      -0.03192610       0.00767859      -0.06395647
Ni       7.85614320       1.47820069       4.42175059        2       1.00000000      -0.04522998      -0.02507697      -0.08712111
Ni       1.33916308       3.66179078       4.35756084        2       1.00000000       0.02937974      -0.03522372      -0.08244705
Ni       3.85233716       3.68193336       4.39097433        2       1.00000000      -0.07618303       0.02305951      -0.07507957
Pt       6.61655728       3.68110184       4.32068243        2       0.00000000       0.04159404      -0.01170859      -0.17590350
Ni       9.19521256       3.63688320       4.39062565        2       1.00000000       0.05990820      -0.11040690      -0.15858071
Ni       2.61380500       5.90828745       4.42124593        2       1.00000000      -0.01282808      -0.00779090      -0.03170618
Pt       5.22882522       5.92106080       4.39176639        2       0.00000000      -0.02467629       0.05000901      -0.05185024
Ni       7.84310739       5.93574564       4.40204111        2       1.00000000      -0.02952333       0.06517285      -0.08838162
Pt      10.46160487       5.83186896       4.55904965        2       0.00000000      -0.03641084      -0.04925852      -0.01735888
Pt       3.91283151       8.18689604       4.39033597        2       0.00000000       0.01163705       0.04424710       0.08364937
Pt       6.54008121       8.26755342       4.31587407        2       0.00000000      -0.08951627       0.09298115       0.01070270
Pt       9.09675282       8.16265290       4.42105488        2       0.00000000       0.02208430       0.00069363       0.01287575
Pt      11.76879180       8.15589197       4.40262442        2       0.00000000      -0.07479093       0.00930416       0.05462532
Pt       0.04336548      -0.04407922       6.67571159        1       0.00000000      -0.06203903       0.02881155       0.21577701
Ni       2.65234838      -0.02211445       6.61619747        1       1.00000000      -0.05966468       0.06728898      -0.01429593
Pt       5.17177416      -0.03910057       6.71395003        1       0.00000000      -0.11076578       0.09389687       0.10751910
Pt       7.80877566      -0.09043282       6.73778935        1       0.00000000      -0.08370825      -0.00419755       0.24438357
Pt       1.39028918       2.20851751       6.47354770        1       0.00000000      -0.02437186      -0.00000973      -0.03118158
Ni       3.92275854       2.19075701       6.51719151        1       1.00000000      -0.08541210       0.03758381      -0.12591730
Ni       6.54333659       2.18075719       6.53366664        1       1.00000000       0.01739026      -0.02698479      -0.14815394
Pt       9.16115678       2.21180042       6.49314900        1       0.00000000      -0.00095211      -0.08352051      -0.05554790
Pt       2.58325127       4.51549716       6.56951765        1       0.00000000      -0.02995877       0.06713517       0.03726111
Pt       5.21226948       4.36310841       6.52815732        1       0.00000000       0.00486724      -0.05443903       0.03885670
Pt       7.92852071       4.46434692       6.50934484        1       0.00000000       0.04184448       0.03657766      -0.02169289
Ni      10.47557720       4.44539427       6.63764352        1       1.00000000       0.01338696      -0.07604998       0.02414824
Ni       3.90775528       6.66889431       6.59238373        1       1.00000000      -0.00398719       0.00141598      -0.00187272
Pt       6.60744712       6.70006076       6.55612555        1       0.00000000       0.05485133      -0.00341785       0.05899897
Ni       9.18891020       6.66290750       6.63279603        1       1.00000000       0.00560734       0.01844997       0.00996440
Ni      11.73700610       6.64499365       6.64572928        1       1.00000000      -0.09613512       0.05274196      -0.01218191
