64
Lattice="10.332300595064325 0.0006747743788263872 0.037655462250073296 5.166734669286043 8.901456795086313 -0.007631546551168897 0.030745556180438092 -0.02494604622685719 8.839430164888975" Properties=species:S:1:pos:R:3:tags:I:1:initial_magmoms:R:1:forces:R:3 unique_id=229f05c0be754fec944e5e0056181009 stress="-0.009826763263330068 3.4720594705689065e-05 -2.2162409854345082e-05 3.4720594705689065e-05 -0.009846608579396551 1.6989406283571032e-05 -2.2162409854345082e-05 1.6989406283571032e-05 -0.008372185921656464" energy=-400.1719261988975 pbc="T T T"
Ni       0.01731059      -0.00575296       0.20070048        4       1.00000000       0.03864442       0.00615016       0.18119079
Ni       2.55785538       0.01270637       0.23657254        4       1.00000000       0.01261644       0.04645883       0.24922212
Pt       5.16190276      -0.04093504       0.17299074        4       0.00000000       0.01923542       0.08658341      -0.15102267
Ni       7.77531884      -0.05498411       0.22772628        4       1.00000000       0.00944985      -0.03669931       0.22778452
Ni       1.30254339       2.23196453       0.11586156        4       1.00000000       0.04641596       0.04353064       0.12426362
Pt       3.79853240       2.27710419       0.20604845        4       0.00000000       0.06029724       0.06275118      -0.04004282
Pt       6.47097723       2.23443288       0.13426140        4       0.00000000       0.07527518       0.00424921      -0.07588961
Pt       9.14385583       2.22564680       0.14879872        4       0.00000000       0.10405439       0.02711782      -0.15758803
Ni       2.55999680       4.47673591       0.05101412        4       1.00000000      -0.00934702       0.04240618      -0.11517344
Ni       5.16312070       4.46816760       0.17602723        4       1.00000000       0.13883908      -0.00517857       0.13795367
Pt       7.80562697       4.50776290       0.11459151        4       0.00000000       0.10725202       0.03864001      -0.15525861
Ni      10.38265487       4.47496264       0.09587860        4       1.00000000       0.08599754       0.02905013       0.02562484
Ni       3.84014010       6.68808753       0.09093800        4       1.00000000      -0.03323007       0.03992348       0.03784630
Pt       6.42978895       6.72939093       0.20895583        4       0.00000000      -0.02464726       0.00359538      -0.05800838
Ni       9.06129365       6.66473697       0.10400267        4       1.00000000       0.01214470      -0.00497683       0.01963838
Ni      11.65995774       6.64218236       0.09338331        4       1.00000000       0.08927017      -0.03901039      -0.00963703
Ni       1.30972440       0.76395384       2.17515144        3       1.00000000      -0.02900471       0.09226145       0.00756686
Ni       3.86392459       0.75978348       2.24836646        3       1.00000000       0.02590501       0.00799171       0.06562558
Ni       6.46218112       0.77987109       2.27936045        3       1.00000000      -0.02850499       0.07753248       0.06853954
Pt       9.05401807       0.75073980       2.27937216        3       0.00000000      -0.03065431       0.01608455       0.13515881
Ni       2.55476738       2.94606611       2.24143344        3       1.00000000      -0.07396717       0.00076335       0.01363525
Ni       5.18047383       2.93564246       2.27952239        3       1.00000000      -0.02197623      -0.05279235       0.06677016
Ni       7.77368920       2.98017320       2.27665639        3       1.00000000       0.08354253       0.02155664      -0.06469045
Ni      10.35425032       2.95165379       2.29997707        3       1.00000000       0.01085143      -0.03755698       0.08130862
Pt       3.89642742       5.16258684       2.17360854        3       0.00000000      -0.01413752      -0.03887449       0.03244644
Ni       6.50540733       5.17506962       2.24819881        3       1.00000000       0.06944859      -0.03205535       0.00839717
Ni       9.01284633       5.15069796       2.27341291        3       1.00000000      -0.03828194      -0.12535990       0.07994835
Pt      11.61865011       5.10503215       2.21431293        3       0.00000000      -0.02837035      -0.06740387       0.05098640
Ni       5.16172240       7.41982587       2.20509305        3       1.00000000      -0.12858258      -0.01154467       0.04624583
Ni       7.75342418       7.40362205       2.21722068        3       1.00000000       0.00905647      -0.06686090       0.02767731
Pt      10.30999277       7.35788647       2.20407625        3       0.00000000      -0.01008229      -0.14319521       0.05232206
Ni      12.93308185       7.39854146       2.19948241        3       1.00000000      -0.01343952      -0.08601120       0.02366714
Ni       0.01309435       1.54951724       4.35376821        2       1.00000000       0.01659987       0.06111258      -0.08915500
Pt       2.56374026       1.57363589       4.29519537        2       0.00000000      -0.03850989      -0.02328060      -0.01396862
Ni       5.19269711       1.50306449       4.35830629        2       1.00000000      -0.05526299       0.00810140      -0.11502704
Ni       7.76999667       1.49340361       4.38531447        2       1.00000000       0.00626758      -0.03998751      -0.07932581
Ni       1.29710748       3.69133579       4.41182898        2       1.00000000      -0.02954888      -0.00404760      -0.01733349
Ni       3.86011885       3.71273104       4.36004260        2       1.00000000      -0.03445362       0.01784556      -0.11334619
Pt       6.52489900       3.63941175       4.34612928        2       0.00000000      -0.00694042      -0.03931293      -0.02674998
Ni       9.06984440       3.67981255       4.34862333        2       1.00000000       0.01720897      -0.06200050      -0.27377808
Ni       2.58171050       5.86244991       4.43060974        2       1.00000000      -0.02159998      -0.08197668      -0.04186838
Pt       5.16287556       5.86960287       4.34816962        2       0.00000000       0.01583523      -0.02920981      -0.01485747
Ni       7.78873586       5.86751703       4.36745575        2       1.00000000       0.01427311      -0.04439629      -0.16941063
Pt      10.34081456       5.81580256       4.48476832        2       0.00000000      -0.03325017       0.01347432      -0.03029389
Pt       3.87742052       8.14562646       4.36143586        2       0.00000000      -0.01645279      -0.02753150       0.09552815
Pt       6.46303305       8.16978296       4.26378033        2       0.00000000      -0.05778328       0.07033429      -0.03095354
Pt       9.02799304       8.14099229       4.35527480        2       0.00000000      -0.06158827      -0.02909841      -0.02558580
Pt      11.66514860       8.15889109       4.33141729        2       0.00000000      -0.00675549      -0.04299875      -0.09100090
Pt       0.01953621       0.00745807       6.62324134        1       0.00000000      -0.02536249       0.06612879       0.17657087
Pt       2.59897945      -0.00309011       6.65910237        1       0.00000000      -0.00000528       0.05487540       0.26994089
Pt       5.19676954      -0.04966092       6.51628408        1       0.00000000      -0.04002303       0.02117864       0.06844756
Pt       7.75483156      -0.04794359       6.66391875        1       0.00000000      -0.03540967       0.00099004       0.25121856
Ni       1.29448555       2.28821913       6.53287290        1       1.00000000      -0.06718152       0.14875444      -0.07649005
Pt       3.85207299       2.26890611       6.49001626        1       0.00000000      -0.05418941       0.07108219      -0.00357137
Ni       6.49464160       2.22090196       6.48547515        1       1.00000000      -0.01788323      -0.01414671      -0.13160794
Pt       9.06730731       2.31657566       6.44881743        1       0.00000000      -0.04166210       0.04848981      -0.11139348
Ni       2.54095381       4.47063455       6.52053837        1       1.00000000      -0.09510441       0.03772594      -0.16897484
Pt       5.16354182       4.43348533       6.61187689        1       0.00000000      -0.02054949       0.02470705       0.15749311
Ni       7.80937703       4.44820595       6.47344981        1       1.00000000       0.07303803       0.06276235      -0.22110197
Ni      10.38629252       4.44924263       6.58333682        1       1.00000000       0.05453744       0.00575753       0.01355103
Ni       3.83802857       6.61855242       6.55567792        1       1.00000000      -0.08665697      -0.06445479      -0.04465254
Pt       6.53391458       6.61359015       6.51562069        1       0.00000000       0.06950840       0.03133767      -0.02943649
Ni       9.09657802       6.58597980       6.57694976        1       1.00000000       0.05276393      -0.09167007      -0.00484835
Ni      11.65968048       6.59028937       6.58407615        1       1.00000000       0.01207036      -0.04967243      -0.04452698
