64
Lattice="10.150771427609586 0.009997454698267178 -0.0029813533795691963 5.084043763546735 8.781816096503702 0.003796341205122017 0.0 0.0 21.470401420058266" Properties=species:S:1:pos:R:3:tags:I:1:initial_magmoms:R:1:forces:R:3 unique_id=3e15ee63cafb40f4a474a263bce650c4 stress="0.004272679033111071 -3.077575056824183e-05 0.00011008274041367247 -3.077575056824183e-05 0.004019543077090739 -5.693553514067691e-06 0.00011008274041367247 -5.693553514067691e-06 -0.002481320714548748" energy=-369.21341822458885 pbc="T T T"
Ni       0.02979590      -0.00796676       0.14430879        1       1.00000000       0.12455756      -0.00795454      -0.46824464
Ni       2.51398490      -0.02570611       0.15885921        2       1.00000000       0.01335717       0.01912506      -0.24707490
Ni       5.07317397      -0.02112916       0.03573247        0       1.00000000      -0.04952831       0.07264762       0.08059557
Ni       7.61917240      -0.00509804       0.10472450        1       1.00000000      -0.01426892       0.07532908      -0.61316680
Ni       1.22935294       2.20417569       0.07107891        1       1.00000000      -0.00198463      -0.00692130       0.33897451
Pt       3.74681404       2.20598698       0.14196982        1       0.00000000      -0.02627632       0.00042730      -0.67706711
Pt       6.39921918       2.21769364       0.04895620        0       0.00000000       0.01354037       0.05113803      -0.19670239
Ni       8.92755858       2.24565701       0.10130728        1       1.00000000       0.00238062       0.14818525      -0.23242860
Ni       2.52936324       4.42040017       0.02430470        0       1.00000000       0.01820898       0.00391867       0.16860196
Ni       5.06573182       4.44240492       0.03151203        0       1.00000000      -0.09944397      -0.07833840       0.06721264
Ni       7.65458990       4.42778697       0.03856839        0       1.00000000       0.15942023       0.01590448       0.07776491
Ni      10.14217524       4.38999434       0.03284528        0       1.00000000      -0.06907697       0.02001031       0.21377327
Ni       3.84011767       6.57065069       0.02826774        0       1.00000000       0.09795515      -0.02248583       0.09667134
Ni       6.34463191       6.61027426       0.03833417        0       1.00000000       0.03811140       0.11820241       0.11349197
Ni       8.86216992       6.57681488       0.10901499        1       1.00000000      -0.11054933      -0.09710291      -0.20417112
Ni      11.41846438       6.58345409       0.00000000        0       1.00000000      -0.08224517      -0.07181267       0.05120769
Ni       1.30992199       0.76679556       2.12437912        3       1.00000000       0.04968960       0.18730198       0.12014522
Ni       3.75886462       0.73737918       2.16554577        4       1.00000000      -0.10147918      -0.02983606       0.14566469
Ni       6.33227342       0.76457533       2.14499554        3       1.00000000      -0.03083148       0.04932268       0.09603328
Pt       8.92165451       0.81717298       2.13528571        3       0.00000000      -0.01553331       0.01948134       0.12740476
Ni       2.52510000       2.90152405       2.20834920        4       1.00000000       0.00510969      -0.08179186       0.22040090
Ni       5.06049510       2.94524077       2.16987293        4       1.00000000      -0.03426658       0.05701660       0.10741509
Ni       7.64454902       2.96372697       2.16327054        4       1.00000000       0.03943670       0.07039389       0.16302014
Ni      10.16002464       2.93804472       2.14937987        3       1.00000000       0.05194185      -0.02730174       0.17532117
Ni       3.82551577       5.07874567       2.14301060        3       1.00000000      -0.01852514      -0.15563163       0.05355723
Pt       6.35375218       5.15373714       2.10184660        3       0.00000000      -0.01376998       0.01086477      -0.04568374
Ni       8.87515285       5.09325650       2.14497510        3       1.00000000       0.01068022      -0.09804933       0.10806791
Pt      11.41277348       5.04051587       2.15667845        4       0.00000000       0.00092047      -0.09322033       0.07678189
Ni       5.11171212       7.31815843       2.10198065        3       1.00000000      -0.02391129       0.02577415       0.00349728
Ni       7.60149238       7.33957555       2.11086866        3       1.00000000      -0.03287976       0.00097322       0.01813252
Pt      10.08384749       7.34949164       2.15533562        4       0.00000000      -0.03499530       0.01298079       0.05938208
Pt      12.71618086       7.28849360       2.09519223        3       0.00000000       0.06481438      -0.06247386       0.02957189
Ni       0.03086666       1.52985754       4.26671664        6       1.00000000       0.08231794       0.05953243      -0.06525139
Ni       2.50091636       1.51483716       4.22765044        5       1.00000000      -0.06177120       0.03067733      -0.12865610
Pt       5.06832259       1.41438844       4.20365604        5       0.00000000      -0.05497522      -0.09753101       0.05088355
Ni       7.63054803       1.48945936       4.25778746        6       1.00000000       0.11567523      -0.00297758      -0.16588907
Ni       1.27160206       3.65268700       4.31260825        6       1.00000000       0.02344417      -0.05794162       0.00630525
Ni       3.76217903       3.71754413       4.23735656        5       1.00000000      -0.04610135       0.00887880      -0.20675524
Pt       6.37084958       3.69969930       4.30494512        6       0.00000000       0.00402708      -0.01164887       0.03763741
Ni       8.93271888       3.70336625       4.24086569        5       1.00000000       0.11425286       0.02192530      -0.16834119
Ni       2.52116635       5.80050335       4.32664933        6       1.00000000      -0.07010562      -0.08430907      -0.06022329
Ni       5.05042503       5.83024088       4.30486018        6       1.00000000      -0.02011600      -0.02933346      -0.09710744
Ni       7.66163730       5.84814774       4.27087201        6       1.00000000       0.14876733       0.00511364      -0.17572541
Ni      10.17182956       5.82729758       4.28782435        6       1.00000000       0.02680400      -0.12574091      -0.06752511
Pt       3.78533841       8.00416305       4.28344096        6       0.00000000      -0.03537563      -0.02001818       0.13457820
Pt       6.40602653       8.03025553       4.18675044        5       0.00000000       0.05221837       0.01806593       0.05034490
Ni       8.91063375       8.02777557       4.27140341        6       1.00000000      -0.04141574      -0.05735218      -0.07673403
Ni      11.38890657       8.00382851       4.28460378        6       1.00000000      -0.01476389      -0.15305407      -0.07080053
Pt      -0.00014764      -0.03251037       6.47040142        9       0.00000000      -0.16125691       0.10868197       0.43128848
Pt       2.57840107       0.01080010       6.43742315        8       0.00000000       0.11008928       0.10049438       0.26382406
Ni       5.07490007      -0.01334436       6.38466987        8       1.00000000      -0.10969815       0.00770886      -0.01530081
Pt       7.50896630      -0.02742875       6.43612242        8       0.00000000       0.06218061       0.12201705       0.42001988
Ni       1.27076883       2.25820997       6.37032261        8       1.00000000       0.06321445       0.00308221      -0.17058290
Pt       3.80804941       2.30638704       6.33656439        7       0.00000000      -0.09868519       0.18293116       0.62956021
Ni       6.33769469       2.22475692       6.32956995        7       1.00000000      -0.00280295       0.05099033       0.39640607
Pt       8.88498029       2.30369065       6.38201791        8       0.00000000      -0.06695557      -0.10278578       0.10276359
Ni       2.51465343       4.44015595       6.36717316        8       1.00000000       0.03124294      -0.02144534      -0.25831641
Ni       5.07801119       4.45144298       6.39470877        8       1.00000000      -0.06712472      -0.00031707      -0.09187671
Ni       7.58573818       4.42109042       6.40307061        8       1.00000000      -0.02233092      -0.00478328      -0.00402432
Ni      10.21470716       4.40394874       6.36967872        8       1.00000000       0.07118741      -0.02020774      -0.24975294
Ni       3.80168814       6.50154173       6.39639312        8       1.00000000      -0.05322769      -0.02873096      -0.14118372
Ni       6.32830147       6.52168064       6.39407265        8       1.00000000       0.04371342       0.03556797      -0.18327704
Pt       8.93081157       6.51324268       6.39310127        8       0.00000000      -0.00409843      -0.01554471      -0.00215446
Ni      11.44220004       6.54087794       6.36711931        8       1.00000000       0.05111137      -0.04802273      -0.15228412
