64
Lattice="10.256301597820658 0.016233316571844906 -0.04751836020003872 5.142209263449222 8.844219374427611 -0.07103434824705677 0.0 0.0 21.537716905421988" Properties=species:S:1:pos:R:3:tags:I:1:initial_magmoms:R:1:forces:R:3 unique_id=2cde787a4b6845579075f6f090929185 energy=-373.52511811948546 stress="0.0054948546895560125 8.760618941372135e-05 -0.00035306526588239835 8.760618941372135e-05 0.004758367895461576 -9.33317297493829e-05 -0.00035306526588239835 -9.33317297493829e-05 -0.0020509147050652935" pbc="T T T"
Ni       0.00875986      -0.00681688       0.20162718        2       1.00000000       0.09965492       0.05107496      -0.20107425
Ni       2.55332335       0.00059256       0.20863759        2       1.00000000      -0.03646877       0.01537433      -0.06564953
Ni       5.12306891      -0.02375905       0.16449239        2       1.00000000      -0.04250822       0.06905629      -0.41100223
Ni       7.67910594      -0.05087793       0.16131048        2       1.00000000      -0.08585113      -0.04370804      -0.20164101
Ni       1.27971441       2.21656333       0.11406528        1       1.00000000      -0.02011480       0.01118402       0.35639929
Pt       3.75951888       2.17640213       0.17726169        2       0.00000000       0.03676529       0.01114977      -0.48873387
Pt       6.42241007       2.17226070       0.08329881        1       0.00000000      -0.02490880      -0.08514670      -0.18551620
Pt       9.04668293       2.26710545       0.08858391        1       0.00000000       0.01906806       0.07754176      -0.62300719
Ni       2.52848820       4.44564490       0.05221929        1       1.00000000      -0.03622560      -0.01025468       0.18475415
Pt       5.08429472       4.46538123       0.06819863        1       0.00000000      -0.09762686      -0.03467736      -0.07954354
Ni       7.71186640       4.44715626       0.03464737        0       1.00000000      -0.02707079       0.02963451       0.05266951
Ni      10.29010925       4.45865636       0.01075452        0       1.00000000       0.06913131       0.06634162       0.20945548
Ni       3.80315941       6.65736148       0.07150162        1       1.00000000      -0.03498051       0.03429626       0.29872746
Pt       6.44177914       6.69150692       0.05683065        1       0.00000000      -0.00245191       0.06955102      -0.04856409
Ni       8.99767493       6.63873617       0.09038975        1       1.00000000      -0.03233457       0.03596582      -0.30996444
Ni      11.56667919       6.63987441       0.00000000        0       1.00000000       0.04490438       0.01053955       0.23871685
Ni       1.30306250       0.73909894       2.22537604        4       1.00000000       0.02955925       0.06768919       0.17884136
Ni       3.78934013       0.73635780       2.20967945        4       1.00000000      -0.16060529      -0.01984087       0.14011271
Ni       6.41274561       0.74386022       2.19788906        4       1.00000000       0.06779135       0.05010376       0.16598272
Pt       8.98071326       0.74136040       2.19750739        4       0.00000000       0.07104794       0.13077804      -0.01282683
Ni       2.54480017       2.90943416       2.25676510        5       1.00000000       0.01873741      -0.12850685       0.24463601
Ni       5.10850250       2.96267279       2.21136537        4       1.00000000      -0.08512732       0.11527569       0.13460469
Ni       7.66852378       2.94475736       2.20405439        4       1.00000000      -0.03575542      -0.03177946       0.11484779
Ni      10.30480750       2.92958753       2.21285091        4       1.00000000       0.15138068      -0.11783158       0.26721685
Ni       3.85037048       5.15001209       2.18842105        4       1.00000000       0.01015598      -0.07289938       0.05866992
Ni       6.39468840       5.15898816       2.17572124        4       1.00000000      -0.01320793      -0.00822790       0.06411949
Pt       8.92432445       5.11880255       2.17087859        4       0.00000000      -0.00078398      -0.08567546       0.00101817
Pt      11.60455704       5.11505179       2.15741683        4       0.00000000       0.04804166      -0.12100374       0.11252474
Ni       5.14074400       7.34461365       2.15419798        4       1.00000000       0.00578289      -0.04876959       0.08477032
Ni       7.64884446       7.39664313       2.15521757        4       1.00000000      -0.17246580       0.02297545       0.19869734
Pt      10.29790015       7.40698193       2.10330759        3       0.00000000       0.07249899      -0.04163784       0.12707053
Ni      12.84379789       7.35316751       2.09451950        3       1.00000000       0.11791051      -0.08666501       0.05186589
Ni       0.03986892       1.49145096       4.33632511        7       1.00000000       0.15054803       0.03472160      -0.15410520
Ni       2.48106834       1.49506663       4.30157350        7       1.00000000      -0.08475551       0.03472396      -0.18506724
Pt       5.12036000       1.46138941       4.23931817        6       0.00000000      -0.06490919      -0.05141002      -0.06476700
Ni       7.68531746       1.46935983       4.30154157        7       1.00000000       0.05305992      -0.06790966      -0.24364354
Ni       1.27121418       3.65256799       4.37075054        8       1.00000000       0.03869124      -0.05353599      -0.04320996
Ni       3.76672701       3.69924640       4.28953570        7       1.00000000      -0.16228864       0.00545809      -0.30121580
Pt       6.47167005       3.67881706       4.30461526        7       0.00000000       0.08930419      -0.04370480      -0.11981916
Ni       9.01404941       3.69974787       4.28186115        7       1.00000000       0.20276693       0.01616075      -0.16127601
Ni       2.52077578       5.83794123       4.36596062        8       1.00000000      -0.06149082      -0.08718250      -0.02355535
Pt       5.10693200       5.86837794       4.29682952        7       0.00000000       0.00495495      -0.03417443      -0.13840271
Ni       7.68531144       5.86742886       4.29884225        7       1.00000000      -0.00611596       0.00835198      -0.19124394
Ni      10.28849359       5.83576799       4.32053965        7       1.00000000       0.11300434      -0.04945608      -0.03637084
Pt       3.80739250       8.07112027       4.26019524        7       0.00000000      -0.08907028       0.04991606       0.02571619
Ni       6.39714000       8.10356171       4.24422742        6       1.00000000      -0.09879359       0.11069342      -0.31414215
Pt       8.91333840       8.05489687       4.21857332        6       0.00000000      -0.05530924       0.00965383       0.00766668
Ni      11.53767327       8.04964422       4.25356436        7       1.00000000      -0.06099848      -0.11182115      -0.10025231
Pt      -0.01715964      -0.06187041       6.53771691       11       0.00000000       0.05513967       0.07189038       0.24365178
Pt       2.51646794      -0.01647470       6.52232035       11       0.00000000      -0.00664698       0.07209920       0.23039155
Pt       5.12084344      -0.04102398       6.53392509       11       0.00000000       0.00908715       0.04062626       0.38899582
Pt       7.65858212      -0.06298914       6.50916863       11       0.00000000      -0.06604040       0.14229126       0.33327938
Ni       1.25386371       2.24445164       6.45833691       11       1.00000000       0.02864532       0.09194915      -0.27282407
Pt       3.79262227       2.30721972       6.40834154       10       0.00000000      -0.06847231       0.12647241       0.45747424
Ni       6.39457337       2.22967425       6.40186987       10       1.00000000      -0.00323656      -0.00513928       0.25059757
Pt       8.96749864       2.28931635       6.33515706        9       0.00000000      -0.00351194      -0.07760094       0.54360910
Ni       2.51006579       4.43813643       6.44165516       10       1.00000000       0.03951721       0.00759326      -0.35986088
Ni       5.11470480       4.43009537       6.39178346       10       1.00000000      -0.05401522       0.00818284       0.13190012
Ni       7.64354051       4.40378462       6.44368189       10       1.00000000      -0.06397075      -0.01140098      -0.06789966
Ni      10.30082432       4.40109785       6.40592150       10       1.00000000       0.13832307      -0.04135727      -0.29895937
Ni       3.81240553       6.53423150       6.46034813       11       1.00000000      -0.01853333      -0.11901764      -0.21366221
Ni       6.38737632       6.55805161       6.36893586       10       1.00000000       0.06923019       0.02410661       0.13879868
Pt       8.97025184       6.47707183       6.44903688       10       0.00000000       0.02591768      -0.07123308       0.13784726
Ni      11.55378062       6.54369090       6.39936238       10       1.00000000      -0.00397357       0.03814515      -0.25782907
