64
Lattice="10.193303793817442 0.02567504878253166 -0.02655668529552733 5.118887141397794 8.820459663259495 -0.03255653060083434 0.0 0.0 21.402961121253043" Properties=species:S:1:pos:R:3:tags:I:1:initial_magmoms:R:1:forces:R:3 unique_id=44498f3c48434075bba18136a8ab9b13 stress="0.0052984316533563345 5.442855841578735e-05 -0.00018607654271365765 5.442855841578735e-05 0.004911554236167473 -2.6040566728330505e-05 -0.00018607654271365765 -2.6040566728330505e-05 -0.0015680763607595887" energy=-370.3283773024273 pbc="T T T"
Ni       0.02377778      -0.04421366       0.11853871        1       1.00000000       0.06530120      -0.07586469      -0.20395525
Ni       2.50239694       0.00699980       0.08526713        1       1.00000000       0.01245073       0.14121589      -0.30081245
Pt       5.11847746      -0.04666191       0.12229378        1       0.00000000      -0.06187986      -0.07017284      -0.59684781
Ni       7.65400879      -0.02589782       0.07836558        1       1.00000000      -0.03562343      -0.12835114      -0.19103565
Ni       1.27081066       2.22324118       0.05172042        1       1.00000000      -0.04387355       0.07007399       0.28409683
Pt       3.79049913       2.27039893       0.11152157        1       0.00000000      -0.01702316       0.03251284      -0.52284412
Ni       6.37739873       2.25108499       0.03914616        0       1.00000000      -0.03294135       0.02976814       0.21748340
Pt       8.92516048       2.27697407       0.05883401        1       0.00000000       0.04799579       0.11521156      -0.68558422
Ni       2.52797740       4.44928632       0.04060562        0       1.00000000       0.04567628       0.04844792       0.45037318
Ni       5.12031181       4.45365357       0.11501170        1       1.00000000      -0.11077786       0.08336323      -0.11796926
Ni       7.62994632       4.45705199       0.02590511        0       1.00000000       0.01986947       0.04368008       0.29526121
Ni      10.22968227       4.45915564       0.02135590        0       1.00000000       0.00791438       0.01240627       0.39291220
Ni       3.83691189       6.59718107       0.03511366        0       1.00000000      -0.02006925      -0.02933972       0.42358476
Ni       6.35681120       6.59909439       0.00000000        0       1.00000000      -0.11036344      -0.03979759       0.20761809
Ni       8.93805368       6.56782574       0.08565445        1       1.00000000       0.15059548      -0.09212802      -0.31750309
Ni      11.50499809       6.58469319       0.09031879        1       1.00000000       0.01769808      -0.00380002       0.07127378
Ni       1.29480995       0.77012713       2.09574569        2       1.00000000      -0.02642047       0.16762427       0.03284537
Ni       3.77941886       0.74492347       2.13751938        2       1.00000000      -0.14527291      -0.00147664       0.05403713
Ni       6.38313485       0.74328052       2.12192865        2       1.00000000      -0.00298957      -0.03424265       0.03050867
Pt       8.88950572       0.67950858       2.12836456        2       0.00000000       0.02878662      -0.11066532      -0.06539219
Ni       2.51415685       2.97916523       2.17171465        3       1.00000000       0.01257968       0.10945277       0.11331457
Ni       5.10709179       2.98785232       2.09545251        2       1.00000000      -0.06668855       0.06993403      -0.02811740
Ni       7.62582512       2.98794151       2.10393662        2       1.00000000       0.03446451      -0.00048155       0.05435971
Ni      10.24193282       3.01932628       2.10470133        2       1.00000000       0.06508244       0.09927656       0.06472553
Ni       3.81140245       5.14850520       2.10609527        2       1.00000000      -0.11710560      -0.02303925       0.11498377
Ni       6.35161191       5.14235316       2.05043293        2       1.00000000      -0.02112078       0.04848015       0.03592598
Ni       8.96692336       5.11940229       2.06933393        2       1.00000000       0.09618189      -0.06446438       0.06073863
Ni      11.48249017       5.15754789       2.09320483        2       1.00000000       0.04320177      -0.03298006       0.17173446
Ni       5.08487415       7.28896835       2.09643786        2       1.00000000      -0.10219312      -0.17469407       0.13402703
Pt       7.64296467       7.37007095       2.05308365        2       0.00000000      -0.05478350       0.01406160      -0.14510273
Ni      10.24706818       7.30523965       2.14237299        2       1.00000000       0.05220735      -0.07660754       0.20919479
Ni      12.73956985       7.30609346       2.08625408        2       1.00000000      -0.01544384      -0.17482679       0.14567144
Pt       0.06244326       1.49316871       4.19552298        5       0.00000000       0.05419769       0.06394195       0.12806980
Ni       2.53384707       1.48267043       4.17248090        5       1.00000000       0.12815414       0.00065730      -0.26914316
Pt       5.07584051       1.44442449       4.10572109        4       0.00000000       0.02166710      -0.07847555       0.12886605
Ni       7.63488163       1.45326435       4.19608356        5       1.00000000      -0.01085311      -0.08734977      -0.17102360
Ni       1.29845733       3.71323213       4.23147233        5       1.00000000       0.08922043       0.13556638      -0.09881229
Ni       3.76105276       3.73412792       4.16839008        5       1.00000000      -0.02473362       0.10533448      -0.22243271
Pt       6.37796500       3.66999733       4.17163029        5       0.00000000      -0.02790022      -0.03601301       0.04586993
Ni       8.97131729       3.73097711       4.16071067        5       1.00000000       0.15847949       0.07338435      -0.23426565
Ni       2.57237829       5.85143154       4.17932420        5       1.00000000      -0.00423833       0.00291431      -0.17302545
Ni       5.04190675       5.91337771       4.18869569        5       1.00000000      -0.05383867      -0.00975058      -0.19914177
Pt       7.65059421       5.89237838       4.18116147        5       0.00000000       0.02092757       0.04636444       0.21428589
Ni      10.24400394       5.86279706       4.15613241        5       1.00000000       0.10980076       0.00104582      -0.21919041
Ni       3.81904241       8.00602472       4.19215383        5       1.00000000      -0.04409246      -0.12122019      -0.06726456
Ni       6.35700570       8.06619312       4.17330280        5       1.00000000      -0.07104666       0.00171269      -0.17039968
Ni       8.93668209       8.07557135       4.16232719        5       1.00000000       0.06160553      -0.01186071      -0.20236071
Ni      11.50584721       8.03156698       4.12309902        4       1.00000000       0.06458813      -0.13068646      -0.23482084
Pt      -0.01466276      -0.07665931       6.40296112        7       0.00000000      -0.07544540       0.14070471       0.08993013
Pt       2.50878891      -0.00492787       6.35005624        7       0.00000000       0.06789770       0.01718396       0.13834675
Pt       5.09515612      -0.00221557       6.30238165        6       0.00000000      -0.07643545      -0.20848418       0.67998121
Pt       7.64344613       0.00796672       6.33647489        6       0.00000000       0.02948684       0.06448895       0.16700487
Ni       1.25343745       2.25544121       6.36065753        7       1.00000000      -0.00320391       0.04235675      -0.10390598
Pt       3.76164560       2.28162158       6.28761053        6       0.00000000      -0.02131156       0.06909650       0.53537292
Ni       6.36511890       2.24028673       6.35529283        7       1.00000000      -0.04147352       0.07024902      -0.03924936
Pt       8.90003641       2.32146485       6.27520927        6       0.00000000      -0.09759546      -0.07705787       0.71024143
Ni       2.52396242       4.38721911       6.33058427        6       1.00000000       0.03737907      -0.03684268      -0.28358550
Pt       5.10136054       4.48720083       6.39497655        7       0.00000000      -0.17672514      -0.07668635      -0.03751935
Ni       7.62244271       4.41435745       6.36205913        7       1.00000000      -0.02698078      -0.03838987      -0.05418619
Ni      10.23116382       4.38810143       6.31810689        6       1.00000000       0.06454097      -0.05836644      -0.26155214
Ni       3.83481376       6.58063383       6.32430494        6       1.00000000      -0.02637883      -0.01088833      -0.25010201
Ni       6.36399316       6.59477451       6.34318447        6       1.00000000       0.03081675       0.05085522      -0.09209119
Pt       8.91216063       6.51164063       6.39676910        7       0.00000000       0.19043443       0.06601379       0.26375999
Pt      11.53159582       6.51457326       6.32055563        6       0.00000000      -0.06237893       0.07762433      -0.10716278
