64
Lattice="10.192661599119289 -0.002080372604691465 0.022916118700904972 5.0945291440346985 8.713793059977318 -0.058925005947649996 0.018710932567422935 -0.06635779033731211 8.681986350933794" Properties=species:S:1:pos:R:3:tags:I:1:initial_magmoms:R:1:forces:R:3 unique_id=074c129469fc495da462e3ee34550b7f stress="-0.007314930237342421 1.6122251769047555e-05 -1.618889414400258e-05 1.6122251769047555e-05 -0.0072327386411862316 -2.0433727121962337e-06 -1.618889414400258e-05 -2.0433727121962337e-06 -0.006236834499257701" energy=-390.8574227671529 pbc="T T T"
Ni       0.04189768      -0.05598781       0.20029039        4       1.00000000       0.07041824      -0.05653726       0.17047083
Ni       2.48904161      -0.01078779       0.19779709        4       1.00000000      -0.03536914       0.05024395       0.14907757
Pt       5.09493362      -0.06583927       0.17838563        4       0.00000000      -0.00946951       0.04115329      -0.13469579
Ni       7.67294184      -0.06957472       0.21607533        4       1.00000000       0.01308398      -0.03783564       0.18583226
Ni       1.27488475       2.19423875       0.11444585        4       1.00000000       0.01217832       0.05968393       0.12726505
Pt       3.73794452       2.24302107       0.17847129        4       0.00000000       0.01675380       0.01802460      -0.09981488
Pt       6.38714354       2.25056869       0.10465128        4       0.00000000       0.00364163       0.03954028      -0.07279938
Pt       9.00022352       2.22986321       0.13483081        4       0.00000000       0.06079220       0.06892301      -0.17015360
Ni       2.52248995       4.40446422       0.08006154        4       1.00000000       0.02599495       0.02799928       0.04936402
Ni       5.08355489       4.43600159       0.08909818        4       1.00000000      -0.06977771       0.04782015       0.06232408
Ni       7.64657365       4.42520681       0.10008997        4       1.00000000       0.02100587       0.06915482       0.10082976
Ni      10.24121234       4.39607067       0.10494208        4       1.00000000       0.11213768       0.06089041       0.10014432
Ni       3.82403319       6.50920545       0.06783017        4       1.00000000       0.00597833      -0.02941603       0.01035358
Ni       6.32814562       6.50301052       0.03199450        4       1.00000000      -0.06952265      -0.05133181      -0.11844535
Ni       8.90791135       6.45736571       0.12928010        4       1.00000000       0.04052454      -0.09824673       0.05379958
Ni      11.52100857       6.46751989       0.05383603        4       1.00000000       0.12184556      -0.03714672      -0.07963246
Ni       1.29318075       0.76599672       2.20537700        3       1.00000000       0.02940581       0.04635143       0.12530422
Ni       3.80085620       0.76694710       2.23538195        3       1.00000000      -0.04380209       0.02041782       0.04808587
Ni       6.37403181       0.74183217       2.25899008        3       1.00000000      -0.01691029       0.01535394       0.05453329
Pt       8.93881663       0.71708149       2.23436642        3       0.00000000       0.02928580      -0.00432011       0.14558447
Ni       2.51466050       2.92306383       2.24563315        3       1.00000000       0.00775546       0.01763208       0.06431879
Ni       5.07216759       2.91925890       2.22122852        3       1.00000000      -0.07625290       0.02443099      -0.01270936
Ni       7.65827924       2.93563328       2.22300200        3       1.00000000       0.02900146       0.00347381      -0.00795052
Ni      10.25168257       2.93493395       2.24498638        3       1.00000000       0.05689484       0.02292622       0.05846705
Ni       3.81658112       5.05426672       2.15631761        3       1.00000000      -0.01825972      -0.06178806       0.02869305
Ni       6.33354829       5.03358626       2.13352630        3       1.00000000      -0.08413883      -0.07286444      -0.02102052
Ni       8.92531625       4.99306955       2.17547309        3       1.00000000       0.01464948      -0.06457121       0.06375223
Ni      11.51718235       4.99805926       2.18419026        3       1.00000000       0.08611675      -0.08401502       0.09132571
Ni       5.07480415       7.17467920       2.10570188        3       1.00000000      -0.06798715      -0.13030689       0.02061454
Pt       7.55830429       7.20079372       2.10864731        3       0.00000000      -0.04195872      -0.07974019       0.03974198
Pt      10.28432941       7.13377538       2.18407979        3       0.00000000       0.02839171      -0.15839431       0.08477097
Ni      12.77343504       7.16762957       2.12831416        3       1.00000000       0.06932143      -0.13113596       0.03624119
Ni       0.07090767       1.46489208       4.26848448        2       1.00000000       0.06261072      -0.00146814      -0.02689662
Ni       2.51293401       1.47821467       4.24253703        2       1.00000000       0.00129340       0.04618849      -0.03468028
Ni       5.11134275       1.44589158       4.23502548        2       1.00000000      -0.07208980       0.04221067      -0.12357176
Ni       7.62528158       1.42172633       4.28828487        2       1.00000000      -0.03521336      -0.05104840      -0.03737559
Ni       1.28833939       3.60626059       4.28439053        2       1.00000000       0.01830493      -0.01318010      -0.02462679
Ni       3.78793254       3.65370607       4.22225650        2       1.00000000      -0.02989259       0.07827257      -0.13283543
Pt       6.37033624       3.61895638       4.27550509        2       0.00000000      -0.00859749      -0.00846137      -0.06797362
Ni       8.96838052       3.64377124       4.23536093        2       1.00000000       0.01718550       0.04735257      -0.12175974
Ni       2.53368608       5.71221907       4.26622397        2       1.00000000      -0.03911518      -0.05366129      -0.14069486
Ni       5.09794553       5.75058471       4.27257528        2       1.00000000      -0.00826483      -0.04893686      -0.14606514
Ni       7.63653580       5.75266422       4.26920337        2       1.00000000       0.01740210      -0.00463346      -0.07913709
Ni      10.24870527       5.70123571       4.29190962        2       1.00000000       0.03026117      -0.04587296      -0.03449639
Pt       3.83173150       7.86475986       4.21687979        2       0.00000000      -0.01385073      -0.01132603       0.05139247
Ni       6.35570895       7.93881335       4.23318814        2       1.00000000      -0.05483085       0.01070478      -0.02653099
Pt       8.89498439       7.96497315       4.21543652        2       0.00000000      -0.06467765      -0.04070334      -0.05211851
Ni      11.50351875       7.92104449       4.23569247        2       1.00000000       0.03684935      -0.07185139      -0.07498980
Pt       0.02282610      -0.08824364       6.47765574        1       0.00000000      -0.08582284       0.03395231       0.17109465
Pt       2.53113312      -0.03176664       6.47927778        1       0.00000000       0.06695735       0.08485426       0.16220403
Pt       5.14045960      -0.02912175       6.35115607        1       0.00000000      -0.04197046       0.09609110       0.09350464
Pt       7.65101371      -0.09460848       6.48995986        1       0.00000000       0.03795752       0.02054249       0.21115464
Ni       1.28673593       2.20663118       6.37447281        1       1.00000000       0.01260427       0.05644863      -0.07339859
Pt       3.82204361       2.27599513       6.29950306        1       0.00000000      -0.00527552       0.09052731      -0.02789586
Ni       6.38306739       2.18545598       6.33138821        1       1.00000000      -0.02788864       0.01749060      -0.09400582
Pt       8.93964869       2.24201231       6.28999964        1       0.00000000      -0.01324236       0.04756252      -0.04699136
Ni       2.53051937       4.37086290       6.36497507        1       1.00000000      -0.02018191       0.07583336      -0.07963195
Ni       5.11243144       4.38001506       6.39774094        1       1.00000000      -0.03591431       0.09659890      -0.01726103
Ni       7.58945315       4.31689375       6.40680879        1       1.00000000      -0.14106406       0.01829991       0.00236326
Ni      10.28838761       4.31040896       6.38644677        1       1.00000000       0.12427703       0.00740353      -0.06070536
Ni       3.82942372       6.39477077       6.38462050        1       1.00000000      -0.03330345      -0.06228683      -0.03677849
Ni       6.35016720       6.42227872       6.36234653        1       1.00000000      -0.00790507       0.01821678      -0.20993292
Pt       8.93271003       6.35188242       6.42124121        1       0.00000000      -0.00142686      -0.03907490       0.07906897
Ni      11.51034833       6.41555551       6.36991595        1       1.00000000      -0.00690451       0.02758466      -0.15410123
