64
Lattice="10.22043429501036 -0.019706824139967064 0.038486577755672866 5.093150537172056 8.776783057974718 0.012139856508413925 0.03142415914911624 -0.006697180264158245 8.737100519174787" Properties=species:S:1:pos:R:3:tags:I:1:initial_magmoms:R:1:forces:R:3 unique_id=ced9409b54f2414f915198c34ab80c5f stress="-6.698593389432156e-05 2.7223180704370934e-06 -1.4213164728767801e-05 2.7223180704370934e-06 -5.974178105510458e-05 3.8947361976194454e-06 -1.4213164728767801e-05 3.8947361976194454e-06 -2.415651451362355e-05" energy=-393.0358051197365 pbc="T T T"
Ni       0.01159118       0.01472547       0.17329493        4       1.00000000       0.06493488       0.01753471       0.26994944
Ni       2.52021986       0.00097213       0.21829054        4       1.00000000      -0.04273368       0.04320977       0.39903758
Pt       5.11846844      -0.03446349       0.16021412        4       0.00000000       0.03389836      -0.07760158       0.35036434
Ni       7.70177336      -0.04873195       0.21232823        4       1.00000000       0.04374717      -0.03838709       0.32712749
Ni       1.23289455       2.20477350       0.11366465        4       1.00000000      -0.10475823       0.06098012       0.21716379
Pt       3.76047579       2.25103924       0.19794165        4       0.00000000      -0.07658902       0.10539483       0.21332862
Pt       6.46152551       2.24879510       0.13071872        4       0.00000000       0.14732867       0.15802859      -0.03396053
Ni       8.98635523       2.20975616       0.18461701        4       1.00000000       0.12816213       0.13216779       0.16827375
Ni       2.53679614       4.42257313       0.07254509        4       1.00000000       0.00626963       0.08350309      -0.00553186
Ni       5.08584367       4.41580151       0.11857972        4       1.00000000      -0.04825578       0.07248943       0.20830777
Ni       7.70689033       4.39339584       0.13471950        4       1.00000000       0.18148515       0.06036342       0.20353797
Ni      10.20856655       4.35899302       0.11721494        4       1.00000000       0.00271603      -0.02982470       0.10235927
Ni       3.79491893       6.57313404       0.11048607        4       1.00000000      -0.00882749      -0.02346786       0.13884312
Pt       6.36575591       6.56699125       0.12059435        4       0.00000000      -0.01882414      -0.01046173      -0.25719188
Ni       8.92774388       6.51976790       0.18942975        4       1.00000000      -0.03656257      -0.12222768       0.19997970
Ni      11.52342298       6.52930317       0.10786896        4       1.00000000       0.07800215      -0.06765312       0.01732507
Ni       1.29017084       0.72973694       2.18032799        3       1.00000000      -0.05539142       0.00696437       0.05506179
Ni       3.81523575       0.74489346       2.23028585        3       1.00000000       0.06425690       0.00525924      -0.00605933
Ni       6.39932133       0.76630531       2.25635866        3       1.00000000      -0.04690836       0.13557500       0.07428835
Pt       8.96477097       0.75108506       2.21631990        3       0.00000000      -0.01933933       0.08825240       0.11975056
Ni       2.54231477       2.92987319       2.23226626        3       1.00000000       0.02831297       0.03077844      -0.01383377
Ni       5.11014617       2.94822089       2.25613110        3       1.00000000      -0.06472351       0.06565440       0.02208880
Ni       7.68732901       2.95766367       2.24627340        3       1.00000000       0.07549654       0.08766016       0.07909326
Ni      10.21989296       2.90964946       2.23693065        3       1.00000000       0.02509736       0.03219656       0.13005405
Ni       3.86880285       5.11134789       2.20836786        3       1.00000000       0.12365755      -0.01196855       0.03243334
Ni       6.38513080       5.10649808       2.22689252        3       1.00000000      -0.01291761       0.02153501      -0.03192045
Ni       8.89554045       5.05683249       2.23042602        3       1.00000000      -0.08190536      -0.16771057       0.11567872
Pt      11.53467109       5.03192465       2.24192906        3       0.00000000       0.10323145      -0.09309938       0.05622579
Ni       5.12017276       7.27624813       2.21207934        3       1.00000000       0.05956840      -0.13618602      -0.03650081
Ni       7.60586378       7.29083766       2.22185452        3       1.00000000      -0.16436896      -0.12389885       0.03806369
Pt      10.19001195       7.22676073       2.22351491        3       0.00000000      -0.06691802      -0.04625409      -0.20968056
Ni      12.81142353       7.26318106       2.19142577        3       1.00000000       0.12252142      -0.17430365      -0.06138955
Ni       0.00314934       1.50972328       4.32213296        2       1.00000000      -0.09775887       0.10608273      -0.04211817
Pt       2.49926690       1.52691952       4.25643107        2       0.00000000      -0.03504588       0.03510140       0.15422484
Ni       5.13888826       1.48615853       4.30526289        2       1.00000000      -0.07193236       0.02954216      -0.18989987
Ni       7.68714097       1.48104955       4.35369753        2       1.00000000       0.04905299       0.02761762      -0.04613498
Ni       1.26085348       3.68727711       4.37594734        2       1.00000000      -0.06345841       0.01319167       0.01842020
Ni       3.83147838       3.72590996       4.30969021        2       1.00000000      -0.04124389       0.11121651      -0.21989037
Pt       6.39673143       3.67058345       4.33913749        2       0.00000000      -0.00816262      -0.05369747      -0.07157167
Ni       8.97736257       3.66914061       4.33842273        2       1.00000000       0.02114876       0.05561818      -0.19699143
Ni       2.57604983       5.78099770       4.37593846        2       1.00000000       0.04453345      -0.09491208      -0.09301204
Ni       5.11897606       5.82138443       4.35466718        2       1.00000000       0.02257194      -0.08659987      -0.20850739
Ni       7.64530030       5.81056146       4.33671359        2       1.00000000       0.00334621      -0.04962916      -0.22535504
Ni      10.23305223       5.75322939       4.39109103        2       1.00000000      -0.01808962      -0.09469680      -0.03761182
Pt       3.90164018       7.97497642       4.29466880        2       0.00000000       0.05322021      -0.11379830       0.12135574
Ni       6.37701247       7.98976012       4.30984636        2       1.00000000      -0.04386180      -0.07467710      -0.16664187
Pt       8.86394919       7.99429871       4.30040280        2       0.00000000      -0.02822310      -0.04332191       0.07486628
Pt      11.53764642       7.99416023       4.30910003        2       0.00000000       0.00329728      -0.03368525       0.04446812
Pt       0.03047397      -0.03862008       6.51375509        1       0.00000000       0.06745264      -0.06063618       0.09236191
Pt       2.54835818      -0.01594133       6.54488796        1       0.00000000      -0.11229280       0.01761915       0.25041615
Pt       5.13661064       0.00381008       6.43920015        1       0.00000000       0.08045536       0.02447032      -0.44224732
Pt       7.69230521      -0.05726671       6.56965551        1       0.00000000      -0.10523520      -0.09634797       0.13191450
Ni       1.28576568       2.25937184       6.47446620        1       1.00000000       0.00789005       0.12331534      -0.11468624
Pt       3.85227880       2.32438529       6.42049365        1       0.00000000      -0.02268657       0.26205216      -0.28377866
Ni       6.41211872       2.22939276       6.41981062        1       1.00000000      -0.01573123       0.03229042      -0.24421019
Pt       8.97128655       2.28166465       6.49251137        1       0.00000000      -0.01859965       0.11896754       0.03242665
Ni       2.54208083       4.43483215       6.45692289        1       1.00000000      -0.04663864       0.09037928      -0.21644897
Ni       5.13133362       4.43818201       6.48070166        1       1.00000000      -0.01453155       0.16587450      -0.13242115
Ni       7.62830055       4.37120909       6.49533920        1       1.00000000      -0.23243409      -0.02454278      -0.09852673
Ni      10.29765431       4.36706359       6.49038679        1       1.00000000       0.22451722      -0.01474021      -0.16526845
Ni       3.83710343       6.49211817       6.47864454        1       1.00000000      -0.02039383      -0.17001089      -0.13994822
Ni       6.36199703       6.50865995       6.39893592        1       1.00000000      -0.03549920      -0.03806941      -0.35337696
Pt       8.95466794       6.42600510       6.52302963        1       0.00000000      -0.01829491      -0.16872402       0.08687467
Ni      11.53794317       6.48734780       6.50822263        1       1.00000000       0.03296481      -0.07975198      -0.20094904
