64
Lattice="10.172813481278077 -0.000640693830039892 -0.005904927344154355 5.0858518835062325 8.733758719258732 -0.09364647926963678 -0.004821352987128806 -0.08550713792276422 8.691308522672724" Properties=species:S:1:pos:R:3:tags:I:1:initial_magmoms:R:1:forces:R:3 unique_id=7a1e594a0c454dc4a7b4853a88fce409 stress="-0.006060703793728549 1.022811625792671e-05 -3.0556556586188983e-06 1.022811625792671e-05 -0.0060027283989325594 5.879497955657945e-06 -3.0556556586188983e-06 5.879497955657945e-06 -0.005198641295875793" energy=-390.8088613558201 pbc="T T T"
Ni       0.04052109      -0.05602499       0.20006924        4       1.00000000       0.06336094      -0.04959343       0.11179099
Ni       2.49491470      -0.03853881       0.19642106        4       1.00000000      -0.00173726      -0.06101871       0.05147622
Pt       5.10561623      -0.04269027       0.16021119        4       0.00000000      -0.03279790      -0.02415882      -0.19780273
Ni       7.63920225      -0.06267010       0.17744626        4       1.00000000       0.00393175      -0.13766222       0.08068403
Ni       1.26345040       2.19114553       0.11076471        4       1.00000000      -0.02535544       0.01463112       0.13507028
Pt       3.76558005       2.23879467       0.17539958        4       0.00000000      -0.05330386      -0.02582414      -0.07886928
Ni       6.36097374       2.22227331       0.09893168        4       1.00000000      -0.02535355       0.05609250       0.12699249
Pt       8.90634120       2.23018774       0.11819091        4       0.00000000       0.00100316       0.03220792      -0.19398964
Ni       2.51283586       4.40267661       0.06182245        4       1.00000000      -0.01903978      -0.00340916       0.05382181
Ni       5.08093082       4.39679799       0.02555799        4       1.00000000      -0.05554388       0.02449139      -0.01543390
Ni       7.61809434       4.39153846       0.03549963        4       1.00000000       0.00421229       0.00239804       0.02354721
Ni      10.20734229       4.39477629       0.06551758        4       1.00000000       0.04177219       0.03169904       0.07238597
Ni       3.81528987       6.51985716       0.04084135        4       1.00000000       0.03092497      -0.07034067       0.04193426
Ni       6.34509909       6.55373519       0.01229816        4       1.00000000      -0.01530880      -0.00247536      -0.07994247
Ni       8.86331784       6.48541503       0.10882133        4       1.00000000      -0.08597949      -0.09631238       0.12657334
Ni      11.47900061       6.48408961       0.02043433        4       1.00000000       0.02380081      -0.07890794      -0.02092871
Ni       1.31717570       0.70663403       2.16486025        3       1.00000000      -0.00842156       0.03614055       0.06604625
Ni       3.74288251       0.69947798       2.19456923        3       1.00000000      -0.05670081      -0.05650590       0.00093427
Ni       6.37566982       0.73136881       2.17781361        3       1.00000000       0.01541494      -0.01683815       0.00304481
Pt       8.88793827       0.68199674       2.16969044        3       0.00000000       0.03032747      -0.03138444       0.15534867
Ni       2.50494791       2.92094249       2.22384060        3       1.00000000      -0.01238443       0.01912857       0.09856715
Ni       5.07731719       2.91245982       2.16072358        3       1.00000000      -0.03041127       0.07678493       0.02589036
Ni       7.62216677       2.90485607       2.18370439        3       1.00000000       0.01410883       0.00667625       0.07854779
Ni      10.22166686       2.95474417       2.16598377        3       1.00000000       0.04163292       0.03393400       0.04752041
Ni       3.77223703       5.06455962       2.13133811        3       1.00000000       0.00445298      -0.03277783       0.00944922
Pt       6.35434818       5.10859417       2.09254992        3       0.00000000       0.00363310       0.00615848      -0.00826576
Ni       8.91487699       5.02341654       2.13582791        3       1.00000000       0.00072924      -0.07497723       0.03182404
Ni      11.47142648       5.03018701       2.13740801        3       1.00000000       0.01918753      -0.03418292       0.06625291
Ni       5.10105150       7.23886337       2.07539602        3       1.00000000      -0.02484726      -0.01800730       0.01969735
Ni       7.60873116       7.28519641       2.11644781        3       1.00000000      -0.01188541      -0.00770781       0.03357569
Pt      10.17228289       7.18434522       2.17879420        3       0.00000000       0.00880524      -0.08784481       0.05578906
Ni      12.71259202       7.17387556       2.06711033        3       1.00000000       0.02118843      -0.13081584       0.02092202
Pt       0.09130318       1.47217102       4.25683823        2       0.00000000       0.07064584      -0.04387980       0.01175172
Ni       2.55103113       1.43003771       4.23466569        2       1.00000000       0.04408620       0.02156912      -0.07301081
Pt       5.06689000       1.39362141       4.17984318        2       0.00000000       0.02139531       0.00295346      -0.12715893
Ni       7.61600290       1.41066527       4.27550778        2       1.00000000      -0.00107478      -0.06222835      -0.04629630
Ni       1.30148906       3.65574437       4.27401158        2       1.00000000       0.04174130      -0.00106377      -0.04770568
Ni       3.76062271       3.67229124       4.22295543        2       1.00000000       0.02726875       0.06951442      -0.13057583
Pt       6.38251339       3.64203432       4.30796444        2       0.00000000       0.03090550      -0.02082689      -0.03395268
Ni       8.93573402       3.68528971       4.22096792        2       1.00000000       0.05801134       0.08292781      -0.11713650
Ni       2.51093084       5.72279393       4.24955051        2       1.00000000      -0.02116205      -0.00705547      -0.14715861
Ni       5.07578713       5.76114071       4.27623260        2       1.00000000       0.00334273      -0.04738110      -0.09453926
Ni       7.64294849       5.81350319       4.22365645        2       1.00000000       0.07070317       0.03311854      -0.09807781
Ni      10.19985238       5.73519313       4.24956380        2       1.00000000       0.03382448      -0.01864130      -0.01942592
Pt       3.80486660       7.84874608       4.18700921        2       0.00000000       0.03541919       0.00292712       0.02474780
Ni       6.39329087       7.91104204       4.16363953        2       1.00000000      -0.02094857      -0.01606288      -0.09009888
Ni       8.84778274       7.92093487       4.18574754        2       1.00000000      -0.06501667      -0.04029837      -0.03065642
Ni      11.45030267       7.88875625       4.19774943        2       1.00000000       0.06177695      -0.08568383      -0.06206531
Pt       0.00857224      -0.11744787       6.51095306        1       0.00000000      -0.08304353       0.02748467       0.15475002
Pt       2.52041807      -0.05752936       6.42564724        1       0.00000000       0.05525290       0.06679622       0.04090409
Pt       5.09576742      -0.07862634       6.33945827        1       0.00000000      -0.09835501      -0.00381170       0.03444706
Pt       7.61456486      -0.10288437       6.47463286        1       0.00000000       0.03047822       0.04982617       0.13227861
Ni       1.27321771       2.20448755       6.41329774        1       1.00000000       0.02653787       0.10294329       0.02498096
Pt       3.78872599       2.27818783       6.33801223        1       0.00000000      -0.02812645       0.11016055       0.04367775
Ni       6.34384015       2.18238257       6.41526269        1       1.00000000      -0.05044350       0.04306032       0.02039368
Pt       8.88009688       2.25592142       6.31599948        1       0.00000000      -0.06086613       0.11958823       0.04493893
Ni       2.51099038       4.37814046       6.35770100        1       1.00000000       0.00295449       0.09325340      -0.07096152
Ni       5.08641913       4.38346574       6.38708645        1       1.00000000      -0.04430203       0.11483100      -0.03647292
Ni       7.56504799       4.33239128       6.40146078        1       1.00000000      -0.13610176       0.06152990       0.02616063
Ni      10.25183733       4.31749385       6.35886615        1       1.00000000       0.13784067       0.02342167      -0.06594233
Ni       3.80687734       6.39647729       6.36517423        1       1.00000000      -0.03114403      -0.02770706      -0.03347648
Ni       6.32802976       6.42559185       6.33815330        1       1.00000000       0.00229663       0.03182885      -0.18388568
Pt       8.89797786       6.36400536       6.36415793        1       0.00000000       0.01132706      -0.01450366       0.12032177
Ni      11.47611095       6.41879222       6.33153252        1       1.00000000       0.00535982       0.03181174      -0.11320927
