64
Lattice="10.274287084134063 -0.0032149956612118323 -0.012435735628046337 5.134359274151361 8.824721863248831 -0.07736476891419561 -0.010153735621620948 -0.06707794163778778 8.768201134596692" Properties=species:S:1:pos:R:3:tags:I:1:initial_magmoms:R:1:forces:R:3 unique_id=5042de4aa40c4e3591844644139d1685 stress="0.00014162572468701118 -2.351245923218318e-07 4.48183130736252e-06 -2.351245923218318e-07 0.00015447201482624712 2.0578702942034254e-05 4.48183130736252e-06 2.0578702942034254e-05 0.00015189559030016203" energy=-395.1247470072286 pbc="T T T"
Ni       0.00381289       0.01197028       0.18744220        4       1.00000000       0.03787831       0.05564574       0.32492357
Ni       2.56799611      -0.00670429       0.21054020        4       1.00000000       0.03986216       0.00105824       0.35797735
Ni       5.14010759      -0.03230523       0.07261326        4       1.00000000       0.00165937      -0.00599658       0.05187694
Ni       7.70976241      -0.03291372       0.05084806        4       1.00000000       0.02303300      -0.05661558       0.03661188
Ni       1.24887451       2.20820123       0.17577626        4       1.00000000      -0.11033171       0.03707328       0.28848543
Pt       3.80280109       2.20660697       0.16351120        4       0.00000000      -0.06369508      -0.03014797       0.17697414
Pt       6.47001821       2.19751411       0.16651480        4       0.00000000       0.06177617       0.00335275       0.38390089
Ni       9.02367612       2.22799507       0.12290978        4       1.00000000       0.10472213       0.09493305       0.15004340
Ni       2.55945647       4.43045396       0.03561693        4       1.00000000      -0.05612555      -0.00024111       0.03137436
Ni       5.10495620       4.42245694       0.03575613        4       1.00000000      -0.09316535      -0.02824104       0.11283795
Ni       7.75662918       4.40330249       0.03663942        4       1.00000000       0.18177002      -0.03989926       0.07943099
Ni      10.26086184       4.39221649       0.03161379        4       1.00000000      -0.04196260      -0.08980834       0.04107143
Ni       3.83743339       6.59705603       0.00534628        4       1.00000000       0.01892057      -0.12801131       0.02310015
Pt       6.41542305       6.63922344      -0.01175535        4       0.00000000      -0.02931374      -0.03144538      -0.23314778
Ni       8.99042430       6.59085997       0.08507827        4       1.00000000      -0.10703577      -0.17127833       0.16304492
Ni      11.55717046       6.59980312      -0.03115239        4       1.00000000      -0.04307774      -0.15481204      -0.15715456
Ni       1.29511164       0.73843165       2.14881708        3       1.00000000      -0.01738466       0.07409811       0.00101634
Ni       3.85004394       0.72663909       2.19580213        3       1.00000000       0.10005793       0.00776951       0.01698001
Ni       6.39728987       0.74338874       2.23610988        3       1.00000000      -0.00597426       0.05301742       0.16347271
Pt       9.01061847       0.79152022       2.17149732        3       0.00000000      -0.07373302      -0.00471796       0.07218875
Ni       2.55565636       2.92981337       2.18921938        3       1.00000000       0.00507425       0.07039789      -0.05418899
Ni       5.10447663       2.91023766       2.22425704        3       1.00000000      -0.12307120      -0.07296984       0.07748563
Ni       7.75207298       2.94242321       2.19231560        3       1.00000000       0.18138044       0.07526492       0.05276097
Ni      10.26661378       2.92690504       2.17419211        3       1.00000000       0.00981253       0.02254093       0.15005148
Ni       3.85095511       5.08333464       2.13251577        3       1.00000000      -0.01795157      -0.14496025      -0.06889226
Pt       6.44150737       5.10986772       2.13005425        3       0.00000000       0.01723921       0.07874308      -0.15516268
Ni       8.98427801       5.08792457       2.15353350        3       1.00000000       0.04468596      -0.06992949       0.08136827
Pt      11.54288222       5.03928266       2.15648020        3       0.00000000       0.00127303      -0.00291735      -0.02630978
Ni       5.13888116       7.34276495       2.10874542        3       1.00000000      -0.03927318      -0.05907999      -0.06829989
Ni       7.69662529       7.35614462       2.11322227        3       1.00000000       0.02120075      -0.03896077       0.00593148
Pt      10.23945386       7.34971214       2.06942445        3       0.00000000      -0.00485169      -0.03063488       0.02743969
Pt      12.85894752       7.31448583       2.06998256        3       0.00000000       0.05506584      -0.05878425      -0.07618335
Ni      -0.02517533       1.50111265       4.31893017        2       1.00000000      -0.00361967       0.15343159      -0.00831349
Pt       2.55296831       1.52467481       4.21290831        2       0.00000000      -0.03014728       0.06909729       0.12291668
Ni       5.16495104       1.41754446       4.28048017        2       1.00000000       0.03267375       0.00386912      -0.11905241
Ni       7.69388743       1.43148423       4.30070467        2       1.00000000      -0.02761025       0.04855800      -0.06743583
Ni       1.25149675       3.69555926       4.33004567        2       1.00000000      -0.05772800       0.01447877      -0.00199108
Ni       3.81507079       3.67403231       4.29306829        2       1.00000000      -0.12329432       0.01695194      -0.17944771
Pt       6.45721926       3.60200495       4.28446665        2       0.00000000       0.01465785      -0.11000348       0.14575193
Ni       9.02429011       3.66630265       4.29263985        2       1.00000000       0.12413758       0.07121598      -0.15628715
Ni       2.50377372       5.81329713       4.35630626        2       1.00000000      -0.16505039      -0.01352835      -0.08079446
Pt       5.05505596       5.80412171       4.33885593        2       0.00000000      -0.10617553      -0.00250911      -0.16467533
Ni       7.74714917       5.80700900       4.30042290        2       1.00000000       0.14692831      -0.04986113      -0.14006295
Ni      10.30017188       5.79609498       4.31280061        2       1.00000000       0.01993322      -0.00963415      -0.09685783
Pt       3.74695596       8.07432518       4.31455823        2       0.00000000       0.01542223       0.01976142       0.10634230
Pt       6.41275870       8.04407158       4.19955251        2       0.00000000      -0.06916253       0.04421770       0.02284034
Pt       9.05629440       8.03672901       4.26417167        2       0.00000000      -0.05586387      -0.05916393       0.06032600
Ni      11.54713246       8.05216177       4.32121367        2       1.00000000      -0.05327884      -0.05857686      -0.07489565
Pt      -0.06279669      -0.11398414       6.58604992        1       0.00000000      -0.06040201      -0.06895812       0.19955925
Pt       2.59103169      -0.07593309       6.58439292        1       0.00000000       0.05200359       0.01316783       0.23916537
Ni       5.18695094      -0.08682041       6.49124771        1       1.00000000       0.07078469      -0.11527335      -0.12839474
Ni       7.64188114      -0.10439599       6.49861436        1       1.00000000      -0.09820643      -0.12170392      -0.08958535
Pt       1.26982673       2.26479093       6.50743350        1       0.00000000       0.05941586       0.08506332       0.17810975
Pt       3.87479918       2.24252150       6.41523636        1       0.00000000       0.01050082       0.21310075      -0.29535440
Pt       6.42039115       2.11485759       6.43147212        1       0.00000000      -0.00434495      -0.02698661      -0.21099236
Pt       8.96408205       2.22468855       6.45720059        1       0.00000000       0.04123973       0.13754309      -0.01731109
Ni       2.55513265       4.45374327       6.43548033        1       1.00000000      -0.01680267       0.20216345      -0.19426642
Ni       5.12322156       4.41953390       6.47296286        1       1.00000000       0.02728902       0.12009716      -0.06621716
Ni       7.68040931       4.39179208       6.44980576        1       1.00000000      -0.10979368       0.02883743      -0.15407176
Ni      10.29861837       4.40387573       6.42632193        1       1.00000000       0.21380909       0.08130342      -0.21360566
Ni       3.78837959       6.52546146       6.45671801        1       1.00000000      -0.16067589      -0.03025192      -0.08278184
Ni       6.40466520       6.51259955       6.36381212        1       1.00000000       0.08506239      -0.05393487      -0.40109557
Pt       9.03830846       6.47735543       6.46224702        1       0.00000000       0.08289713       0.01427842       0.09592121
Ni      11.58754009       6.56595666       6.40856718        1       1.00000000       0.06693648       0.02880598      -0.25845204
