64
Lattice="10.464894822536689 0.05047377696370019 0.04103436252860817 5.276158984343858 9.139871090115129 0.024113220501683793 0.0 0.0 21.806453327229626" Properties=species:S:1:pos:R:3:tags:I:1:initial_magmoms:R:1:forces:R:3 unique_id=af32273692f44dca882a904954977a4d energy=-384.62153692735893 stress="0.0073894060608056976 0.000160562094330001 -0.0001670121912671525 0.000160562094330001 0.007893361204466978 0.00021977537340697417 -0.0001670121912671525 0.00021977537340697417 -0.0010638480530802963" pbc="T T T"
Pt      -0.07610184       0.05500736       0.02673523        0       0.00000000      -0.13842552      -0.00708119      -0.14962785
Ni       2.65560894      -0.01029223       0.18199133        2       1.00000000       0.08421897      -0.02761919      -0.06045800
Ni       5.28250201      -0.00562935       0.18792346        2       1.00000000       0.14006395       0.02947963       0.04787890
Ni       7.80035483       0.07987781       0.14849152        1       1.00000000      -0.10421627       0.03052877       0.51060990
Pt       1.26517742       2.30791851       0.00000000        0       0.00000000       0.04519357       0.10328169      -0.26923305
Pt       4.00819857       2.23533924       0.14366031        1       0.00000000       0.12955882       0.10795191      -0.61262709
Ni       6.60645443       2.26188626       0.18878818        2       1.00000000      -0.05339310      -0.12934902       0.28635008
Ni       9.11934898       2.34149866       0.12418749        1       1.00000000      -0.04974888       0.00425335       0.40691054
Pt       2.54834939       4.61533158       0.15334179        2       0.00000000      -0.07662141       0.07075583      -0.74536805
Pt       5.35737799       4.52545772       0.19310475        2       0.00000000       0.12977914      -0.10416260      -0.42615957
Ni       7.93636336       4.57375986       0.19496316        2       1.00000000       0.08115055       0.07622407       0.30061179
Ni      10.42867903       4.64974834       0.13034805        1       1.00000000      -0.04360511       0.13193218       0.41847612
Pt       3.86482674       6.91494992       0.16031043        2       0.00000000      -0.17730603       0.02184982      -0.82585942
Pt       6.66905690       6.84305286       0.16082662        2       0.00000000      -0.06891304      -0.16124369      -0.71833304
Ni       9.24263901       6.85335584       0.12057272        1       1.00000000       0.04088773      -0.07604904       0.47227137
Ni      11.76843412       6.91568704       0.19989320        2       1.00000000       0.06620211      -0.04133374      -0.07139572
Pt       1.29358728       0.77909979       2.27236151        3       0.00000000       0.01271636       0.04758060       0.20048355
Pt       4.06463866       0.76863090       2.31993212        3       0.00000000       0.11028134      -0.16336597       0.35126823
Ni       6.60404350       0.80290278       2.28460956        3       1.00000000       0.10175845       0.00589728       0.09338830
Ni       9.09544233       0.81905111       2.29780933        3       1.00000000      -0.09767588       0.02387159       0.05801580
Pt       2.65600872       3.08193468       2.33908984        3       0.00000000      -0.07365359      -0.06167745       0.28399205
Ni       5.29769749       3.04664303       2.36763636        4       1.00000000       0.03039050      -0.03518694       0.43130802
Pt       7.80274714       3.06594482       2.32375484        3       0.00000000      -0.03133239      -0.02389132       0.09506453
Pt      10.40731264       3.16459492       2.28851219        3       0.00000000      -0.02930098       0.01498016       0.05865850
Pt       3.97059705       5.31477426       2.33195018        3       0.00000000       0.08326193       0.01645390       0.27384274
Ni       6.62754441       5.30484902       2.33379888        3       1.00000000       0.10695666      -0.07939074       0.31720617
Ni       9.18624626       5.35027909       2.32136447        3       1.00000000      -0.02251904      -0.03369935       0.12925636
Ni      11.76656268       5.38984173       2.32412111        3       1.00000000      -0.02467006      -0.06174940       0.16653065
Pt       5.23255987       7.63498393       2.30922754        3       0.00000000      -0.01031817       0.04336656       0.23342162
Pt       7.95420344       7.53069688       2.32735311        3       0.00000000       0.15316452       0.02401163       0.28095761
Pt      10.58816605       7.57139993       2.26297152        3       0.00000000      -0.06783677      -0.03589363       0.20432389
Ni      13.10181306       7.71057590       2.32068047        3       1.00000000       0.00629166       0.12498967       0.14620078
Pt      -0.08953182       1.59590013       4.56853219        7       0.00000000      -0.14660357       0.16526061      -0.18335541
Pt       2.66839930       1.56557442       4.51206078        6       0.00000000      -0.05346775       0.02466459      -0.22810367
Ni       5.30888266       1.60531169       4.49471939        6       1.00000000       0.06467719       0.15674254      -0.26887903
Ni       7.83793707       1.61008932       4.51056142        6       1.00000000      -0.09484782       0.13218996      -0.17785146
Pt       1.23399696       3.86220189       4.51401947        6       0.00000000      -0.19852555       0.04077834      -0.18388739
Ni       4.00888597       3.79102545       4.49809008        6       1.00000000       0.09111242      -0.03235620      -0.37556640
Ni       6.61070251       3.78377753       4.49215317        6       1.00000000       0.03924991      -0.07821757      -0.26545992
Ni       9.13720231       3.88403903       4.52975013        6       1.00000000      -0.14112550       0.03441309      -0.19090153
Pt       2.60288357       6.09778333       4.44711118        5       0.00000000      -0.07851942       0.10231307      -0.33656840
Pt       5.36142785       6.00604462       4.46940508        6       0.00000000       0.08351892      -0.08469100      -0.31066349
Ni       7.95215257       6.03739125       4.51678655        6       1.00000000       0.09224210      -0.16850974      -0.24869932
Ni      10.44810676       6.09690066       4.55182626        7       1.00000000      -0.11908700      -0.01786439      -0.09963610
Pt       3.93402367       8.45104943       4.49784627        6       0.00000000      -0.05543928       0.07984216      -0.20364234
Pt       6.59287891       8.38310538       4.53546643        6       0.00000000      -0.09990785       0.04576373      -0.28061555
Pt       9.23984125       8.31689930       4.57720532        7       0.00000000      -0.01634661      -0.07998863      -0.02741610
Pt      11.82303507       8.50492235       4.50073308        6       0.00000000      -0.06491215       0.18277716      -0.11697921
Ni      -0.01088238       0.05508931       6.64319517        8       1.00000000      -0.00500603      -0.01769677       0.11967907
Pt       2.58767302       0.03240518       6.80551002       10       0.00000000      -0.07045039       0.11811686       0.22993382
Pt       5.27591604       0.01694933       6.80645333       10       0.00000000      -0.05461837       0.18604920       0.01040841
Ni       7.90422710       0.06935089       6.75643037       10       1.00000000       0.06057670      -0.03183465      -0.36059920
Ni       1.27504869       2.29118213       6.63312922        8       1.00000000       0.00620345       0.00875759       0.17462270
Pt       3.96205987       2.29812856       6.65322216        9       0.00000000       0.14237732       0.01520943       0.77549681
Pt       6.68647245       2.26911720       6.71744587        9       0.00000000       0.01884610       0.00514626      -0.22390524
Ni       9.22135494       2.31104718       6.77257313       10       1.00000000       0.04931765       0.00229531      -0.39018706
Pt       2.59658198       4.53959525       6.66863065        9       0.00000000       0.21775420      -0.04937531       0.58081581
Pt       5.30996243       4.55709610       6.66696942        9       0.00000000       0.02403219      -0.06453188       0.50278166
Pt       8.02156925       4.58092638       6.72190251        9       0.00000000      -0.09058195      -0.11214405      -0.38313450
Ni      10.49146821       4.58965975       6.75514767       10       1.00000000       0.06593548      -0.05074503      -0.37726185
Pt       3.96214160       6.93479862       6.68624159        9       0.00000000       0.03761284      -0.11736862       0.61314920
Pt       6.64999835       6.86294021       6.68703350        9       0.00000000       0.02011031      -0.09748331       0.72667712
Ni       9.21783971       6.85187813       6.75913966       10       1.00000000       0.00093488       0.00286889      -0.18936916
Pt      11.74533696       6.86379810       6.80265805       10       0.00000000       0.02259757      -0.13609702      -0.19884795
