64
Lattice="10.334324857686681 -0.04875497406635695 0.016003233495273626 5.124939382741022 8.884636914290873 -0.029481274879547884 0.0 0.0 21.554019006762523" Properties=species:S:1:pos:R:3:tags:I:1:initial_magmoms:R:1:forces:R:3 unique_id=446489c45a8c40a19461275bc30f2446 energy=-375.6779447493939 stress="0.0056783102548411315 -0.00019716005176120377 0.00011619538733102723 -0.00019716005176120377 0.005844243857271482 -0.00032159666943663156 0.00011619538733102723 -0.00032159666943663156 -0.001923972827224325" pbc="T T T"
Ni       0.00418432       0.01631417       0.12359463        1       1.00000000       0.10695106      -0.04790013      -0.17224697
Ni       2.57897340      -0.01078058       0.15688805        2       1.00000000      -0.04318376       0.01909929      -0.11415182
Ni       5.16133987      -0.03774202       0.11702814        1       1.00000000      -0.01325879       0.20384964      -0.37469350
Ni       7.75328001      -0.08402248       0.14199258        1       1.00000000      -0.11157754      -0.12083480      -0.20640584
Ni       1.25049464       2.22355976       0.04330275        0       1.00000000      -0.07652090      -0.00119177       0.45158669
Pt       3.79595899       2.21502325       0.05662836        1       0.00000000       0.02252174      -0.00007770       0.00593388
Pt       6.46725376       2.14582805       0.14029578        1       0.00000000       0.01853347      -0.05008124      -0.46714910
Ni       9.07264566       2.18219845       0.10060523        1       1.00000000       0.04862529       0.12791714      -0.06536342
Ni       2.56100627       4.45261138       0.00258117        0       1.00000000       0.09445137      -0.00350146       0.23000221
Ni       5.11405134       4.44231400       0.11813100        1       1.00000000      -0.04963036       0.03316224       0.09125416
Pt       7.80304052       4.42682980       0.04577902        0       0.00000000       0.00506754      -0.02221276       0.01337757
Ni      10.34134100       4.39369660       0.01430405        0       1.00000000       0.03173708      -0.08481449       0.24659924
Ni       3.81177864       6.65730901       0.11532743        1       1.00000000      -0.03002960      -0.04917162       0.07675786
Pt       6.40054192       6.68808108       0.11689921        1       0.00000000      -0.08026491       0.02414241      -0.52870015
Ni       9.03167012       6.64755026       0.00342240        0       1.00000000      -0.11170199      -0.01987564       0.10843651
Ni      11.61334831       6.62150196       0.00000000        0       1.00000000       0.14915573      -0.00033679       0.16370876
Ni       1.30415748       0.74730850       2.10728963        4       1.00000000       0.01802366       0.12422839      -0.02295272
Ni       3.86811236       0.74017677       2.14160898        4       1.00000000       0.05628338       0.07837561       0.14886285
Ni       6.45321619       0.72107710       2.18782725        5       1.00000000      -0.02870334       0.15334107       0.25591995
Pt       9.04934759       0.73047616       2.13470299        4       0.00000000       0.01907859       0.07709290       0.15321717
Ni       2.57860640       2.94300423       2.13906158        4       1.00000000       0.02694571       0.02829004       0.08493995
Ni       5.12611054       2.95070429       2.17505338        5       1.00000000      -0.18597085       0.02334101       0.15280074
Ni       7.76602741       2.94048525       2.18506930        5       1.00000000       0.11657565       0.07022016       0.16846709
Ni      10.32221444       2.90783177       2.13677230        4       1.00000000       0.08833375       0.03063118       0.03502078
Ni       3.88718374       5.16617949       2.14040720        4       1.00000000       0.10914689      -0.08498967       0.12211658
Ni       6.42051572       5.15979075       2.16246934        5       1.00000000      -0.06980655       0.04104362       0.12742454
Ni       8.99929239       5.12359083       2.16796115        5       1.00000000      -0.05881936      -0.11935675       0.16714527
Pt      11.65138364       5.09723287       2.07999485        4       0.00000000       0.08853385      -0.08122257      -0.01934371
Ni       5.10993604       7.36019442       2.12020499        4       1.00000000      -0.13039817      -0.14531198       0.08358878
Ni       7.71612858       7.37483196       2.12012062        4       1.00000000       0.05545010      -0.08299804       0.00914095
Pt      10.28293533       7.37676273       2.03382086        3       0.00000000       0.02347839      -0.12633917      -0.10262026
Ni      12.91021972       7.33349016       2.09330854        4       1.00000000       0.05324121      -0.05853557       0.05074855
Ni      -0.01684804       1.49811785       4.27839321        7       1.00000000      -0.04015306      -0.04454026      -0.22374549
Pt       2.61596603       1.51091809       4.24532141        6       0.00000000       0.00206563      -0.01655116      -0.13262033
Ni       5.16680982       1.47708607       4.26654982        7       1.00000000       0.04652642       0.10294472      -0.34031920
Ni       7.77102842       1.46675544       4.27475355        7       1.00000000       0.06975680       0.04014599      -0.28291964
Pt       1.27631095       3.68027500       4.33108105        7       0.00000000      -0.06057468      -0.03419833      -0.07283194
Ni       3.87489957       3.70720106       4.26626418        7       1.00000000       0.06754615       0.10612527      -0.31446170
Pt       6.46084637       3.69140905       4.18390701        6       0.00000000      -0.06614269       0.00772692      -0.01637098
Ni       9.01310917       3.63590575       4.27386837        7       1.00000000      -0.04976227      -0.12853969      -0.35067545
Ni       2.58517249       5.86963822       4.27581831        7       1.00000000       0.07231457      -0.09332487      -0.20785840
Ni       5.12239459       5.85548541       4.23235616        6       1.00000000      -0.08166405      -0.07190744      -0.39200244
Ni       7.73438482       5.84089978       4.25507994        7       1.00000000      -0.05575746      -0.02830909      -0.35902253
Pt      10.27007116       5.82008939       4.35493865        8       0.00000000       0.00736548       0.02044009      -0.09367879
Pt       3.84613456       8.09945363       4.20482574        6       0.00000000       0.01548555      -0.04433192       0.02125641
Pt       6.40962022       8.08761232       4.15282092        6       0.00000000      -0.08071843      -0.00062252      -0.19115888
Pt       8.98948565       8.09708769       4.23469359        6       0.00000000      -0.06396086       0.00158063      -0.04305612
Pt      11.61432697       8.11964708       4.22972821        6       0.00000000       0.06146951       0.05875904      -0.04407785
Pt       0.03419726       0.02416432       6.51513335       10       0.00000000       0.06384148       0.05566179       0.26098720
Pt       2.60487218       0.02016642       6.55401901       11       0.00000000       0.02516937       0.02175315       0.34711451
Pt       5.15952830      -0.10259320       6.53280332       10       0.00000000      -0.02642306       0.10829585       0.46306647
Pt       7.75251905      -0.07173219       6.54505114       10       0.00000000       0.00526868       0.23405280       0.40642419
Ni       1.31528181       2.25808795       6.46646618       10       1.00000000       0.03556198       0.02583535      -0.11690407
Ni       3.83968963       2.21693141       6.38957498        9       1.00000000      -0.01078014      -0.06053582       0.11009437
Pt       6.45151539       2.19177392       6.38855908        9       0.00000000       0.02419000      -0.10570285       0.53136369
Pt       9.10366686       2.27728690       6.45135568       10       0.00000000      -0.01569647       0.05109718       0.04334720
Ni       2.52062058       4.39025003       6.45011937       10       1.00000000      -0.03945793      -0.01322600      -0.17217253
Pt       5.08651955       4.36359393       6.45525552       10       0.00000000      -0.08798207       0.06887525       0.05931607
Ni       7.78900057       4.41926470       6.37100980        9       1.00000000       0.08071810       0.07130615      -0.04586619
Ni      10.34238247       4.41576268       6.48214991       10       1.00000000       0.02721823       0.05119864      -0.11318492
Pt       3.77491510       6.57227610       6.46561067       10       0.00000000       0.11346430      -0.13512550       0.07987807
Pt       6.50259093       6.56742185       6.38008078        9       0.00000000      -0.11611646      -0.07442493       0.44648540
Ni       9.04382675       6.55698709       6.46335636       10       1.00000000      -0.08486195      -0.03806693      -0.03934374
Ni      11.57456184       6.54093947       6.46960377       10       1.00000000       0.01982103      -0.07237406      -0.09048498
