64
Lattice="10.63657456645497 -0.008231602881860613 0.029052849562499487 5.311158506017929 9.200121485568035 -0.0062021056056544436 0.0 0.0 21.89387222096364" Properties=species:S:1:pos:R:3:tags:I:1:initial_magmoms:R:1:forces:R:3 unique_id=157a40a032054b0386e3436285458daf stress="0.0025789761861391355 2.407814026568492e-05 -0.0001224314680145713 2.407814026568492e-05 0.002939815633623638 -9.988338688620303e-05 -0.0001224314680145713 -9.988338688620303e-05 -0.003160053439464185" energy=-395.1558945638484 pbc="T T T"
Ni       0.01571488      -0.01939192       0.12781003        1       1.00000000       0.04062221      -0.04759933       0.17926238
Pt       2.60654373      -0.02034699       0.12842120        1       0.00000000       0.07014033       0.07687095      -0.22892707
Pt       5.33760748       0.00239638       0.02289394        0       0.00000000      -0.19339678      -0.02654800       0.08324761
Pt       7.97109376      -0.03103505       0.13764434        1       0.00000000       0.05841721      -0.18623273      -0.45689215
Pt       1.31434032       2.25507663       0.01365373        0       0.00000000      -0.08535014      -0.09336674      -0.03849698
Pt       4.02342046       2.28601767       0.00000000        0       0.00000000      -0.04600020      -0.06873370      -0.02919231
Ni       6.64387745       2.29021361       0.04580915        0       1.00000000       0.04947746       0.01974056       0.27277684
Pt       9.28677960       2.25531639       0.11109222        1       0.00000000       0.00338243      -0.02665854      -0.48616567
Pt       2.66527824       4.62474512       0.00187369        0       0.00000000       0.17202629       0.04893796      -0.01688812
Pt       5.34975782       4.61413446       0.11965522        1       0.00000000       0.05388407       0.18658956      -0.48549123
Pt       7.93736387       4.60942776       0.11792492        1       0.00000000      -0.02170460       0.12410304      -0.59193116
Pt      10.64305229       4.61480520       0.11051429        1       0.00000000      -0.15184721      -0.07443549      -0.61838174
Pt       4.02982299       6.95763512       0.14572548        1       0.00000000       0.07611955       0.17700016      -0.30475105
Ni       6.63365412       6.90957522       0.13988103        1       1.00000000      -0.06906705      -0.05009124       0.22661324
Pt       9.29677190       6.91181214       0.02010206        0       0.00000000      -0.08456912       0.03001138      -0.00208913
Ni      11.97190016       6.90102376       0.13145868        1       1.00000000       0.08021242       0.08177177       0.11712922
Ni       1.33035182       0.73830443       2.30434999        2       1.00000000       0.01534298      -0.05224086       0.28932389
Ni       3.97709748       0.74257760       2.32367827        2       1.00000000      -0.01632386      -0.03592835       0.28702234
Pt       6.64184115       0.74645874       2.32364658        2       0.00000000       0.00749456       0.04860821       0.19699943
Pt       9.39543219       0.66225370       2.31834694        2       0.00000000       0.12619222      -0.18780012       0.23194658
Pt       2.67629022       2.98786301       2.31128555        2       0.00000000       0.06785276      -0.06949844       0.18588977
Pt       5.31656886       3.04154970       2.30561402        2       0.00000000      -0.03097811      -0.10575899       0.21233366
Pt       7.95139448       3.05360580       2.30072683        2       0.00000000      -0.05322761      -0.11766598       0.21019078
Pt      10.66754323       2.99288248       2.36386444        3       0.00000000       0.08495972      -0.04533894       0.36050412
Pt       4.03127207       5.42285868       2.31972825        2       0.00000000      -0.00295882      -0.04945377       0.27638962
Ni       6.63652918       5.39475213       2.28839204        2       1.00000000      -0.04669171       0.14206976       0.35863620
Pt       9.27192907       5.37857315       2.33136004        2       0.00000000       0.01495897       0.04142655       0.34355640
Pt      12.00067706       5.40241819       2.30751917        2       0.00000000       0.06313181       0.05931917       0.25296558
Ni       5.34028298       7.66865396       2.26907274        2       1.00000000       0.15117375       0.00119296       0.19618236
Pt       7.90751522       7.69371563       2.30527264        2       0.00000000      -0.05486165      -0.01552563       0.17502828
Pt      10.61941243       7.69925678       2.31629320        2       0.00000000      -0.07540289       0.05706157       0.20708489
Ni      13.30361270       7.66000816       2.30798144        2       1.00000000      -0.05517681      -0.00176474       0.39551045
Ni       0.02559119       1.51241120       4.56378159        5       1.00000000       0.00413639      -0.05244641      -0.31733569
Pt       2.65857026       1.48356390       4.56226099        5       0.00000000      -0.00142972       0.00277982      -0.26657841
Pt       5.28884836       1.47750397       4.64212559        5       0.00000000       0.00244507      -0.01104203      -0.09744920
Pt       7.99299618       1.51676919       4.57827535        5       0.00000000      -0.06492850       0.01704743      -0.31695377
Pt       1.33942405       3.77109819       4.61058151        5       0.00000000       0.03364593      -0.08647413      -0.21011055
Pt       3.97581286       3.80012329       4.61549913        5       0.00000000      -0.09542418      -0.02715025      -0.25067779
Pt       6.64877073       3.80897804       4.56062210        5       0.00000000       0.00961729      -0.10259137      -0.31067335
Pt       9.33914697       3.79544955       4.56868950        5       0.00000000      -0.00462637       0.02273359      -0.40249022
Pt       2.65211950       6.13062261       4.55729705        5       0.00000000      -0.08357807      -0.05604648      -0.27434985
Pt       5.35739680       6.13905333       4.50657715        4       0.00000000       0.09062771       0.08201366      -0.28677243
Pt       7.99336883       6.17633431       4.57113484        5       0.00000000       0.01984988       0.21292773      -0.23438346
Pt      10.61277327       6.15965150       4.59612493        5       0.00000000      -0.08447167       0.04732321      -0.24888329
Pt       4.01101405       8.44094567       4.50297136        4       0.00000000      -0.01375923       0.01189620      -0.31909037
Pt       6.65024885       8.47401630       4.49436913        4       0.00000000      -0.09725817       0.03562572      -0.26583569
Ni       9.31212975       8.43312133       4.58794082        5       1.00000000      -0.03012508      -0.00658185      -0.29575000
Pt      11.93525900       8.42051252       4.57725703        5       0.00000000      -0.05288511      -0.01878869      -0.27451241
Pt       0.05785477       0.02944806       6.84981011        6       0.00000000       0.10152752       0.07080468      -0.05392521
Pt       2.76933590       0.01381939       6.78250474        6       0.00000000       0.17912893      -0.00561273       0.13898890
Ni       5.31882610      -0.00253049       6.77604789        6       1.00000000      -0.07213751       0.00300112      -0.14290497
Pt       7.92408096       0.01383451       6.82150618        6       0.00000000      -0.03196022      -0.07419953       0.51934341
Ni       1.37070989       2.29082347       6.75672152        6       1.00000000       0.07599178      -0.03772365      -0.20642508
Ni       4.00444170       2.27661601       6.76684527        6       1.00000000      -0.03565786      -0.04944120      -0.14988576
Ni       6.63196445       2.26802629       6.84465013        6       1.00000000      -0.06447249      -0.00461503      -0.43242115
Pt       9.33632126       2.27762029       6.79197807        6       0.00000000       0.16375809      -0.01632591       0.58420341
Ni       2.66235187       4.55562597       6.76470079        6       1.00000000      -0.00053468      -0.02249451      -0.05372869
Pt       5.29462691       4.50510794       6.81006988        6       0.00000000      -0.01856190       0.03460470       0.57972943
Pt       7.98887710       4.57732170       6.80094731        6       0.00000000       0.02117863      -0.00671718       0.55200284
Pt      10.69106189       4.58025303       6.81173845        6       0.00000000      -0.05032779      -0.00659447       0.72265035
Pt       3.98200157       6.86698324       6.80428405        6       0.00000000      -0.03329285       0.01558576       0.42849145
Pt       6.68974119       6.89717779       6.87927178        7       0.00000000      -0.05344805      -0.00696492       0.05159205
Ni       9.32677467       6.90264232       6.77799363        6       1.00000000       0.02718113       0.08094072      -0.10587105
Pt      11.92237494       6.89674792       6.89387222        7       0.00000000       0.01195892       0.11446400       0.14061952
