64
Lattice="10.133060482232658 0.009107384209118668 -0.0014659972393324646 5.0744174672035065 8.74929238188167 -0.008182822118250973 0.0 0.0 21.49413059227576" Properties=species:S:1:pos:R:3:tags:I:1:initial_magmoms:R:1:forces:R:3 unique_id=994f922260e444809d5c889e7c35cc2a energy=-368.224991009862 stress="0.004211285458931676 1.4304554696849767e-05 8.956540119918984e-05 1.4304554696849767e-05 0.003910395383627302 -9.069994604278879e-05 8.956540119918984e-05 -9.069994604278879e-05 -0.0026986697254369743" pbc="T T T"
Ni       0.03889254      -0.03316865       0.18268076        2       1.00000000       0.07686478       0.05156036      -0.48776734
Ni       2.51934979      -0.02565301       0.19679143        2       1.00000000       0.07219070       0.04087109      -0.30275251
Ni       5.08016659      -0.00956751       0.07589489        1       1.00000000      -0.07936576       0.02850148       0.10519090
Ni       7.57111284      -0.00208890       0.15047595        2       1.00000000      -0.02356842       0.08073643      -0.56023457
Ni       1.27189019       2.20072567       0.10652410        1       1.00000000       0.01976479      -0.03049358       0.24540298
Pt       3.79575894       2.19775870       0.17068847        2       0.00000000      -0.03476357      -0.00388782      -0.60866616
Ni       6.33049742       2.20240505       0.09585425        1       1.00000000      -0.00200683       0.02742193       0.14836740
Pt       8.87365704       2.25220433       0.00000000        0       0.00000000       0.02543450       0.00468324      -0.13825797
Ni       2.51376446       4.40625281       0.09020462        1       1.00000000       0.06192548      -0.00177949       0.26496801
Ni       5.07050150       4.40177612       0.05807189        1       1.00000000      -0.10579211      -0.06152971       0.11471334
Ni       7.59744081       4.41287455       0.05796197        1       1.00000000       0.10812612       0.04676415       0.06407089
Ni      10.16471908       4.41955405       0.08963037        1       1.00000000      -0.05910808       0.07810658       0.20703148
Ni       3.83257304       6.53425564       0.05122255        1       1.00000000       0.07777732      -0.02343810       0.10640779
Ni       6.33352876       6.58187957       0.05976546        1       1.00000000       0.02917283       0.07740445       0.11906271
Ni       8.84433658       6.54744302       0.13593104        1       1.00000000      -0.10579793      -0.06300457      -0.25161652
Ni      11.39635174       6.54206743       0.03139184        0       1.00000000      -0.06346792      -0.03723742       0.09641008
Ni       1.31280017       0.76194230       2.15149306        4       1.00000000       0.02120160       0.19757625       0.08503078
Ni       3.76051863       0.72592836       2.19343464        4       1.00000000      -0.07541483      -0.00233708       0.11265058
Ni       6.31560179       0.77078520       2.13356314        3       1.00000000      -0.03790516       0.04402419      -0.02770188
Pt       8.89783044       0.79258927       2.19740049        4       0.00000000       0.01608085       0.09954584       0.01095204
Ni       2.51417198       2.92980802       2.19921275        4       1.00000000       0.03816770      -0.03654564       0.04253318
Ni       5.07158821       2.92498819       2.18552862        4       1.00000000      -0.01220445       0.01749079       0.00972672
Ni       7.59894887       2.93728746       2.17745009        4       1.00000000       0.06320480       0.01168840       0.05680753
Ni      10.16392727       2.96541271       2.16860001        4       1.00000000      -0.02606724      -0.00827597       0.01422557
Ni       3.79263897       5.04346729       2.16103539        4       1.00000000      -0.01437190      -0.14801194       0.03186994
Pt       6.34083872       5.12613790       2.12849853        3       0.00000000       0.01749622       0.02520288      -0.03073122
Ni       8.88791347       5.06385644       2.16782112        4       1.00000000       0.02334788      -0.11362608       0.06708417
Ni      11.39343501       5.05744264       2.13776390        3       1.00000000      -0.04998952      -0.06957595       0.02769682
Ni       5.09768561       7.27948958       2.12110685        3       1.00000000      -0.05141623       0.01968480       0.01969364
Ni       7.59331613       7.30610648       2.12970845        3       1.00000000      -0.02981233      -0.02336036       0.05307890
Pt      10.08202282       7.28431147       2.17218895        4       0.00000000      -0.00888929      -0.01498430      -0.00372203
Pt      12.67343418       7.20817891       2.11717964        3       0.00000000       0.05511552      -0.07620638      -0.01568906
Ni       0.00129839       1.49344272       4.30983064        6       1.00000000       0.06517248      -0.04620432      -0.06932218
Ni       2.51861881       1.47098380       4.24786538        5       1.00000000       0.00901251      -0.05265478      -0.17433959
Pt       5.07370946       1.40046288       4.22852976        5       0.00000000       0.00623363      -0.14798854       0.07884447
Ni       7.62217603       1.48725441       4.30292721        6       1.00000000       0.06253193      -0.04564733      -0.10625880
Pt       1.26438332       3.65535988       4.29152114        6       0.00000000       0.01796623      -0.04068932       0.05512614
Ni       3.79307135       3.70304250       4.25491648        6       1.00000000       0.01277805      -0.01040566      -0.17432621
Pt       6.36420568       3.67113642       4.33831216        6       0.00000000      -0.00350603       0.00367094       0.08316801
Ni       8.88260533       3.66600429       4.29379510        6       1.00000000       0.02827558       0.06695472      -0.17959834
Ni       2.52897961       5.79798387       4.32957710        6       1.00000000      -0.03577468      -0.02787876      -0.07187801
Ni       5.04188413       5.80026836       4.32298995        6       1.00000000       0.01925729      -0.01453148      -0.07933488
Ni       7.65128779       5.81747827       4.28713699        6       1.00000000       0.13184601      -0.00576691      -0.14485745
Ni      10.13986348       5.82759327       4.28554414        6       1.00000000      -0.04045855      -0.05973440      -0.10170394
Pt       3.77325499       7.96547509       4.30007176        6       0.00000000      -0.05191593       0.00376587       0.08588592
Pt       6.39207707       7.99056987       4.20629994        5       0.00000000       0.07480966      -0.00185133       0.04797487
Ni       8.89718756       7.98715223       4.28323369        6       1.00000000      -0.04923991      -0.03168523      -0.06357520
Ni      11.37193953       7.96486447       4.30643878        6       1.00000000      -0.01147339      -0.13503235      -0.03089967
Pt      -0.01798036       0.01147483       6.49413059        9       0.00000000      -0.12176940       0.12934418       0.43729423
Pt       2.56843559       0.00345574       6.47041770        9       0.00000000       0.04133058       0.08891127       0.30426163
Ni       5.06911810      -0.01880771       6.41157195        8       1.00000000      -0.10025564       0.01263089      -0.00722847
Pt       7.50388147       0.00905254       6.46923571        9       0.00000000       0.08253011       0.09205906       0.35630835
Ni       1.23744340       2.23309813       6.41577173        8       1.00000000       0.05717572      -0.06682277      -0.03803816
Pt       3.81313568       2.29162488       6.36274441        8       0.00000000      -0.11631754       0.14885595       0.69600462
Ni       6.35792180       2.22530931       6.43298249        8       1.00000000      -0.01143251       0.07578020       0.00355899
Ni       8.85980365       2.25532951       6.28515217        7       1.00000000      -0.04056597      -0.02208830       0.32060774
Ni       2.52203845       4.42914905       6.41639641        8       1.00000000       0.04318162      -0.01717250      -0.18648290
Ni       5.07869950       4.43085403       6.41928600        8       1.00000000      -0.06095147       0.00190343      -0.04776292
Ni       7.60353085       4.35014471       6.42321804        8       1.00000000       0.10793316      -0.00916814      -0.04331031
Ni      10.15185436       4.34260857       6.41540547        8       1.00000000      -0.04857517      -0.01980696      -0.20314515
Ni       3.79878428       6.48321260       6.41414347        8       1.00000000      -0.02252274       0.05497700      -0.07327663
Ni       6.31554306       6.48829992       6.40857355        8       1.00000000       0.05437900       0.05890681      -0.16476815
Pt       8.91265678       6.47520158       6.41773845        8       0.00000000      -0.04349156      -0.06924410       0.05995928
Ni      11.42579039       6.51466256       6.38626831        8       1.00000000       0.01790742      -0.05035560      -0.14472345
