64
Lattice="10.164957675179998 0.001344544258780595 0.011606178401233902 5.083643247074618 8.805155900820754 -0.03592423818747201 0.009476404982244566 -0.03934090154254527 8.709215069863918" Properties=species:S:1:pos:R:3:tags:I:1:initial_magmoms:R:1:forces:R:3 unique_id=03a3a778f045469394995106d45ce7d1 stress="-0.001114105051401977 4.323566229980613e-07 -9.317860542975497e-07 4.323566229980613e-07 -0.0011100877810697948 1.1223885356370347e-05 -9.317860542975497e-07 1.1223885356370347e-05 -0.0009629184009277286" energy=-392.0614257183099 pbc="T T T"
Ni       0.01241854       0.01743497       0.18313286        4       1.00000000       0.10933996       0.07731974       0.31613997
Ni       2.56496007       0.02926849       0.21044263        4       1.00000000       0.10235722       0.08771951       0.28934961
Ni       5.06902733      -0.01403663       0.09005602        4       1.00000000      -0.03982627      -0.02347825       0.08110070
Ni       7.62725518      -0.02227727       0.06417386        4       1.00000000       0.00642676      -0.01764132       0.01742372
Ni       1.27592039       2.20275836       0.18706357        4       1.00000000       0.00923539       0.02904667       0.24934792
Ni       3.78435572       2.19830091       0.18895148        4       1.00000000      -0.05110452      -0.02834273       0.22548312
Pt       6.35251601       2.19589806       0.18623118        4       0.00000000      -0.03313144       0.00913491       0.42757283
Ni       8.93178754       2.22701421       0.07448232        4       1.00000000       0.12293026       0.08304436      -0.00012623
Ni       2.55738067       4.38397968       0.05651149        4       1.00000000       0.01059805      -0.12927548       0.00618769
Ni       5.03595848       4.39060767       0.06477923        4       1.00000000      -0.14233185      -0.08672512       0.11108570
Ni       7.68032361       4.38757102       0.06049004        4       1.00000000       0.17573505      -0.04220071       0.04001769
Ni      10.15735454       4.38115334       0.06401925        4       1.00000000       0.00689276      -0.10333514       0.00558473
Ni       3.80046632       6.57827024       0.03533496        4       1.00000000       0.01567295      -0.13960697       0.04135119
Pt       6.35598441       6.63041698       0.01664742        4       0.00000000       0.02179521       0.00771295      -0.23489413
Ni       8.91079522       6.58593899       0.12603340        4       1.00000000      -0.00540177      -0.10338605       0.19674595
Ni      11.43518199       6.59043804       0.01907634        4       1.00000000      -0.08019760      -0.12157590      -0.11252076
Ni       1.30044477       0.74829361       2.14251816        3       1.00000000       0.01872647       0.09404697       0.05551665
Ni       3.81474124       0.75650271       2.16327814        3       1.00000000       0.09671818       0.02357646       0.06110180
Ni       6.32312611       0.74926733       2.23961586        3       1.00000000      -0.02695617       0.06246144       0.17914182
Pt       8.91871403       0.80942423       2.17236462        3       0.00000000      -0.06325444      -0.00742136       0.02243949
Ni       2.56277441       2.91164155       2.14505423        3       1.00000000      -0.00614504       0.06423673      -0.01400722
Ni       5.02716548       2.90318537       2.20665326        3       1.00000000      -0.10533369      -0.04884360       0.14537286
Ni       7.67342957       2.94189349       2.19414346        3       1.00000000       0.15649636       0.07485987       0.00282936
Ni      10.16555531       2.92965998       2.19084182        3       1.00000000       0.03418692       0.01748008       0.11745473
Ni       3.81621771       5.07308537       2.14124430        3       1.00000000      -0.03959711      -0.13389427      -0.05546308
Pt       6.37851282       5.10267327       2.14391243        3       0.00000000       0.00595479       0.07776696      -0.21179159
Ni       8.89665256       5.08963331       2.17534403        3       1.00000000       0.03966037      -0.08174592       0.06003421
Pt      11.42693018       5.03818135       2.18173920        3       0.00000000       0.00850057      -0.03058534      -0.06438712
Ni       5.09663327       7.33682067       2.13594161        3       1.00000000      -0.02748488      -0.03781782      -0.06325123
Ni       7.62675615       7.35352540       2.15082401        3       1.00000000      -0.00589520      -0.00669476      -0.02138397
Pt      10.10258263       7.36478170       2.18152048        3       0.00000000      -0.05523675      -0.02754396       0.05738019
Pt      12.72202086       7.30964642       2.11272211        3       0.00000000       0.01352694      -0.03305198      -0.08645656
Ni      -0.02408131       1.51754752       4.31158676        2       1.00000000       0.03034509       0.12075177      -0.01028056
Pt       2.57363753       1.51035631       4.21155214        2       0.00000000      -0.00750687       0.05471879       0.12813242
Ni       5.10925609       1.40020943       4.28574925        2       1.00000000       0.03499275      -0.05709165      -0.04663947
Ni       7.64124687       1.44985744       4.30859236        2       1.00000000      -0.01908193       0.05453567      -0.07365949
Ni       1.25010120       3.69426514       4.31880311        2       1.00000000      -0.04869798       0.00704196      -0.01063155
Ni       3.78397986       3.66969958       4.29476465        2       1.00000000      -0.09951103       0.02308432      -0.14045499
Pt       6.40048013       3.60670430       4.28676488        2       0.00000000      -0.00998672      -0.15920632       0.12837416
Ni       8.94456797       3.65675201       4.32986714        2       1.00000000       0.11868356       0.05138551      -0.10464708
Ni       2.48306542       5.81408773       4.35178852        2       1.00000000      -0.18354816      -0.01381373      -0.09161884
Pt       5.01651647       5.80891120       4.33981053        2       0.00000000      -0.11668273      -0.02641887      -0.16920486
Ni       7.69630549       5.82744290       4.30162768        2       1.00000000       0.17541641      -0.04440212      -0.17884472
Ni      10.18656331       5.82834941       4.32007296        2       1.00000000      -0.00097779      -0.03644514      -0.09343569
Pt       3.71924562       8.07208421       4.31986042        2       0.00000000      -0.03285788       0.01451911       0.09583515
Pt       6.39939556       8.03519317       4.21635372        2       0.00000000      -0.00693708       0.06971427       0.05758723
Ni       8.95407276       8.04078253       4.29959663        2       1.00000000      -0.04436824       0.01605474       0.05584153
Ni      11.39000219       8.05373761       4.34646561        2       1.00000000      -0.09734438      -0.04856841      -0.04325070
Pt      -0.07470078      -0.04305441       6.53421441        1       0.00000000      -0.13930975      -0.02555495       0.17138946
Pt       2.58541336      -0.05068175       6.52257558        1       0.00000000       0.02968782       0.04978391       0.18561358
Ni       5.13912264      -0.06152827       6.43809221        1       1.00000000       0.01436381      -0.06330177      -0.17163471
Ni       7.57560153      -0.06940279       6.47407025        1       1.00000000      -0.13165049      -0.21755103      -0.11237963
Pt       1.21114716       2.28148918       6.47742681        1       0.00000000       0.02036351       0.10707590       0.20792687
Pt       3.85199951       2.25975871       6.48165780        1       0.00000000       0.02806628       0.20650617       0.13692397
Pt       6.43410634       2.13134895       6.41737145        1       0.00000000       0.05163925      -0.01998881      -0.22607295
Ni       8.88631444       2.21920944       6.43352250        1       1.00000000       0.04650325       0.15246783      -0.26062250
Ni       2.53801467       4.45675405       6.41547176        1       1.00000000      -0.06214337       0.16589914      -0.17441704
Ni       5.08578913       4.42574341       6.46258456        1       1.00000000       0.07871490       0.10945867      -0.04635822
Ni       7.64754805       4.37680182       6.43626751        1       1.00000000       0.03094885      -0.02415339      -0.17958434
Ni      10.16905700       4.39735538       6.42028742        1       1.00000000       0.05587138       0.05703649      -0.22139185
Ni       3.76396630       6.53798861       6.44714314        1       1.00000000      -0.14332859      -0.02562983      -0.07075539
Ni       6.34958926       6.52356214       6.35193186        1       1.00000000       0.07721626      -0.06231981      -0.43004604
Pt       8.95912227       6.50478100       6.42310757        1       0.00000000       0.03929289       0.05455476       0.08276371
Ni      11.47803965       6.57539384       6.40970631        1       1.00000000       0.03896947       0.00461684      -0.23883751
