64
Lattice="10.289144955740237 0.010834600685577404 -0.04355229007183389 5.153955517303688 8.85650878931235 -0.07483610413898209 0.0 0.0 21.54493785182769" Properties=species:S:1:pos:R:3:tags:I:1:initial_magmoms:R:1:forces:R:3 unique_id=b00ada5e4f3241bdb9b8a08f86b8f672 stress="0.005810148071968671 4.7302858094580033e-05 -0.0003127805344391189 4.7302858094580033e-05 0.0049594585763482885 -9.108051658659359e-05 -0.0003127805344391189 -9.108051658659359e-05 -0.0021058336278104665" energy=-374.6216032072356 pbc="T T T"
Ni       0.00736818      -0.00869680       0.20372859        2       1.00000000       0.10451411       0.04854225      -0.17655132
Ni       2.56320814      -0.00184833       0.21088041        2       1.00000000      -0.03837938       0.01815229      -0.03700930
Ni       5.13945328      -0.02592982       0.16562724        2       1.00000000      -0.04368620       0.06784387      -0.38072814
Ni       7.70409131      -0.05379927       0.16264477        2       1.00000000      -0.08703896      -0.05709465      -0.18263610
Ni       1.28258550       2.21807915       0.18835244        2       1.00000000      -0.01592561       0.01800545       0.10874135
Pt       3.77409671       2.17834042       0.18293608        2       0.00000000       0.00624155       0.00921991      -0.48980608
Pt       6.44157784       2.17363665       0.08718531        1       0.00000000      -0.02374825      -0.08763574      -0.16935229
Pt       9.07031214       2.26589104       0.09539332        1       0.00000000       0.05088297       0.08023864      -0.61585872
Ni       2.53889300       4.45340029       0.05627993        1       1.00000000      -0.04231053      -0.01770404       0.19270129
Pt       5.09963153       4.47044652       0.06943442        1       0.00000000      -0.09461322      -0.03905558      -0.05639775
Ni       7.73323498       4.45031158       0.03567905        0       1.00000000      -0.02723276       0.03254044       0.07562710
Ni      10.31673786       4.46192098       0.01730073        0       1.00000000       0.08342229       0.05459297       0.21604261
Ni       3.81355138       6.66457367       0.06853843        1       1.00000000      -0.04477634       0.04482720       0.32522758
Pt       6.45914393       6.69912007       0.05812906        1       0.00000000       0.00153298       0.07115290      -0.02925710
Ni       9.02137854       6.64441653       0.08948991        1       1.00000000      -0.03529121       0.03876766      -0.28090369
Ni      11.60028282       6.64433816       0.00000000        0       1.00000000       0.05385866       0.01427182       0.24513664
Ni       1.30682569       0.73496866       2.22783872        4       1.00000000       0.03432768       0.03271972       0.22525424
Ni       3.80258741       0.73319391       2.21297588        4       1.00000000      -0.18530750      -0.02517470       0.15305771
Ni       6.43503647       0.73908087       2.19791306        4       1.00000000       0.08062291       0.03923628       0.14187010
Pt       9.00908286       0.73485273       2.20229656        4       0.00000000       0.07455972       0.12509482      -0.02511597
Ni       2.55460100       2.91451732       2.25786130        5       1.00000000       0.03666462      -0.10202211       0.28739258
Ni       5.12562291       2.96415876       2.21299480        4       1.00000000      -0.08132436       0.12961250       0.13314670
Ni       7.69265234       2.94496967       2.20686603        4       1.00000000      -0.03481670      -0.03406774       0.12097434
Ni      10.33298611       2.93002324       2.21644809        4       1.00000000       0.12115458      -0.09701625       0.31008773
Ni       3.85953509       5.15551170       2.18740329        4       1.00000000       0.01138623      -0.06800915       0.07339902
Ni       6.41510428       5.16319117       2.17667164        4       1.00000000      -0.01192281      -0.00270693       0.06923299
Pt       8.95083442       5.12192348       2.17160822        4       0.00000000      -0.00333510      -0.08079447       0.01844326
Pt      11.63897035       5.11861407       2.15840735        4       0.00000000       0.04223868      -0.10550674       0.09174500
Ni       5.15417573       7.35291694       2.15284792        4       1.00000000       0.00586891      -0.05479949       0.08827253
Ni       7.67151709       7.40227473       2.15484477        4       1.00000000      -0.17536591       0.02773379       0.19928612
Pt      10.32886989       7.41272966       2.10081119        3       0.00000000       0.07949601      -0.05208731       0.10512287
Ni      12.87947529       7.35806032       2.09492495        3       1.00000000       0.11940913      -0.08938411       0.02363468
Ni       0.02164260       1.48177951       4.32475221        7       1.00000000       0.14960591       0.04602326      -0.20517862
Ni       2.50798105       1.48367716       4.29065054        7       1.00000000      -0.09058141       0.04079683      -0.25192602
Pt       5.14470497       1.45551380       4.23420559        6       0.00000000      -0.06641870      -0.05420078      -0.05463150
Ni       7.70418383       1.46162586       4.29807733        7       1.00000000       0.04894876      -0.07136370      -0.27195736
Ni       1.27657431       3.68019754       4.33414799        7       1.00000000       0.03808343      -0.04945581      -0.11736292
Ni       3.78331841       3.70012151       4.29154460        7       1.00000000      -0.16903222      -0.01163253      -0.28649114
Pt       6.49102834       3.67978641       4.30752091        7       0.00000000       0.08233131      -0.05581965      -0.13295301
Ni       9.03696853       3.69926439       4.28577888        7       1.00000000       0.21955038       0.01455049      -0.15201236
Ni       2.52929759       5.84629031       4.36396128        8       1.00000000      -0.05599735      -0.07395107      -0.05036874
Pt       5.12248705       5.87390436       4.29751733        7       0.00000000      -0.00128264      -0.02164381      -0.15994229
Ni       7.70745166       5.87135991       4.30043788        7       1.00000000      -0.00934144       0.01319832      -0.20407328
Ni      10.31873382       5.84092078       4.32169067        7       1.00000000       0.11192410      -0.03275676      -0.06590802
Pt       3.81292227       8.07593998       4.25401702        7       0.00000000      -0.07346188       0.03880365       0.03719682
Ni       6.41627748       8.10811541       4.24467681        6       1.00000000      -0.08933922       0.12287665      -0.30353848
Pt       8.94298500       8.05753569       4.21431878        6       0.00000000      -0.06538306       0.00621339       0.02255203
Ni      11.57238528       8.05433640       4.25458279        7       1.00000000      -0.06356260      -0.13479283      -0.12164719
Pt      -0.02546684      -0.10189590       6.54493785       11       0.00000000       0.05427592       0.10605626       0.24158640
Pt       2.53800962      -0.05785801       6.52950738       11       0.00000000      -0.00509618       0.12062024       0.26376854
Pt       5.14595448      -0.05668053       6.53883811       11       0.00000000       0.05042700      -0.01119060       0.33068643
Pt       7.68004134      -0.07990502       6.51451477       11       0.00000000      -0.09546539       0.08086269       0.29362793
Pt       1.25852500       2.28501116       6.47090215       11       0.00000000       0.03953129      -0.02276800       0.05029791
Pt       3.87139617       2.29707989       6.41739362       10       0.00000000      -0.07606731       0.14088545       0.46768677
Ni       6.41504823       2.22369608       6.40832372       10       1.00000000      -0.01999244      -0.01775393       0.22358475
Pt       8.93292200       2.27792249       6.34285941        9       0.00000000       0.02955730      -0.06556183       0.54007854
Ni       2.54767119       4.47107876       6.44489752       10       1.00000000       0.10077523       0.01080816      -0.33535338
Ni       5.13626019       4.43768172       6.39572131       10       1.00000000      -0.01859828       0.04142856       0.11978614
Ni       7.66363627       4.40958006       6.44812836       10       1.00000000      -0.10808667       0.01977829      -0.07459290
Ni      10.30416888       4.43250810       6.41340857       10       1.00000000       0.07153371      -0.01949494      -0.26484894
Ni       3.82235757       6.53898683       6.46153590       11       1.00000000       0.00229755      -0.09658652      -0.23389403
Ni       6.40815083       6.55261679       6.37263608       10       1.00000000       0.07047544      -0.01883417       0.12296416
Pt       8.99725903       6.48049293       6.45200792       11       0.00000000      -0.02122892      -0.02011803       0.10198818
Ni      11.58848606       6.54579425       6.40445476       10       1.00000000      -0.00148781       0.03552920      -0.28990438
