64
Lattice="10.308958446884194 -0.012646081935606767 0.023784316115968915 5.143527395227518 8.826063043039484 0.018062153006425854 0.0 0.0 21.551686702613996" Properties=species:S:1:pos:R:3:tags:I:1:initial_magmoms:R:1:forces:R:3 unique_id=f064bbfef383431c83fc8194f862b7e6 energy=-373.7263457704523 stress="0.005197068908115526 -1.3432805316341027e-05 0.000279259097861397 -1.3432805316341027e-05 0.004990079497048753 0.00017478390579335717 0.000279259097861397 0.00017478390579335717 -0.0021442060998310176" pbc="T T T"
Ni       0.00181907       0.02759420       0.12377025        1       1.00000000       0.10871812      -0.00249104      -0.26572218
Ni       2.57570521       0.00852331       0.15403989        2       1.00000000      -0.03795936       0.05193322      -0.09391471
Ni       5.15346858      -0.01548429       0.11193119        1       1.00000000      -0.01223281       0.20301041      -0.43005923
Ni       7.73868542      -0.04832587       0.14593628        1       1.00000000      -0.08700937      -0.08690099      -0.31603202
Ni       1.25552761       2.21495580       0.05129405        1       1.00000000      -0.06542691       0.02278045       0.44890937
Pt       3.79670714       2.21325468       0.05485867        1       0.00000000      -0.02131039      -0.00782337       0.07940517
Pt       6.46445207       2.15361258       0.06583467        1       0.00000000       0.04488451      -0.06175304      -0.05901347
Ni       9.06349627       2.20157513       0.10792861        1       1.00000000       0.06496080       0.12843838      -0.14192956
Ni       2.54968747       4.43394974       0.00000000        0       1.00000000      -0.05076815      -0.03412202       0.11691225
Ni       5.14399478       4.42011158       0.11733641        1       1.00000000       0.17788146      -0.08446978      -0.40310345
Pt       7.80692463       4.42106359       0.06520760        1       0.00000000       0.04128638       0.00299752      -0.05839509
Ni      10.33519752       4.39844545       0.04089660        0       1.00000000       0.02957146      -0.09721150       0.15964440
Ni       3.82250766       6.64136831       0.04299042        0       1.00000000      -0.01370212       0.12684181       0.23702846
Pt       6.41275783       6.66970353       0.15781372        2       0.00000000      -0.00466475       0.03933403      -0.69063364
Ni       9.03767149       6.63190734       0.04575720        0       1.00000000      -0.09410122       0.00741691       0.06044512
Ni      11.60749131       6.61389467       0.03352822        0       1.00000000       0.08969491       0.02497272       0.16765111
Ni       1.31781918       0.77834326       2.12116200        3       1.00000000       0.04970902       0.19871866       0.03124406
Ni       3.84352151       0.77246849       2.16601270        4       1.00000000      -0.04624607       0.15035938       0.22749704
Ni       6.43959626       0.76016801       2.18151159        4       1.00000000      -0.05027533       0.17959866       0.22471578
Pt       9.03217781       0.77441268       2.14265257        3       0.00000000      -0.00853760       0.14823002       0.15231986
Ni       2.55922990       2.89151791       2.19694226        4       1.00000000      -0.03271084      -0.14284269       0.27033414
Ni       5.15467813       2.90563051       2.19105661        4       1.00000000      -0.05416391      -0.14188808       0.20628976
Ni       7.74825985       2.94890358       2.19672496        4       1.00000000       0.06065553       0.06617900       0.16222779
Ni      10.31462122       2.92147233       2.17745796        4       1.00000000       0.04568226      -0.02798457       0.09508530
Pt       3.87517385       5.12212281       2.11380067        3       0.00000000       0.00244594      -0.12516733      -0.00390628
Ni       6.48028370       5.12870084       2.18252334        4       1.00000000       0.10543060      -0.07430691       0.15296730
Ni       8.99228948       5.11944370       2.19980721        4       1.00000000      -0.06450117      -0.12628046       0.22152685
Pt      11.57720061       5.06934607       2.14200687        3       0.00000000      -0.02657749      -0.14924272       0.05292815
Ni       5.14263261       7.37552022       2.15582496        4       1.00000000      -0.09068367       0.02138575       0.07164862
Ni       7.72842982       7.35647806       2.16628197        4       1.00000000       0.02732781      -0.01955699       0.09763194
Pt      10.27739600       7.36470877       2.08546326        3       0.00000000      -0.01146812      -0.07235166      -0.08409500
Ni      12.88875839       7.34532739       2.14052384        3       1.00000000       0.01315553      -0.03968686       0.01562302
Ni       0.03433322       1.55891795       4.28550303        6       1.00000000       0.08525611       0.14294916      -0.16987183
Ni       2.58242500       1.55749458       4.28802009        6       1.00000000      -0.03597183       0.04994583      -0.20053478
Ni       5.13216916       1.51185501       4.29761417        6       1.00000000      -0.11912139       0.04356779      -0.23396300
Ni       7.75491231       1.49246172       4.30543158        6       1.00000000       0.09796032      -0.09018764      -0.21841860
Ni       1.31948234       3.63139203       4.33498891        6       1.00000000       0.03501944      -0.07553902      -0.12287896
Ni       3.81357247       3.62780047       4.31119161        6       1.00000000      -0.06298530      -0.05665439      -0.23535344
Pt       6.49400321       3.61316342       4.26601485        6       0.00000000      -0.02175670      -0.01721048      -0.11499144
Ni       9.03961011       3.64712132       4.28839981        6       1.00000000       0.06426634      -0.16560823      -0.34681306
Ni       2.56277390       5.82810729       4.35925038        7       1.00000000      -0.00798735      -0.19248378      -0.01922074
Pt       5.13332384       5.83292138       4.27560734        6       0.00000000      -0.01885778      -0.09711521      -0.06623446
Ni       7.76091484       5.84065816       4.29529594        6       1.00000000       0.00041808      -0.04828412      -0.31418428
Pt      10.30299853       5.77328863       4.39903934        7       0.00000000       0.03764576      -0.07303019       0.00995444
Pt       3.85506174       8.10649731       4.28060637        6       0.00000000      -0.02093600       0.01477581       0.04674812
Pt       6.45110086       8.16566751       4.19942280        5       0.00000000      -0.04612243       0.23565473      -0.15260773
Pt       9.00233416       8.12496142       4.27936191        6       0.00000000      -0.12203008       0.08497205      -0.04856830
Pt      11.60307796       8.10662492       4.27520886        6       0.00000000       0.04648108       0.02426326      -0.07752196
Pt       0.01937337       0.02652227       6.51306182        9       0.00000000       0.01527710       0.13826856       0.40601597
Pt       2.59952709       0.07883676       6.52092446        9       0.00000000       0.03151307       0.10939887       0.30578649
Pt       5.16454093       0.00671893       6.51696020        9       0.00000000      -0.02986771       0.17022928       0.46969793
Pt       7.72863455      -0.03606951       6.55168670       10       0.00000000      -0.01206900       0.17013994       0.45638001
Ni       1.32200192       2.28712654       6.42770562        8       1.00000000       0.02579518       0.11963107      -0.33684028
Ni       3.84125027       2.23459142       6.36055257        8       1.00000000      -0.10970178      -0.05291740      -0.00132763
Ni       6.45330449       2.20814483       6.38931275        8       1.00000000       0.00757717      -0.12664907       0.18675939
Pt       9.04524295       2.30325070       6.45155255        9       0.00000000       0.00821203      -0.05024662       0.02404900
Ni       2.54106664       4.40795923       6.43323595        8       1.00000000      -0.06286762      -0.05129519      -0.36059327
Pt       5.08938273       4.33403963       6.50916172        9       0.00000000      -0.07157375      -0.05409022       0.21350955
Ni       7.77133982       4.41539936       6.38843080        8       1.00000000       0.03278940       0.09780954       0.03017962
Ni      10.35121617       4.41393266       6.49192829        9       1.00000000       0.09103369      -0.06075557      -0.16784837
Ni       3.82064315       6.57461922       6.47442370        9       1.00000000      -0.06053929      -0.11442402      -0.13996536
Pt       6.50142900       6.56428486       6.43398298        8       0.00000000       0.07439230      -0.08796985       0.67311442
Ni       9.05755235       6.56244103       6.48851502        9       1.00000000      -0.00503514      -0.04779168      -0.05974592
Ni      11.61308385       6.54442486       6.49635139        9       1.00000000       0.06472097      -0.01747011      -0.13994242
