64
Lattice="10.263000208833647 -0.012911808904243021 0.02464137400546555 5.12031814989694 8.826698307049503 -0.01870655408164019 0.020119597624824015 -0.02925276342969339 8.76310529805926" Properties=species:S:1:pos:R:3:tags:I:1:initial_magmoms:R:1:forces:R:3 unique_id=8937172e4309446da2123e48b2c865c9 stress="0.00022662616122257756 2.4086392046095457e-06 -1.5929875298565087e-05 2.4086392046095457e-06 0.0002353234480512792 1.477685817035714e-05 -1.5929875298565087e-05 1.477685817035714e-05 0.00022922369145610133" energy=-395.1845398704093 pbc="T T T"
Ni       0.01367051      -0.01030046       0.18068515        4       1.00000000       0.02460999       0.02465291       0.37693026
Ni       2.53265194       0.00703339       0.20926138        4       1.00000000      -0.06531001       0.06714517       0.42122144
Pt       5.12398219      -0.04999050       0.15819790        4       0.00000000      -0.03222134      -0.09727870       0.35389536
Ni       7.72268260      -0.07116401       0.20673055        4       1.00000000       0.03429305      -0.07535398       0.37811555
Ni       1.28705580       2.21260883       0.10746922        4       1.00000000       0.03131611       0.03904606       0.27025600
Pt       3.76217568       2.25839500       0.18308052        4       0.00000000      -0.05253815       0.10735431       0.16369406
Pt       6.41157469       2.21057981       0.11919280        4       0.00000000       0.04917391       0.07725459       0.01606829
Pt       9.07037127       2.19319983       0.13638724        4       0.00000000       0.11685386      -0.04184874       0.12805610
Ni       2.55409495       4.44899686       0.05847614        4       1.00000000       0.05528120       0.08594819       0.01660246
Ni       5.08271524       4.44513955       0.10574092        4       1.00000000      -0.07190002       0.09349299       0.23797609
Pt       7.73094056       4.45960061       0.10945485        4       0.00000000       0.05517140       0.06557368      -0.03069411
Ni      10.31367179       4.42551739       0.08839091        4       1.00000000       0.15538464       0.06248954       0.09993029
Ni       3.80224787       6.60538740       0.09453973        4       1.00000000      -0.07151373      -0.05178740       0.19536647
Pt       6.35578053       6.66363868       0.17319137        4       0.00000000      -0.08460959       0.00938597       0.05669938
Ni       8.98490033       6.59877614       0.15640440        4       1.00000000      -0.04284517       0.00009042       0.19593460
Ni      11.57690181       6.57174246       0.08080140        4       1.00000000       0.09478715      -0.05073093       0.06058710
Ni       1.31763373       0.73828110       2.22463720        3       1.00000000       0.02814608       0.04703987       0.16567616
Ni       3.81177075       0.76282287       2.25118031        3       1.00000000      -0.01762807       0.10062284       0.05791389
Ni       6.41820994       0.76139469       2.25996114        3       1.00000000      -0.07288561       0.09040585       0.09133927
Pt       9.00489410       0.71173300       2.26955542        3       0.00000000       0.03731374       0.16926641      -0.00023049
Ni       2.55561428       2.91323745       2.27430757        3       1.00000000       0.02806506      -0.10144936       0.20282188
Ni       5.11268105       2.95471149       2.25239457        3       1.00000000      -0.13873354       0.04026145       0.00328079
Ni       7.70189430       2.95175448       2.26633835        3       1.00000000       0.10585115       0.01194877      -0.00019032
Ni      10.29192612       2.92374168       2.27283012        3       1.00000000       0.04874947      -0.07497319       0.14122258
Ni       3.88068550       5.13215143       2.20039187        3       1.00000000       0.07820747      -0.06016852       0.03995680
Ni       6.39252400       5.13911048       2.24399860        3       1.00000000      -0.04060322       0.06479636      -0.03390487
Ni       8.95485911       5.10098997       2.25597216        3       1.00000000      -0.04711769      -0.17891636       0.15655376
Pt      11.59323362       5.06023490       2.22818700        3       0.00000000       0.15413522      -0.15370727       0.08156993
Ni       5.13171557       7.31721948       2.22153668        3       1.00000000       0.04294739      -0.13408212       0.04956161
Ni       7.64862832       7.34556511       2.21502151        3       1.00000000      -0.17663257      -0.07390947       0.01717602
Pt      10.23431219       7.27316714       2.20795202        3       0.00000000      -0.04006221      -0.07027367      -0.16984818
Ni      12.85881022       7.29870927       2.16423201        3       1.00000000       0.09629547      -0.19986409      -0.00186312
Ni       0.06603142       1.50501375       4.31627454        2       1.00000000       0.13722704       0.07465664      -0.07239250
Ni       2.53145832       1.50938976       4.29537146        2       1.00000000      -0.05272938       0.12110644      -0.10249350
Ni       5.12782623       1.49012759       4.30274780        2       1.00000000      -0.12623398       0.05569197      -0.20978403
Ni       7.70077132       1.47906439       4.34163489        2       1.00000000       0.00650822       0.01929587      -0.06803725
Ni       1.29240875       3.65285014       4.36799323        2       1.00000000       0.03918724      -0.04988199      -0.01832574
Ni       3.82105633       3.70007303       4.29830389        2       1.00000000      -0.09859343       0.05025413      -0.25340470
Pt       6.40905919       3.67190158       4.32433365        2       0.00000000      -0.03790352      -0.01169534      -0.04763669
Ni       9.01866777       3.69061486       4.30833428        2       1.00000000       0.07352832       0.02892002      -0.25021970
Ni       2.58141714       5.79929308       4.37009591        2       1.00000000       0.01170038      -0.15229814      -0.07458189
Ni       5.10816406       5.82480367       4.29529053        2       1.00000000      -0.02088246      -0.16681628      -0.21680995
Ni       7.70313644       5.83442892       4.29336666        2       1.00000000       0.00299442      -0.00736459      -0.21881040
Ni      10.27865019       5.78062463       4.36571843        2       1.00000000       0.06720047      -0.14006930      -0.04016280
Pt       3.91381364       8.00398924       4.30078939        2       0.00000000       0.02333603      -0.14109058       0.27163206
Ni       6.40868301       8.07727480       4.27262285        2       1.00000000      -0.05989561       0.00510677      -0.15076546
Pt       8.88584293       8.08607448       4.27305175        2       0.00000000      -0.04295292       0.06007334       0.13569495
Pt      11.57558741       8.03525577       4.28657350        2       0.00000000       0.02126632      -0.03722945       0.10238989
Pt       0.01635463       0.00364784       6.52662085        1       0.00000000       0.02627316       0.08375922       0.13543291
Pt       2.55659926       0.02029020       6.53046163        1       0.00000000      -0.06471014       0.05883135       0.19402394
Pt       5.15450342       0.00464409       6.45229755        1       0.00000000       0.05367409       0.09083552      -0.38839761
Pt       7.71271920      -0.06616452       6.57338253        1       0.00000000      -0.10351709      -0.03805923       0.17290916
Ni       1.29287721       2.26335656       6.45521975        1       1.00000000       0.02025458       0.17744419      -0.21443664
Pt       3.83983351       2.31277550       6.39018957        1       0.00000000      -0.09527814       0.17476243      -0.25553300
Ni       6.42747290       2.22781921       6.41613670        1       1.00000000      -0.02303331       0.06245726      -0.24276303
Pt       9.00365040       2.28332050       6.38286079        1       0.00000000      -0.00046086       0.13046441      -0.39618542
Ni       2.54511611       4.43937153       6.45423076        1       1.00000000      -0.07621952       0.08079453      -0.23914520
Ni       5.11381183       4.39747791       6.47740816        1       1.00000000      -0.11821426       0.07558515      -0.16427624
Ni       7.68841249       4.36513848       6.41206186        1       1.00000000      -0.07570072      -0.00982782      -0.28122107
Ni      10.34189223       4.37905585       6.47014434        1       1.00000000       0.24365204      -0.00708172      -0.25336951
Ni       3.81544671       6.51882759       6.47612787        1       1.00000000      -0.06251897      -0.19707265      -0.10988369
Pt       6.37020845       6.50524206       6.38508556        1       0.00000000      -0.05059926       0.00688736      -0.31811534
Pt       9.03931605       6.47050952       6.49548219        1       0.00000000       0.05514123      -0.11326638       0.01994128
Ni      11.58818440       6.51552533       6.49542274        1       1.00000000       0.04551857      -0.07760474      -0.18694788
