64
Lattice="10.481385436385457 0.030975858484858017 0.002939601890299218 5.267518598544646 9.093686655783046 -0.042772437898275166 0.002400174892718082 -0.041711982801414124 8.987858442552579" Properties=species:S:1:pos:R:3:tags:I:1:initial_magmoms:R:1:forces:R:3 unique_id=ebb8681183374a07a5c668dee59bd4c0 stress="-0.00010464943453215164 -7.882635794881915e-07 -6.1934491520423545e-06 -7.882635794881915e-07 -0.00010226229364256045 6.8202320779474145e-06 -6.1934491520423545e-06 6.8202320779474145e-06 -8.340415953414504e-05" energy=-407.5858258263646 pbc="T T T"
Ni      -0.06321247      -0.02336838       0.18135722        4       1.00000000      -0.18660581      -0.05272725       0.10541843
Ni       2.65131421      -0.03075190       0.17638148        4       1.00000000       0.12016710      -0.07874151       0.14927767
Ni       5.26942967      -0.02357490       0.16069398        4       1.00000000       0.08245915       0.00420374       0.11208370
Ni       7.88549933      -0.02993530       0.12627681        4       1.00000000       0.01231791      -0.11474177       0.09042557
Pt       1.28898692       2.28837392       0.12165060        4       0.00000000      -0.01144174       0.00521698      -0.11885073
Pt       3.94371809       2.31912660       0.15195613        4       0.00000000       0.02801629       0.06653489      -0.06439861
Pt       6.59162852       2.20548868       0.13845104        4       0.00000000       0.05006995      -0.11413753      -0.07930024
Ni       9.16930710       2.25532006       0.15957515        4       1.00000000      -0.06340230      -0.12140836       0.13166163
Ni       2.64049598       4.56970003       0.13456714        4       1.00000000       0.05684186      -0.00542797       0.06322608
Ni       5.27042517       4.55650862       0.13927386        4       1.00000000       0.19209744      -0.04081286       0.09657622
Pt       7.94206382       4.57762785       0.13757188        4       0.00000000       0.06706344      -0.02721483      -0.02384565
Ni      10.50514549       4.61235285       0.04251133        4       1.00000000       0.01189818       0.10316352      -0.04140253
Ni       3.92425639       6.85274129       0.15565869        4       1.00000000      -0.02591091       0.07923512       0.12239907
Pt       6.55323387       6.86934813       0.18263282        4       0.00000000      -0.00771392      -0.00081518       0.02070369
Ni       9.21694602       6.83809862       0.05272314        4       1.00000000       0.00095682      -0.01877690       0.01180603
Ni      11.82948268       6.85692644       0.03473991        4       1.00000000       0.08478134       0.03810222      -0.05502958
Pt       1.27556217       0.66807709       2.19276595        3       0.00000000      -0.02539412      -0.02725384       0.02378115
Pt       3.99852591       0.77097024       2.25303063        3       0.00000000       0.04081652       0.01500450       0.05201299
Ni       6.59647419       0.74416899       2.26927566        3       1.00000000       0.06470452      -0.04602211       0.00303202
Ni       9.11549194       0.73358388       2.20366963        3       1.00000000      -0.11619557      -0.01220228      -0.03735273
Ni       2.62994381       3.03807263       2.23931201        3       1.00000000      -0.06277828       0.00141895       0.00838057
Ni       5.27606611       3.03278294       2.26556405        3       1.00000000       0.04762523      -0.00735255      -0.00587936
Pt       7.80977487       3.02758131       2.35795496        3       0.00000000      -0.04344015       0.00485113      -0.00669700
Pt      10.41634715       3.08393361       2.22083474        3       0.00000000      -0.08068986       0.05109551      -0.02068041
Pt       3.99786405       5.31707690       2.13918001        3       0.00000000       0.04009720      -0.00685582       0.04495950
Ni       6.60579821       5.31235556       2.25131985        3       1.00000000       0.09724832       0.00171109       0.02036518
Ni       9.15757035       5.34708429       2.28434812        3       1.00000000      -0.03102802       0.03129645       0.07722873
Pt      11.79924791       5.33842585       2.14674356        3       0.00000000       0.00482747      -0.00893793      -0.01262251
Ni       5.22161576       7.57430297       2.19103744        3       1.00000000      -0.08590940       0.01832836       0.01072509
Ni       7.90140370       7.51679699       2.22487877        3       1.00000000       0.04948342      -0.09093951       0.05020233
Pt      10.50555466       7.56019731       2.13221954        3       0.00000000      -0.00312312      -0.02372795       0.01293433
Ni      13.13951826       7.64326551       2.16031754        3       1.00000000      -0.04929563       0.02648638      -0.05942180
Pt      -0.10201927       1.52650744       4.39863483        2       0.00000000      -0.11322566       0.03084854      -0.05473502
Pt       2.64323112       1.50068838       4.39704882        2       0.00000000      -0.06088152      -0.04041047      -0.05917764
Ni       5.29952404       1.51622557       4.40773356        2       1.00000000       0.04105080       0.02827877      -0.13878594
Ni       7.82919335       1.54076568       4.42245545        2       1.00000000      -0.03366584       0.00050958      -0.07567864
Pt       1.23818597       3.83333937       4.43282427        2       0.00000000      -0.01756742       0.02823772      -0.05820308
Pt       4.01109029       3.73991754       4.34776845        2       0.00000000      -0.01296980       0.01215878      -0.03814595
Ni       6.60440331       3.76449315       4.43113655        2       1.00000000       0.00741455       0.01402415       0.01424826
Ni       9.14581469       3.84112545       4.42498602        2       1.00000000      -0.03681211       0.05291846      -0.09033295
Pt       2.59221932       6.06861135       4.41672082        2       0.00000000       0.02605292       0.01768453      -0.02488651
Pt       5.34567526       5.99702996       4.35147272        2       0.00000000       0.03312859      -0.03987190       0.01095165
Ni       7.93667851       5.99925242       4.37507128        2       1.00000000       0.02790816      -0.07089815      -0.15874307
Ni      10.44290518       6.03979751       4.47696669        2       1.00000000      -0.02816785      -0.01847704      -0.06906673
Pt       3.92570748       8.33880711       4.32652190        2       0.00000000       0.02134076      -0.03012100      -0.05151590
Pt       6.59470796       8.27571150       4.34886846        2       0.00000000      -0.00368942       0.02188753       0.00112592
Pt       9.21512706       8.22841032       4.41043166        2       0.00000000      -0.01323415       0.00316565       0.01580317
Pt      11.81390346       8.40267634       4.38929541        2       0.00000000      -0.01298248       0.01896728      -0.03945302
Pt      -0.04417720      -0.02539238       6.75431678        1       0.00000000       0.00691228       0.02464693       0.08723417
Pt       2.66026816      -0.06352906       6.75731048        1       0.00000000       0.05104222      -0.00322602       0.14383200
Pt       5.30165817      -0.11489514       6.74799669        1       0.00000000       0.04844578      -0.03442672       0.10827451
Ni       7.84765894      -0.00909060       6.67350287        1       1.00000000       0.01190500       0.05337630      -0.09796178
Pt       1.28754201       2.28319486       6.61585174        1       0.00000000       0.00373588       0.00976655      -0.03224313
Pt       3.95840133       2.24296892       6.60918000        1       0.00000000       0.02031856      -0.00844477      -0.02182607
Pt       6.58115847       2.21763971       6.53991326        1       0.00000000      -0.00721863       0.01059967      -0.05817110
Pt       9.16076456       2.28834821       6.69900540        1       0.00000000       0.00167801       0.05684459       0.12312603
Pt       2.54843975       4.58089771       6.73078973        1       0.00000000      -0.04273259       0.03474399       0.07329022
Pt       5.26404614       4.53866399       6.68508948        1       0.00000000      -0.04195320       0.04754755       0.06005809
Pt       7.96697551       4.58339569       6.53212245        1       0.00000000      -0.00657453       0.03804104      -0.02343952
Ni      10.47847656       4.61567098       6.63401655        1       1.00000000      -0.01491310       0.10168305      -0.12471407
Pt       3.85615509       6.84665624       6.73204426        1       0.00000000      -0.09440724       0.06861038       0.12504064
Pt       6.61832939       6.79406222       6.61165677        1       0.00000000      -0.00208844       0.02399569       0.02633296
Ni       9.25568405       6.77024809       6.62433483        1       1.00000000       0.06721836      -0.03788520      -0.10055390
Ni      11.75816689       6.80070214       6.64798297        1       1.00000000      -0.08361122      -0.06332818      -0.15340241
