64
Lattice="10.035199317429297 -0.0006998085711197792 0.011470149424019912 5.01699360671427 8.71924792061178 0.030414812895470284 0.009365337787442397 0.023268280303244467 8.589736472317696" Properties=species:S:1:pos:R:3:tags:I:1:initial_magmoms:R:1:forces:R:3 unique_id=b0082488802b4aeca78717198209dee7 stress="-7.853763762244448e-05 8.560537598212491e-07 -1.1561537934020806e-06 8.560537598212491e-07 -8.007102826142198e-05 -7.637255507982808e-07 -1.1561537934020806e-06 -7.637255507982808e-07 -5.703250880462196e-05" energy=-387.7558237043444 pbc="T T T"
Pt       0.03871525      -0.04355181       0.08312431        4       0.00000000       0.07390556      -0.03257799      -0.07546737
Ni       2.55258068       0.00846007       0.22269534        4       1.00000000       0.06423582       0.05519369       0.37100828
Ni       4.97676620       0.04610025       0.16031057        4       1.00000000      -0.10411854       0.08423696       0.23497834
Ni       7.51156280       0.01512609       0.06563651        4       1.00000000      -0.03163760       0.06062630       0.01219518
Ni       1.30743760       2.20934574       0.20975275        4       1.00000000       0.07434524       0.03996595       0.20754207
Ni       3.76624144       2.19433924       0.13334978        4       1.00000000      -0.01055938       0.04211885       0.12670680
Ni       6.21696470       2.23194697       0.08085993        4       1.00000000      -0.12029635       0.16111597       0.01023077
Pt       8.75076437       2.24091665       0.10027130        4       0.00000000      -0.05207966       0.08280982      -0.03420137
Ni       2.54173654       4.31616934       0.21405083        4       1.00000000       0.03474107      -0.08071415       0.25834334
Ni       5.02410306       4.35692833       0.12942317        4       1.00000000       0.00073437      -0.01332790       0.11011437
Ni       7.49060699       4.40580199       0.12291494        4       1.00000000      -0.07772645       0.02258264       0.05207238
Ni      10.03089824       4.36296293       0.14268870        4       1.00000000      -0.00075868       0.00243367       0.17275361
Ni       3.81404153       6.47789395       0.10345915        4       1.00000000       0.12316445      -0.17717198       0.06702076
Ni       6.29452140       6.49002142       0.13344371        4       1.00000000      -0.00520962      -0.05421443       0.06591359
Ni       8.71519310       6.52267179       0.10724379        4       1.00000000      -0.08843715      -0.01013372       0.00480107
Pt      11.28703328       6.50573547       0.02704436        4       0.00000000       0.00099692      -0.01288240      -0.27541565
Ni       1.27787415       0.77810018       2.17584808        3       1.00000000      -0.02485414       0.10238348       0.02630282
Ni       3.70989183       0.78647187       2.18892566        3       1.00000000       0.02103524       0.06212684       0.22486078
Pt       6.27008745       0.82314114       2.19562149        3       0.00000000       0.00991163       0.12611463      -0.05103616
Ni       8.82898699       0.76686288       2.23561613        3       1.00000000       0.07687697       0.06122362       0.01607390
Ni       2.52124034       2.90902120       2.19576038        3       1.00000000       0.02614764       0.00994509       0.15614547
Ni       4.98560850       2.96136545       2.17824504        3       1.00000000      -0.00240872       0.01615585       0.07423929
Ni       7.51104652       2.97474196       2.19251646        3       1.00000000      -0.07645052       0.02713288      -0.05250922
Ni      10.07318801       2.91960675       2.20116504        3       1.00000000       0.02239565      -0.00144313      -0.00122586
Ni       3.78363134       5.02878747       2.16208190        3       1.00000000      -0.03143653      -0.03335685       0.06238689
Ni       6.28213677       5.07664793       2.15910443        3       1.00000000      -0.00199133      -0.05315445       0.08581408
Ni       8.74863066       5.06017636       2.15562721        3       1.00000000      -0.03464651       0.02354758      -0.05477599
Ni      11.29160022       5.01600494       2.21811588        3       1.00000000      -0.00729116       0.01245640       0.02665135
Ni       5.06976305       7.23200416       2.17400513        3       1.00000000      -0.01553377      -0.06945891      -0.13140547
Ni       7.48383646       7.24759311       2.16498774        3       1.00000000       0.02740182      -0.10197537       0.02111078
Pt       9.95165285       7.23533932       2.24216662        3       0.00000000      -0.04919749      -0.06544940      -0.09839374
Pt      12.62357705       7.24075366       2.24161599        3       0.00000000       0.07611526      -0.04353239      -0.21870530
Ni      -0.01825798       1.46707779       4.23227269        2       1.00000000       0.03943108       0.06616337      -0.06599989
Ni       2.54680377       1.50630106       4.23107053        2       1.00000000      -0.05697228      -0.01223999       0.09105957
Ni       5.00806882       1.50506850       4.28227001        2       1.00000000      -0.04920821       0.00022967       0.00984689
Ni       7.51914783       1.44529152       4.31238277        2       1.00000000      -0.03232808       0.01541108      -0.05743747
Ni       1.28173041       3.65790008       4.22079168        2       1.00000000       0.06457452      -0.03162032       0.01873142
Ni       3.76239981       3.59231569       4.24918654        2       1.00000000      -0.05626092      -0.01398277      -0.03421556
Ni       6.25962716       3.60072235       4.29121339        2       1.00000000      -0.02660653      -0.05959765      -0.10685364
Pt       8.77997630       3.65477900       4.27427465        2       0.00000000       0.00449839       0.00773157       0.00781973
Ni       2.47705453       5.81751521       4.27847355        2       1.00000000       0.00163439      -0.15312143      -0.08913559
Pt       4.99430915       5.76024788       4.28725444        2       0.00000000      -0.04653809      -0.08317761       0.01532988
Ni       7.55770521       5.82686531       4.30085022        2       1.00000000       0.00610676       0.03184506      -0.10695847
Ni      10.05117260       5.82385955       4.32876062        2       1.00000000      -0.00917992      -0.04419052      -0.09447098
Ni       3.72771292       8.03711997       4.32998519        2       1.00000000       0.00578223      -0.01364375      -0.11687526
Pt       6.27859516       8.03236707       4.22974038        2       0.00000000       0.08733961       0.06639681       0.12436191
Ni       8.80645447       8.00131688       4.30187770        2       1.00000000       0.01990915       0.08069148       0.10373351
Ni      11.31947214       8.00279502       4.31496022        2       1.00000000      -0.03722279       0.07473345      -0.03783133
Ni      -0.06167937      -0.00991782       6.27054599        1       1.00000000       0.00242411       0.01895536      -0.26037771
Pt       2.51616133      -0.04093613       6.42696827        1       0.00000000      -0.07435750      -0.10871443       0.20278694
Pt       5.10884545       0.02562490       6.36749644        1       0.00000000       0.12723911       0.02019648       0.07925480
Ni       7.57692555       0.01478009       6.32896310        1       1.00000000       0.04240519      -0.00592939      -0.12875260
Pt       1.19177197       2.20785276       6.36264938        1       0.00000000      -0.10680010       0.01021829       0.07194034
Ni       3.82252211       2.22301918       6.35150813        1       1.00000000       0.04096699       0.00475793      -0.08655108
Ni       6.30197794       2.23207750       6.34697518        1       1.00000000       0.06130424       0.03577693      -0.14321123
Ni       8.72151551       2.17340507       6.29223882        1       1.00000000      -0.11062242      -0.03668593      -0.21014230
Pt       2.55824219       4.43020629       6.38548292        1       0.00000000       0.08635940       0.05503079       0.13858404
Ni       5.07686887       4.34691830       6.39860989        1       1.00000000       0.09376477      -0.10013274       0.00559401
Ni       7.51390569       4.38036284       6.38594564        1       1.00000000      -0.00757781      -0.02497590      -0.05718089
Ni       9.99879449       4.41861547       6.38256119        1       1.00000000      -0.02394874       0.03055921      -0.01612449
Ni       3.77558233       6.60563325       6.38055646        1       1.00000000       0.00122488       0.07233118      -0.08228179
Ni       6.26773030       6.49435751       6.40424701        1       1.00000000      -0.01667850      -0.11972362      -0.04020352
Ni       8.79104524       6.48836194       6.36535259        1       1.00000000       0.01542646      -0.05877934      -0.14133958
Ni      11.30127143       6.56119430       6.24743576        1       1.00000000       0.05653654       0.03270956      -0.38722944
