64
Lattice="10.311676567273702 -0.011364587594864927 -0.01312473571912206 5.145996262076165 8.823316628370124 -0.05144094873000823 0.0 0.0 21.574760386901982" Properties=species:S:1:pos:R:3:tags:I:1:initial_magmoms:R:1:forces:R:3 unique_id=883f0f783cab4a55b34a997a05ef18cb stress="0.005583373040772373 -9.932911201991488e-05 -1.9738185474181965e-05 -9.932911201991488e-05 0.005180281828274522 -0.000312075165107948 -1.9738185474181965e-05 -0.000312075165107948 -0.0018100810133842935" energy=-374.06193184124953 pbc="T T T"
Ni       0.00759716      -0.00823829       0.17171067        2       1.00000000       0.06695483      -0.01224669      -0.20904448
Ni       2.57369970      -0.00133282       0.19537585        2       1.00000000      -0.03010464       0.01467697      -0.18645189
Ni       5.14462641      -0.02666458       0.14060510        1       1.00000000      -0.03926955       0.19349418      -0.42772531
Ni       7.72529870      -0.07595537       0.16296751        2       1.00000000      -0.08475592      -0.07230964      -0.22829357
Ni       1.29373159       2.20938838       0.07595515        1       1.00000000      -0.00716823       0.01074590       0.36501718
Pt       3.79174401       2.21072293       0.07458676        1       0.00000000       0.06039747      -0.00307599       0.00577352
Pt       6.42132334       2.15481906       0.07481466        1       0.00000000       0.06619214      -0.03476390      -0.05782563
Pt       9.10412390       2.19355489       0.08145644        1       0.00000000      -0.04861402       0.07780990      -0.54359831
Ni       2.56786431       4.43623701       0.02627953        0       1.00000000       0.08738382       0.02990862       0.26155566
Ni       5.10827941       4.43025176       0.13994934        1       1.00000000      -0.09179426       0.05177570       0.05416677
Pt       7.76467271       4.45432874       0.05437274        1       0.00000000       0.00446153      -0.00774987      -0.06218314
Ni      10.35168968       4.43052601       0.01980554        0       1.00000000       0.04529436       0.01136854       0.18719208
Ni       3.81925996       6.61051435       0.05853219        1       1.00000000      -0.03242812      -0.04314421       0.41658160
Pt       6.39530267       6.66266125       0.13009200        1       0.00000000      -0.05680192       0.03608239      -0.52605856
Ni       9.03714991       6.62801385       0.01052093        0       1.00000000      -0.12428397       0.02041299       0.03422787
Ni      11.61563421       6.60099303       0.00000000        0       1.00000000       0.11850825       0.00848788       0.17149449
Ni       1.30297906       0.74617685       2.14305399        4       1.00000000       0.00344265       0.12235576      -0.01047744
Ni       3.85242579       0.75207139       2.17390888        5       1.00000000       0.04315182       0.09712211       0.19222389
Ni       6.43029621       0.75013570       2.19425022        5       1.00000000      -0.04894405       0.19948402       0.20241906
Pt       9.02412810       0.71068129       2.21321896        5       0.00000000      -0.00276937       0.11099208       0.05634105
Ni       2.57937464       2.92570529       2.17724014        5       1.00000000       0.07638846       0.02264376       0.09537851
Ni       5.12587822       2.94048041       2.19574491        5       1.00000000      -0.12098608       0.00679545       0.14862162
Ni       7.72614185       2.94457484       2.20534956        5       1.00000000       0.03814984       0.03249271       0.14210198
Ni      10.33053513       2.92327276       2.20693250        5       1.00000000       0.05533691      -0.05000928       0.18417959
Ni       3.88956213       5.13004822       2.16455170        5       1.00000000       0.08812617      -0.07920335       0.10683806
Ni       6.41596819       5.13051536       2.18931794        5       1.00000000      -0.05003667       0.00217408       0.14403912
Ni       8.99211599       5.10821227       2.17721318        5       1.00000000      -0.05820146      -0.16580382       0.16461834
Pt      11.64668202       5.07071800       2.11780430        4       0.00000000       0.10996376      -0.08850020       0.03677584
Ni       5.11490913       7.29863205       2.14361887        4       1.00000000      -0.17504292      -0.19827144       0.08147388
Ni       7.72114566       7.33210270       2.13235801        4       1.00000000       0.04199185      -0.10581280       0.04442154
Pt      10.28302317       7.34151633       2.04151832        3       0.00000000       0.03529170      -0.14124617      -0.09645852
Ni      12.90330411       7.29813022       2.08831107        4       1.00000000       0.08318308      -0.13001961       0.02058264
Ni      -0.00000935       1.51221096       4.30842418        7       1.00000000       0.04634463       0.05966681      -0.17395271
Pt       2.56485221       1.56471235       4.28067432        7       0.00000000       0.02505742      -0.01080100      -0.06449861
Ni       5.15184310       1.48780011       4.31061619        7       1.00000000      -0.04825430       0.07117194      -0.23421785
Ni       7.72365416       1.47358336       4.29867416        7       1.00000000      -0.01648264      -0.05342154      -0.25398142
Ni       1.28204183       3.65509200       4.34907194        7       1.00000000      -0.01019893       0.01192886      -0.10033114
Ni       3.84279847       3.69569466       4.29120253        7       1.00000000       0.01040557       0.11106206      -0.28474947
Pt       6.44587524       3.64630576       4.25011711        7       0.00000000      -0.05771719       0.04194285      -0.06851780
Ni       9.01524100       3.63641221       4.25627014        7       1.00000000      -0.01222220      -0.11610852      -0.41458740
Ni       2.59315985       5.79432006       4.33822735        7       1.00000000       0.03185014      -0.19747969      -0.02592303
Ni       5.11059478       5.80993982       4.26047447        7       1.00000000      -0.02949817      -0.13958339      -0.31553515
Ni       7.73259454       5.80589942       4.26782393        7       1.00000000      -0.00265176      -0.05421096      -0.32673391
Pt      10.29911591       5.75009601       4.35966461        8       0.00000000       0.05889163       0.00589052      -0.02097099
Pt       3.85218323       8.00063006       4.26913780        7       0.00000000       0.02843763      -0.13590919       0.09024122
Pt       6.41655720       8.04370174       4.16368888        6       0.00000000      -0.08280390       0.03738249      -0.19606982
Pt       8.99216509       8.05849780       4.24477607        6       0.00000000      -0.06153889       0.03404977      -0.06085507
Pt      11.60246836       8.07560130       4.22218759        6       0.00000000       0.05993696       0.00501045      -0.07066059
Pt       0.00132972      -0.00616455       6.54723732       11       0.00000000       0.03247200       0.21547757       0.37364051
Pt       2.58153329       0.02177702       6.57476039       12       0.00000000       0.04033633       0.04311761       0.39522829
Pt       5.15230355      -0.02236302       6.54172707       11       0.00000000      -0.02273764       0.17804579       0.46034186
Pt       7.71684990      -0.06763337       6.55529575       12       0.00000000       0.01913180       0.21286757       0.43440643
Ni       1.29602463       2.25869500       6.46545301       11       1.00000000      -0.01814698       0.15492302      -0.23297118
Ni       3.83905864       2.20924152       6.39884482       10       1.00000000      -0.04090665      -0.05235655       0.10212517
Ni       6.43355865       2.18828132       6.38363496       10       1.00000000       0.00662135      -0.05954795       0.09608030
Pt       9.02336999       2.27334676       6.34743510        9       0.00000000       0.02832995      -0.03615819       0.61936677
Ni       2.52426350       4.38579112       6.44112808       10       1.00000000      -0.07320344      -0.02969043      -0.38306118
Pt       5.06419904       4.33112378       6.47034976       11       0.00000000      -0.05445104       0.04407055      -0.01969108
Ni       7.75317144       4.38598504       6.37118532       10       1.00000000       0.01664451       0.08562387      -0.00531943
Ni      10.33389069       4.38934355       6.45989225       11       1.00000000       0.07898416      -0.06815045      -0.16166809
Ni       3.80655410       6.53717690       6.45010494       11       1.00000000      -0.05430060      -0.12688676      -0.19651118
Pt       6.46254990       6.51832861       6.38401779       10       0.00000000      -0.00687953      -0.12308690       0.50677948
Ni       9.03852404       6.52514467       6.45590446       11       1.00000000      -0.02057082      -0.02566043      -0.07583294
Ni      11.59815790       6.51326326       6.46035472       11       1.00000000       0.07610317       0.00015416      -0.15947742
