64
Lattice="10.317332511287182 -0.03789099156646311 0.034364179084450476 5.1258516943724555 8.897108292667385 0.009246354083834033 0.0280582347288419 -0.007481883141774673 8.798432320758966" Properties=species:S:1:pos:R:3:tags:I:1:initial_magmoms:R:1:forces:R:3 unique_id=47e1f8f82c364289a5d41a471dde9283 stress="0.0002215993192469859 5.730342076521292e-06 -2.772898888547456e-05 5.730342076521292e-06 0.00022493121004354966 7.366119969034843e-06 -2.772898888547456e-05 7.366119969034843e-06 0.00021807528473022364" energy=-398.02482309122684 pbc="T T T"
Ni      -0.01671105       0.03178424       0.20707579        4       1.00000000      -0.06119260       0.13337930       0.31507002
Ni       2.57529603      -0.00358835       0.21999519        4       1.00000000      -0.02384095       0.02569305       0.43922432
Ni       5.15931522      -0.02924363       0.18032320        4       1.00000000      -0.00528772       0.15342939       0.28015252
Ni       7.76418007      -0.06153901       0.14152025        4       1.00000000       0.11300535      -0.06827042       0.22897129
Ni       1.24619189       2.22474424       0.11332731        4       1.00000000      -0.15013866      -0.01460361       0.24033395
Pt       3.79411067       2.21666156       0.12072733        4       0.00000000      -0.05113908       0.03392081      -0.14028752
Pt       6.47462719       2.14417702       0.21731860        4       0.00000000       0.11125972      -0.08449593       0.20134590
Ni       9.06407324       2.17022832       0.20894783        4       1.00000000       0.10716533      -0.09722181       0.23629577
Ni       2.54439254       4.45204545       0.06195257        4       1.00000000      -0.02675421      -0.01218235      -0.04706681
Ni       5.13888577       4.43674813       0.17170155        4       1.00000000       0.19093023      -0.10238926       0.21590152
Pt       7.80015925       4.43575985       0.13168511        4       0.00000000       0.16373034      -0.02622448      -0.11427207
Ni      10.32583922       4.40520605       0.09885008        4       1.00000000       0.07113259      -0.12582753       0.07160934
Ni       3.81237864       6.70262151       0.18329537        4       1.00000000      -0.03518425       0.16065909       0.22307683
Pt       6.40533798       6.71274567       0.21733446        4       0.00000000      -0.04549780       0.03842580       0.17384326
Ni       9.02673659       6.66512493       0.10278901        4       1.00000000       0.01696402       0.02748604       0.07436816
Ni      11.60053970       6.65212290       0.09247692        4       1.00000000       0.12625984       0.04966047      -0.02307209
Ni       1.27112534       0.76275723       2.16630277        3       1.00000000      -0.10643392       0.17911619      -0.05220314
Ni       3.86471960       0.74959651       2.20999178        3       1.00000000       0.04599078       0.05935735       0.00926811
Ni       6.48499826       0.72776466       2.26319439        3       1.00000000       0.12862162       0.07008842       0.13707998
Ni       9.03227453       0.73406797       2.21159886        3       1.00000000      -0.04554104       0.12355127      -0.00797794
Ni       2.55562178       2.92946627       2.20632686        3       1.00000000      -0.13811891      -0.01753733      -0.05054107
Ni       5.14846630       2.92438576       2.25389766        3       1.00000000      -0.08636843      -0.15492262       0.01462801
Ni       7.78519328       2.92007491       2.25954460        3       1.00000000       0.25082802      -0.11450563      -0.07607416
Ni      10.28699412       2.88513958       2.22576956        3       1.00000000      -0.03844847      -0.10132738       0.03866837
Pt       3.86980806       5.16278655       2.16899412        3       0.00000000      -0.06351934      -0.08365495       0.02849277
Ni       6.47514424       5.16135524       2.23540783        3       1.00000000       0.11982624      -0.00229454      -0.08135250
Ni       8.98800826       5.14210635       2.26136912        3       1.00000000      -0.04979108      -0.09485863       0.13433632
Pt      11.56840691       5.11411163       2.17057756        3       0.00000000      -0.08680418      -0.08394586      -0.03345081
Ni       5.11614198       7.46024682       2.19633248        3       1.00000000      -0.12706552       0.10433956      -0.08355432
Ni       7.71799506       7.40411579       2.22394478        3       1.00000000       0.02741001      -0.05962559      -0.01835411
Pt      10.27765337       7.41315310       2.14094081        3       0.00000000       0.02635501      -0.08536456      -0.02279638
Ni      12.89384808       7.41834559       2.20169214        3       1.00000000      -0.03450878       0.04517062      -0.05473933
Ni      -0.01869927       1.52382461       4.32356984        2       1.00000000      -0.03752308       0.09253876      -0.22812036
Pt       2.62294903       1.53215597       4.31922084        2       0.00000000       0.00763297       0.00528887      -0.10413932
Ni       5.16958993       1.48926637       4.34524353        2       1.00000000       0.07332489       0.03219777      -0.17075971
Ni       7.77854771       1.47800166       4.34216447        2       1.00000000       0.12901429       0.07416549      -0.21487324
Pt       1.27725168       3.69396338       4.41222731        2       0.00000000      -0.02955499      -0.05836939      -0.08923454
Ni       3.87011207       3.68901071       4.37457444        2       1.00000000       0.03483064       0.02360446      -0.16562014
Pt       6.50379639       3.65229448       4.27772527        2       0.00000000      -0.02612769      -0.08876503       0.01887140
Ni       9.01999920       3.65404340       4.36556337        2       1.00000000       0.04558832      -0.09671016      -0.29417040
Ni       2.55588918       5.90773316       4.38518100        2       1.00000000      -0.04652812       0.00655106      -0.12881170
Pt       5.13253162       5.88604231       4.31815881        2       0.00000000       0.01616535       0.04466113       0.06496038
Ni       7.75249553       5.86744054       4.35734262        2       1.00000000      -0.04332374      -0.04120275      -0.23021556
Pt      10.26868704       5.85359994       4.46243097        2       0.00000000      -0.05176942       0.00288362      -0.08247628
Pt       3.83603964       8.21865693       4.28650463        2       0.00000000      -0.03580205       0.05104386      -0.02158661
Pt       6.42210121       8.17440866       4.26193459        2       0.00000000      -0.00201106       0.06080308      -0.00155896
Pt       9.00271802       8.13143332       4.34914433        2       0.00000000      -0.06293910       0.04981223       0.10107926
Pt      11.62082474       8.16549466       4.37559102        2       0.00000000       0.03963842       0.04567538      -0.02733638
Pt      -0.00141077       0.03716977       6.58902109        1       0.00000000      -0.06154251       0.03532026       0.19154376
Pt       2.61803136       0.04569892       6.62562765        1       0.00000000      -0.01777122       0.10537120       0.26814442
Pt       5.21304526      -0.08970748       6.61225262        1       0.00000000       0.02009750      -0.21366051       0.12538973
Ni       7.75274671      -0.03752920       6.56828149        1       1.00000000       0.04468215       0.05793297      -0.11323971
Ni       1.31986597       2.27399216       6.54691383        1       1.00000000       0.03818069       0.09208719      -0.01682258
Ni       3.85062078       2.23690606       6.46541648        1       1.00000000      -0.03092088       0.00171708      -0.27266250
Pt       6.47583028       2.17209861       6.48196862        1       0.00000000       0.01435988      -0.00610425      -0.22689565
Pt       9.08190923       2.27427694       6.54101630        1       0.00000000       0.13904652       0.12193795       0.08884890
Ni       2.53117838       4.41963303       6.53352505        1       1.00000000      -0.16292121      -0.04816200      -0.16573795
Pt       5.09390761       4.38024713       6.57423796        1       0.00000000      -0.12190947      -0.02668528       0.05127382
Ni       7.78988549       4.44084444       6.46626608        1       1.00000000       0.05743348       0.03629472      -0.31789142
Ni      10.33561680       4.43984060       6.58172791        1       1.00000000       0.04433086       0.11327186       0.00271396
Pt       3.73904215       6.65643838       6.58769094        1       0.00000000      -0.16810138      -0.00893655       0.13674287
Pt       6.51600129       6.60890372       6.50670919        1       0.00000000       0.01015051      -0.01816814      -0.22118213
Ni       9.05114557       6.59406699       6.56866440        1       1.00000000      -0.01886458      -0.12883193      -0.06695890
Ni      11.57922340       6.59476016       6.57491139        1       1.00000000      -0.12071010      -0.19258784      -0.14619865
