64
Lattice="10.285879508033839 -0.018436910578630228 -0.011571422566509552 5.126972921088524 8.858972323542394 -0.07254804904362812 -0.009448026962024974 -0.06294413567763549 8.775762193616968" Properties=species:S:1:pos:R:3:tags:I:1:initial_magmoms:R:1:forces:R:3 unique_id=5b792c9a6cc24dcabd781a0f2b430acd stress="0.00015772242394497538 5.49497610848007e-06 -1.0966023166959212e-05 5.49497610848007e-06 0.0001746444839314243 3.575295955035197e-05 -1.0966023166959212e-05 3.575295955035197e-05 0.0001679236036273707" energy=-395.84668274199504 pbc="T T T"
Ni      -0.02340589       0.02470864       0.21020086        4       1.00000000      -0.08012844       0.04945292       0.33935632
Ni       2.55900472      -0.00639297       0.21233385        4       1.00000000      -0.07725146      -0.01641879       0.41054548
Ni       5.13207366      -0.03556966       0.15909917        4       1.00000000      -0.02787496       0.10232715       0.35047930
Ni       7.75095137      -0.06518600       0.08796210        4       1.00000000       0.11019563      -0.10792151       0.19671633
Ni       1.24058590       2.20982235       0.09572713        4       1.00000000      -0.15250218      -0.03816862       0.23030046
Pt       3.77653890       2.21240172       0.08866971        4       0.00000000      -0.10085660      -0.02150065      -0.14301601
Pt       6.44740311       2.18634528       0.10939161        4       0.00000000       0.04016938      -0.10355942       0.23719413
Ni       9.04151668       2.16833874       0.15610807        4       1.00000000       0.05429222      -0.11456208       0.25034290
Ni       2.56175302       4.44329861       0.03084973        4       1.00000000       0.07759813       0.00925540       0.00531506
Ni       5.09493660       4.43995186       0.14687849        4       1.00000000      -0.04657919       0.02082795       0.31151700
Pt       7.78577670       4.43142387       0.06295697        4       0.00000000       0.13906826       0.00355165      -0.09058555
Ni      10.30621334       4.39693642       0.02733444        4       1.00000000       0.10362274      -0.13085302       0.12022750
Ni       3.80502073       6.64415539       0.05596648        4       1.00000000      -0.08085226      -0.05707047       0.15922324
Pt       6.37471932       6.67714894       0.13063419        4       0.00000000      -0.13249586       0.00145179       0.09228444
Ni       9.00224402       6.63886553       0.00489832        4       1.00000000      -0.03851071       0.00627312       0.01279453
Ni      11.58609495       6.62283699      -0.00644355        4       1.00000000       0.11372969      -0.03426212      -0.01680600
Ni       1.25806096       0.74223167       2.15484667        3       1.00000000      -0.09113068       0.12033510      -0.00300491
Ni       3.82276197       0.73774671       2.18157717        3       1.00000000       0.04833312       0.04325497       0.01875459
Pt       6.47536037       0.73687306       2.24524918        3       0.00000000       0.07650062       0.18473684      -0.09451940
Ni       9.03602888       0.72368837       2.17096311        3       1.00000000       0.04840666       0.05958521       0.09239855
Ni       2.56567373       2.92373170       2.17892355        3       1.00000000      -0.01565669       0.00414401      -0.01404257
Ni       5.09494071       2.97345631       2.19842257        3       1.00000000      -0.14991378       0.00580706      -0.06983460
Ni       7.76764498       2.94566583       2.20360258        3       1.00000000       0.18765016      -0.00735480      -0.06847288
Ni      10.26023927       2.87908480       2.15583781        3       1.00000000       0.03129698      -0.05437215       0.06888690
Ni       3.87941347       5.15520146       2.16522475        3       1.00000000       0.03472812       0.02240111       0.07225720
Ni       6.39939920       5.14979296       2.18259710        3       1.00000000      -0.01981447       0.12331558      -0.08032691
Ni       8.96439026       5.10983772       2.18590209        3       1.00000000      -0.01173688      -0.13130967       0.13680513
Pt      11.61106765       5.08966418       2.08635909        3       0.00000000       0.08663890      -0.06640383       0.01185801
Ni       5.08041210       7.35968327       2.13234395        3       1.00000000      -0.16616212      -0.09252249      -0.12078461
Ni       7.68443625       7.35726362       2.13260080        3       1.00000000      -0.02058088      -0.11457298      -0.08322469
Pt      10.22893236       7.32517031       2.04118860        3       0.00000000       0.05360598      -0.11910244      -0.01545815
Ni      12.89487741       7.33592181       2.08502312        3       1.00000000       0.02725976      -0.08299718      -0.09136231
Ni      -0.03426837       1.47036997       4.30532191        2       1.00000000      -0.01675316       0.00000549      -0.18073138
Pt       2.59102784       1.49507799       4.28681923        2       0.00000000      -0.03423594      -0.00613330      -0.06782343
Ni       5.12434577       1.47507032       4.31630287        2       1.00000000      -0.00540440       0.08585828      -0.11724373
Ni       7.75929429       1.46264945       4.31118038        2       1.00000000       0.21334155       0.08128837      -0.05971424
Pt       1.27122557       3.65453988       4.36820125        2       0.00000000      -0.02445081      -0.07714426      -0.05226223
Ni       3.85388734       3.69196484       4.29323944        2       1.00000000      -0.00876229       0.08578539      -0.25127011
Pt       6.42880821       3.68493729       4.21676185        2       0.00000000      -0.07420365      -0.04469457       0.01661527
Ni       8.97257817       3.62393854       4.29090504        2       1.00000000       0.00916260      -0.08962043      -0.24721625
Ni       2.60098468       5.84228185       4.34009939        2       1.00000000       0.06589909      -0.09150277      -0.09678780
Ni       5.08633465       5.83951404       4.25788147        2       1.00000000      -0.05968610      -0.02797929      -0.17976048
Ni       7.70003279       5.82445909       4.26917880        2       1.00000000      -0.04101672      -0.00025291      -0.24219100
Pt      10.23056377       5.80809227       4.36649581        2       0.00000000      -0.04183291      -0.04904525      -0.05399157
Pt       3.83434233       8.07185230       4.23570737        2       0.00000000      -0.01754670       0.02264261      -0.01105830
Pt       6.38151624       8.06068238       4.16251190        2       0.00000000      -0.02461597      -0.03878789       0.01503980
Pt       8.96529878       8.07332114       4.24472703        2       0.00000000      -0.02631440       0.05277604       0.11959804
Pt      11.59200131       8.07429148       4.31011923        2       0.00000000       0.02696048      -0.06565144       0.11170840
Pt      -0.05280576      -0.03785011       6.58048013        1       0.00000000      -0.06388483       0.02123482       0.20831559
Pt       2.56963144       0.00617639       6.59873498        1       0.00000000      -0.00301582       0.14831925       0.26637796
Pt       5.17190940      -0.11345669       6.58555799        1       0.00000000       0.03947559      -0.14218100       0.17792529
Ni       7.71658009      -0.09213916       6.52301246        1       1.00000000       0.05246144       0.00776749      -0.05697559
Ni       1.29414188       2.23078636       6.50621471        1       1.00000000       0.06891175       0.15055671      -0.01131723
Ni       3.82229328       2.20130634       6.41541591        1       1.00000000      -0.03121263       0.05412925      -0.28073597
Pt       6.42651448       2.15964990       6.39059492        1       0.00000000       0.01984693       0.05842598      -0.39066633
Pt       9.03688140       2.23941889       6.46995670        1       0.00000000       0.14231392       0.14464482       0.12316340
Ni       2.52042437       4.40617861       6.47585218        1       1.00000000      -0.16012495       0.09629156      -0.11867013
Pt       5.01569962       4.39017621       6.47652509        1       0.00000000      -0.17759811       0.08797292       0.10472872
Ni       7.74506768       4.40195502       6.38173801        1       1.00000000       0.05026883       0.08125719      -0.31741285
Ni      10.29053389       4.40251044       6.48807132        1       1.00000000       0.08698755       0.17151039       0.02133885
Ni       3.77035742       6.59054231       6.45061675        1       1.00000000      -0.14190620       0.03263910      -0.13158489
Pt       6.44192924       6.54515538       6.38539675        1       0.00000000       0.01329987      -0.00728896      -0.31295720
Ni       9.00579220       6.53838235       6.46566415        1       1.00000000       0.00401399      -0.07374701      -0.10482833
Ni      11.59160663       6.54214539       6.46671840        1       1.00000000       0.13857284      -0.13284424      -0.10543080
