64
Lattice="10.302926966105014 -0.004094643918485638 -0.016888299058769037 5.14791741739965 8.858704996912953 -0.016772967779156954 0.0 0.0 21.560676675348443" Properties=species:S:1:pos:R:3:tags:I:1:initial_magmoms:R:1:forces:R:3 unique_id=b14710fcdc904634a5e04cd4aaae88ce energy=-375.15100394155945 stress="0.004942838137350591 -0.00013325315076534626 -8.537393932041367e-05 -0.00013325315076534626 0.004620865755355905 4.2814733324049936e-05 -8.537393932041367e-05 4.2814733324049936e-05 -0.0030645050337516737" pbc="T T T"
Ni      -0.00071644       0.02532289       0.16457310        2       1.00000000       0.06705532       0.01240888      -0.26663743
Ni       2.56722543       0.00852463       0.18906995        2       1.00000000      -0.03482232       0.05119923      -0.21132451
Ni       5.14694454      -0.01397767       0.12077057        1       1.00000000      -0.02752356       0.13758278      -0.29971986
Ni       7.72976351      -0.04875300       0.13773266        1       1.00000000      -0.10230578      -0.12037457      -0.21520372
Ni       1.25318654       2.21908415       0.16845174        2       1.00000000      -0.05747622       0.02634185      -0.04054899
Pt       3.79812727       2.21943120       0.07309026        1       0.00000000      -0.04789837      -0.03492380      -0.03409109
Pt       6.45589809       2.14867519       0.07020476        1       0.00000000       0.03539985      -0.11276306      -0.09989569
Ni       9.05660619       2.21017486       0.10859320        1       1.00000000       0.02782735       0.13751678      -0.13366054
Ni       2.55175324       4.44885359       0.02501399        0       1.00000000      -0.08128146      -0.03396150       0.14147527
Ni       5.13722745       4.43672503       0.12433499        1       1.00000000       0.13894821      -0.10004910      -0.43684147
Pt       7.76443439       4.42281814       0.00000000        0       0.00000000      -0.01386438      -0.02473246      -0.26283263
Ni      10.33852939       4.41592345       0.02436194        0       1.00000000       0.01968808      -0.07619218       0.21797389
Ni       3.82264911       6.66253354       0.04862893        0       1.00000000      -0.05867789       0.12319567       0.21241419
Pt       6.39987358       6.70049457       0.06643634        1       0.00000000       0.01729502       0.04114532      -0.10249957
Ni       9.03196826       6.66563988       0.10830128        1       1.00000000      -0.09313824      -0.00641050      -0.27159946
Ni      11.60898057       6.64261748       0.01394694        0       1.00000000       0.07863906       0.01898347       0.21115724
Ni       1.29407374       0.75687433       2.14038564        3       1.00000000       0.01973570       0.06451987       0.07601770
Ni       3.85437513       0.76082807       2.16946298        4       1.00000000       0.06332072       0.05176979       0.15308771
Ni       6.43446117       0.75488891       2.21580610        4       1.00000000       0.00793308       0.11835803       0.30772821
Pt       9.01430980       0.77274414       2.14520025        3       0.00000000      -0.00722301       0.10438746       0.08323476
Ni       2.55537701       2.92906793       2.17092570        4       1.00000000       0.01148945      -0.00477262       0.08335365
Ni       5.14936726       2.91450365       2.19976841        4       1.00000000      -0.04343381      -0.14425352       0.17150386
Ni       7.71504647       2.92877292       2.19434619        4       1.00000000      -0.02290740       0.02604953       0.14800275
Ni      10.31806058       2.91940876       2.17038763        4       1.00000000       0.04078159      -0.00971156       0.20703861
Pt       3.87941897       5.14814167       2.12837861        3       0.00000000       0.01608127      -0.07506693      -0.04464504
Ni       6.43483431       5.15955720       2.17043261        4       1.00000000       0.04549917      -0.02617297       0.09459284
Pt       8.97618497       5.13339547       2.24149698        4       0.00000000      -0.05717332      -0.06476918       0.07264074
Pt      11.59810619       5.11377178       2.16589713        4       0.00000000       0.00499489      -0.06991786       0.06680517
Ni       5.14198851       7.39185033       2.14506575        3       1.00000000      -0.05725207      -0.00531131       0.05482936
Ni       7.70460576       7.40168230       2.14507067        3       1.00000000       0.01362687       0.02017090       0.11656588
Pt      10.34746457       7.43279509       2.10799992        3       0.00000000       0.07100891       0.02890050       0.03749537
Ni      12.87460820       7.38477470       2.12471779        3       1.00000000       0.06053529      -0.02103660       0.01119352
Ni      -0.02308419       1.53308705       4.31160931        6       1.00000000      -0.00295611       0.09821361      -0.10815620
Pt       2.58631502       1.57010888       4.24367499        5       0.00000000      -0.01671619       0.04525266      -0.01283108
Ni       5.17723432       1.47984179       4.29512926        6       1.00000000       0.03470966      -0.06057701      -0.22590760
Ni       7.70171552       1.46830657       4.29501681        6       1.00000000       0.00709577      -0.09708682      -0.17428326
Ni       1.25846121       3.73726177       4.33209437        6       1.00000000      -0.02775555      -0.01795537      -0.06663638
Ni       3.83143729       3.69611464       4.32428718        6       1.00000000      -0.02599332       0.05172734      -0.18590815
Pt       6.47709927       3.62243346       4.26262321        6       0.00000000       0.03544406      -0.02506622      -0.16100121
Ni       9.04922009       3.69153747       4.31179402        6       1.00000000       0.13459363      -0.07710817      -0.06179645
Ni       2.51167355       5.87134961       4.37624441        7       1.00000000      -0.05477051      -0.07669744      -0.00130721
Pt       5.12336749       5.86920190       4.31416449        6       0.00000000      -0.00386143      -0.01178027      -0.02410213
Ni       7.73878272       5.86124826       4.32207333        6       1.00000000      -0.01178718      -0.00080121      -0.12421699
Ni      10.33682678       5.85220397       4.34513858        6       1.00000000       0.05429427       0.00413856      -0.03082322
Pt       3.76652913       8.10899263       4.26448170        6       0.00000000      -0.05891511      -0.02910325       0.07850650
Pt       6.43453610       8.12704972       4.22518881        5       0.00000000      -0.06664307       0.14810148      -0.10286606
Pt       9.05944359       8.09456399       4.24838244        5       0.00000000       0.02576111       0.00742132      -0.06897806
Ni      11.57921358       8.10205267       4.28902625        6       1.00000000      -0.04327237      -0.01597073      -0.14863895
Pt      -0.02044034      -0.06106971       6.54552558        9       0.00000000       0.03432053       0.20712311       0.26758068
Pt       2.57849072      -0.00920967       6.56067668       10       0.00000000       0.03412423      -0.03091777       0.38630419
Pt       5.16026498       0.02917781       6.49381869        9       0.00000000       0.06025591       0.05315210       0.27126556
Pt       7.68932727      -0.05711467       6.51167691        9       0.00000000      -0.09571502       0.09058559       0.25858470
Pt       1.30384154       2.32642504       6.50612726        9       0.00000000      -0.09057603      -0.06750092       0.01333985
Ni       3.86945023       2.24187938       6.38877245        8       1.00000000       0.03816203       0.00381057       0.09476809
Ni       6.41884373       2.22012603       6.39017286        8       1.00000000      -0.03562448      -0.09517333       0.20002041
Pt       8.96011445       2.29097069       6.43851275        8       0.00000000       0.01799866      -0.04022222       0.01323680
Ni       2.55262788       4.47838774       6.44584570        8       1.00000000       0.05822849       0.02809813      -0.26802883
Pt       5.10852095       4.39705649       6.52132587        9       0.00000000      -0.03055393      -0.07923976       0.24843567
Ni       7.69950714       4.42520681       6.36071530        8       1.00000000      -0.06893835       0.04228514       0.25648161
Ni      10.32567949       4.44773601       6.42780964        8       1.00000000       0.04851982      -0.03793753      -0.22317628
Ni       3.81064880       6.59140800       6.47503318        9       1.00000000      -0.06145453      -0.05713085      -0.14378496
Ni       6.42838177       6.59535893       6.39640630        8       1.00000000       0.11214541      -0.05457837       0.17985744
Pt       9.02857549       6.52062803       6.47715587        9       0.00000000      -0.04074447       0.03611621       0.11285340
Ni      11.60365383       6.56754236       6.42818696        8       1.00000000       0.00574205       0.02671103      -0.29640260
