64
Lattice="10.238791049905366 0.001646654352133906 0.011978624509496003 5.1208215694528825 8.748505991702801 -0.07353763024324242 0.0 0.0 21.542660918061173" Properties=species:S:1:pos:R:3:tags:I:1:initial_magmoms:R:1:forces:R:3 unique_id=ae40878b4fe1466e8897514e77ed10d9 energy=-371.04312719173527 stress="0.0025140791014153074 -1.8296451808324114e-05 0.00021014165999555106 -1.8296451808324114e-05 0.0014826776438213087 -0.0002285867084947877 0.00021014165999555106 -0.0002285867084947877 -0.005351845600590021" pbc="T T T"
Ni       0.04751357      -0.04965289       0.19041065        2       1.00000000       0.10211256       0.03465867      -0.27474733
Ni       2.50095692      -0.03448461       0.21703324        2       1.00000000       0.04103390       0.03664247      -0.24342085
Pt       5.10490440      -0.05514453       0.13772889        1       0.00000000      -0.06510452       0.37583369      -1.45930393
Ni       7.70372744      -0.05626372       0.20586540        2       1.00000000      -0.11205435       0.03846570      -0.49444212
Ni       1.27697898       2.18749921       0.09346529        1       1.00000000      -0.03201372       0.01767016       0.30967566
Pt       3.73566813       2.20543570       0.15610621        2       0.00000000       0.18056563      -0.02790172      -0.54517278
Pt       6.43571394       2.21108798       0.07378060        1       0.00000000      -0.10779755      -0.07494918      -0.22187266
Pt       9.04649991       2.23109029       0.11053848        1       0.00000000       0.02119362       0.08760082      -0.68009398
Ni       2.52907315       4.40703251       0.00663230        0       1.00000000       0.06392116       0.01774259       0.13679199
Pt       5.10983646       4.49894362       0.03536294        0       0.00000000      -0.07692819       0.00008147       0.03400839
Ni       7.68762108       4.43222001       0.01980729        0       1.00000000      -0.01898595      -0.03269261       0.02982342
Ni      10.27830893       4.41095143       0.01224828        0       1.00000000       0.03262960      -0.01229292       0.19226155
Ni       3.81703005       6.60612881       0.03930823        0       1.00000000       0.05256196       0.02144228       0.24436711
Ni       6.42514363       6.60619799       0.04685647        0       1.00000000      -0.04348855       0.02725367       0.26272175
Ni       8.91690894       6.51823190       0.00000000        0       1.00000000      -0.05439725       0.07338781       0.09167316
Ni      11.56152650       6.51696544       0.00790537        0       1.00000000       0.04386396       0.07591038       0.11434986
Ni       1.31409528       0.71414409       2.20594629        4       1.00000000       0.02570071       0.02169753       0.23814009
Ni       3.79210869       0.74602006       2.23211001        4       1.00000000      -0.04290449       0.02917366       0.24072298
Ni       6.40038237       0.75722499       2.22977478        4       1.00000000      -0.02572600       0.11091814       0.25090124
Pt       8.99203390       0.70980872       2.22192976        4       0.00000000       0.01798219      -0.11117114       0.20925475
Ni       2.55573675       2.85926325       2.25156703        5       1.00000000       0.03658297      -0.07737219       0.20189990
Ni       5.09473081       2.91093175       2.21704684        4       1.00000000      -0.04584837      -0.01431249       0.12963525
Ni       7.65373379       2.88790309       2.21510712        4       1.00000000      -0.12256099      -0.07297355       0.13239972
Ni      10.30110149       2.86965516       2.23916471        4       1.00000000       0.10815444      -0.07633779       0.23578214
Ni       3.87582201       5.09056942       2.19247866        4       1.00000000       0.07481309      -0.08020488       0.14483624
Ni       6.37091542       5.11699679       2.16348565        4       1.00000000      -0.04966007      -0.05011275       0.06915896
Pt       8.88586216       5.02625794       2.15833368        4       0.00000000      -0.01770889      -0.11511794      -0.00779792
Pt      11.60346845       5.01553578       2.17339104        4       0.00000000       0.03314630      -0.10335644       0.04220474
Ni       5.16623462       7.22107564       2.09647923        3       1.00000000      -0.00092424      -0.05551303       0.06543064
Ni       7.59862291       7.27972111       2.10030076        3       1.00000000      -0.05543605      -0.04041399       0.11017781
Pt      10.23002945       7.24051825       2.11009348        3       0.00000000       0.00049851      -0.20042440       0.06450637
Ni      12.85148081       7.23207669       2.08575894        3       1.00000000       0.08483295      -0.05169591       0.07779569
Ni       0.07428689       1.46096190       4.28420622        7       1.00000000       0.12548196      -0.05557566      -0.08159391
Ni       2.51677227       1.46712651       4.25794171        7       1.00000000      -0.03970248      -0.02228282      -0.11434121
Ni       5.10474495       1.45620689       4.24745280        6       1.00000000      -0.05781851      -0.00506326      -0.34595995
Ni       7.68386220       1.45019950       4.29308411        7       1.00000000      -0.03861929      -0.08598477      -0.20277757
Ni       1.29019931       3.59666137       4.32635007        7       1.00000000       0.02313910      -0.03251722      -0.01008713
Ni       3.81017073       3.65073776       4.23293963        6       1.00000000      -0.02113107       0.01526773      -0.19985432
Pt       6.40153514       3.62866607       4.27588666        7       0.00000000       0.01265342      -0.03486571      -0.09080516
Ni       8.99722798       3.64040981       4.27036243        7       1.00000000       0.02685682      -0.00152579      -0.13952748
Ni       2.58673859       5.71539740       4.31071639        7       1.00000000       0.04500771      -0.08362620      -0.04098704
Ni       5.13848920       5.77116685       4.27312428        7       1.00000000       0.06565123      -0.02728295      -0.13727749
Ni       7.65511767       5.78691630       4.31324345        7       1.00000000      -0.08065801       0.00899612      -0.07230171
Ni      10.24495059       5.72817798       4.34486893        7       1.00000000      -0.00057769       0.02432614      -0.04306779
Pt       3.92080162       7.90144303       4.22280284        6       0.00000000       0.06710331       0.04760846      -0.04460047
Ni       6.39754748       7.95882290       4.19959666        6       1.00000000      -0.02518247      -0.00293438      -0.17021710
Pt       8.86450389       7.96765630       4.20194636        6       0.00000000      -0.08610426      -0.00342439      -0.08959331
Pt      11.56381624       7.94792937       4.20519780        6       0.00000000       0.06926100      -0.09743954      -0.18697701
Pt       0.02840196      -0.09406622       6.51022974       10       0.00000000      -0.05232886       0.14092850       0.28426411
Pt       2.54226460      -0.09230548       6.52227482       10       0.00000000       0.07458510       0.14074305       0.24204874
Pt       5.12183795      -0.07687182       6.38823018        9       0.00000000      -0.12583451       0.27528316       1.44282963
Pt       7.68562652      -0.09349173       6.54266092       10       0.00000000       0.08468606       0.20013178       0.46487585
Ni       1.28513025       2.20731062       6.39440856        9       1.00000000      -0.02143036       0.05532323      -0.19026420
Pt       3.82436982       2.25751627       6.31717586        8       0.00000000       0.01302420      -0.10259060       0.50536422
Ni       6.40684505       2.18648999       6.34148686        8       1.00000000      -0.00589242      -0.03091272       0.24759403
Pt       8.98078261       2.25436874       6.31197210        8       0.00000000      -0.00779720      -0.12869621       0.77268647
Ni       2.52698548       4.37173708       6.37013201        9       1.00000000       0.02615263      -0.02604846      -0.24618651
Ni       5.13135088       4.38188084       6.32231853        8       1.00000000      -0.06501401       0.02327263       0.12163780
Ni       7.67823411       4.38531850       6.39840332        9       1.00000000      -0.01677359      -0.05776840      -0.20774095
Ni      10.27844177       4.37574176       6.38484379        9       1.00000000      -0.01160908      -0.05165929      -0.25405637
Ni       3.84680414       6.41454133       6.38922457        9       1.00000000      -0.00311656      -0.04786408      -0.23133299
Ni       6.40839114       6.43617096       6.37668418        9       1.00000000      -0.03125554       0.05679249      -0.30231929
Ni       8.96196078       6.41537609       6.38559497        9       1.00000000       0.01577528       0.04787011      -0.20026070
Ni      11.52675852       6.42605944       6.39323489        9       1.00000000      -0.00658625       0.08988296      -0.18083903
