64
Lattice="10.184694985562354 0.013614062376949204 -0.015264990636748625 5.104137616648377 8.766782107456164 -0.006956379273991393 0.0 0.0 21.44859586331536" Properties=species:S:1:pos:R:3:tags:I:1:initial_magmoms:R:1:forces:R:3 unique_id=4e2d4e6f87694cd1a73118781e6af7b7 energy=-369.39410185278695 stress="0.005154581719502082 1.2134541979232221e-05 -0.00011341275725681414 1.2134541979232221e-05 0.004373388285619784 0.00016219325760141932 -0.00011341275725681414 0.00016219325760141932 -0.0019213329510054042" pbc="T T T"
Ni       0.01027987       0.02121967       0.15418867        2       1.00000000       0.13703527      -0.00944483      -0.33319270
Ni       2.53562167       0.00276257       0.17797940        2       1.00000000      -0.03772602       0.01808543      -0.13237553
Ni       5.09183385      -0.00291133       0.12716652        1       1.00000000       0.00023232       0.19161031      -0.40868470
Ni       7.64286392      -0.00110729       0.11390286        1       1.00000000      -0.04386806       0.09600494      -0.55426154
Ni       1.23562996       2.20251852       0.08602475        1       1.00000000      -0.02359399       0.02865040       0.35351678
Pt       3.76411193       2.21216510       0.14134186        1       0.00000000      -0.00927663      -0.01105429      -0.48204301
Pt       6.41957126       2.21842439       0.06673152        1       0.00000000       0.00956445      -0.04051290      -0.08446461
Ni       8.95432692       2.24285210       0.10595588        1       1.00000000       0.00478472       0.14941775      -0.20716618
Ni       2.53911089       4.41208636       0.03555871        0       1.00000000       0.00780585      -0.00044668       0.17179702
Ni       5.07878850       4.40939652       0.07056048        1       1.00000000      -0.07157916      -0.01114109       0.22818639
Ni       7.68570890       4.39655281       0.07322890        1       1.00000000       0.11762335       0.04784126       0.22426053
Ni      10.17680347       4.38145939       0.03444601        0       1.00000000      -0.07518771      -0.00660770       0.23485541
Ni       3.81649177       6.55449683       0.03449241        0       1.00000000       0.08141511      -0.06115989       0.02956233
Pt       6.36834236       6.57008870       0.05554128        1       0.00000000       0.03159077       0.08570285      -0.03058371
Ni       8.92012829       6.55841473       0.11615700        1       1.00000000      -0.13434873      -0.15289322      -0.39253681
Ni      11.46354056       6.56944304       0.00000000        0       1.00000000      -0.06005717      -0.05213606      -0.00310224
Ni       1.30848142       0.74779878       2.16884251        4       1.00000000       0.06608342       0.06704951       0.19337623
Ni       3.78754883       0.76845677       2.18136502        4       1.00000000      -0.01967123       0.08278407       0.18749096
Ni       6.33977419       0.78407834       2.19201135        4       1.00000000      -0.06511913       0.14099400       0.31913512
Pt       8.94790162       0.82347056       2.14330831        3       0.00000000      -0.03508075       0.05968364       0.07716109
Ni       2.53907687       2.89245829       2.21767981        4       1.00000000       0.02505907      -0.10523347       0.17711001
Ni       5.08682986       2.94693290       2.19194436        4       1.00000000      -0.05747497       0.00704849       0.10095426
Ni       7.65044050       2.98358252       2.16564146        4       1.00000000       0.01448669       0.10809184       0.12977844
Ni      10.19045907       2.93447582       2.15092978        4       1.00000000       0.04400148      -0.02604251       0.18876766
Ni       3.87541466       5.07196363       2.15200000        4       1.00000000       0.09513944      -0.13164007       0.02520156
Ni       6.37097073       5.11310411       2.15616555        4       1.00000000      -0.00562553       0.01588553       0.02343088
Ni       8.86656819       5.08350998       2.15060061        4       1.00000000      -0.07915319      -0.06630823       0.12723721
Pt      11.45612814       5.02563395       2.15110731        4       0.00000000       0.04451433      -0.14191350       0.09313285
Ni       5.14829097       7.28127089       2.16675089        4       1.00000000       0.08922667      -0.09017847       0.14840904
Ni       7.59530349       7.30394160       2.15714340        4       1.00000000      -0.10818891      -0.06031107       0.19370858
Pt      10.15019145       7.31402444       2.10890303        3       0.00000000      -0.10005025      -0.02689164       0.09817028
Pt      12.76961437       7.27827327       2.09914698        3       0.00000000       0.14698767      -0.08919801       0.00372145
Ni       0.04367630       1.50853365       4.27078690        6       1.00000000       0.09637668       0.05526152      -0.07288561
Ni       2.49815883       1.51073509       4.22335176        5       1.00000000      -0.06526615       0.03580356      -0.13644204
Ni       5.09867933       1.48228988       4.22011804        5       1.00000000      -0.04199890      -0.02627648      -0.27252810
Ni       7.62109549       1.48346988       4.25536462        6       1.00000000       0.01391542      -0.02582593      -0.14343591
Ni       1.27522034       3.63861354       4.31734303        6       1.00000000       0.02835420      -0.06600926      -0.01730643
Ni       3.78537563       3.70124016       4.22039641        5       1.00000000      -0.04308276       0.03546212      -0.24768696
Pt       6.36028194       3.67872061       4.25281201        6       0.00000000      -0.00367830      -0.02426173       0.02157120
Ni       8.94333182       3.69384632       4.23407585        5       1.00000000       0.05857381       0.03161875      -0.20672714
Ni       2.54042284       5.78947803       4.32829590        6       1.00000000      -0.02303641      -0.06965761      -0.07564996
Ni       5.09422135       5.82657903       4.27512702        6       1.00000000       0.00953685      -0.06914579      -0.22678242
Ni       7.62371212       5.83458408       4.24104846        5       1.00000000       0.01368847       0.00978088      -0.27031776
Ni      10.21114720       5.79778085       4.28513680        6       1.00000000       0.00389418      -0.04848598      -0.06704707
Pt       3.85543145       7.98299914       4.26064794        6       0.00000000       0.05970813      -0.01095095       0.21177620
Ni       6.36848611       8.01839513       4.21960910        5       1.00000000      -0.01131008       0.00401501      -0.25275958
Pt       8.87389346       8.05218035       4.21018385        5       0.00000000      -0.07285229       0.06966328       0.06688358
Ni      11.46214515       8.02870532       4.24832827        5       1.00000000      -0.03297335      -0.04696039      -0.15919734
Pt       0.00304463      -0.03350639       6.44859586        8       0.00000000       0.01518201       0.03508092       0.40800367
Pt       2.51428174       0.01287540       6.43314108        8       0.00000000       0.01352495       0.03300923       0.36566857
Pt       5.10513078       0.00633590       6.41458563        8       0.00000000       0.01631863       0.09309663       0.41381339
Pt       7.62285116      -0.03328930       6.42359410        8       0.00000000      -0.02012696       0.10555668       0.46470477
Ni       1.26587934       2.25972385       6.37269821        8       1.00000000       0.05290725       0.05106551      -0.18708644
Pt       3.80544398       2.31649332       6.29319415        7       0.00000000       0.01262890       0.06472501       0.44173402
Ni       6.36127581       2.24227430       6.31451570        7       1.00000000      -0.02016353      -0.01689925       0.28467600
Pt       8.91606558       2.30336138       6.37224788        8       0.00000000      -0.02991188      -0.06229742       0.04184858
Ni       2.51928831       4.43186420       6.36822659        8       1.00000000       0.04896005      -0.04434364      -0.29605429
Ni       5.09361368       4.44205254       6.38417092        8       1.00000000      -0.03387575       0.01465536      -0.26011170
Ni       7.58696865       4.39143772       6.38773986        8       1.00000000      -0.11630056      -0.00850812      -0.12349848
Ni      10.25260790       4.38742090       6.36208353        8       1.00000000       0.10428779      -0.01740160      -0.23862589
Ni       3.81398700       6.48398107       6.38663828        8       1.00000000       0.03647120      -0.08147750      -0.18799602
Ni       6.33650695       6.51314392       6.29083283        7       1.00000000      -0.00042717       0.00400526       0.02008700
Pt       8.91934271       6.44612931       6.40894343        8       0.00000000      -0.04001841      -0.07922081       0.15629852
Ni      11.49168537       6.51264812       6.35870781        8       1.00000000      -0.01885520       0.03918634      -0.15547942
