64
Lattice="10.3805440039388 -0.008609385192438224 0.0017020160686921995 5.182816055681785 8.896221368695153 -0.02314002406734174 0.0 0.0 21.60741624906613" Properties=species:S:1:pos:R:3:tags:I:1:initial_magmoms:R:1:forces:R:3 unique_id=3fe245c60fbb45708af7325efb58aafe stress="0.005647452454572116 5.431499887713732e-06 0.0002411927426718176 5.431499887713732e-06 0.0052034172160688365 -0.00013534105215802175 0.0002411927426718176 -0.00013534105215802175 -0.003349695058955474" energy=-378.07377638251035 pbc="T T T"
Ni       0.01027992       0.00194316       0.15257480        2       1.00000000       0.09433698       0.00303627      -0.21428947
Ni       2.59419027      -0.00034850       0.18267429        2       1.00000000       0.00081870       0.02616588      -0.16539575
Ni       5.17899538      -0.02923990       0.11976027        1       1.00000000      -0.00556142       0.10739263      -0.33374443
Ni       7.77969362      -0.07648222       0.15636852        2       1.00000000      -0.08829605      -0.00935578      -0.23429520
Ni       1.30147691       2.22212899       0.05999774        1       1.00000000      -0.00473446      -0.00675499       0.35470181
Pt       3.80375724       2.17075270       0.04206371        0       0.00000000       0.09841219       0.04065706       0.11704236
Pt       6.49420501       2.12873954       0.04474375        0       0.00000000       0.07067639       0.01017922       0.02016569
Pt       9.18173183       2.21259695       0.05806301        1       0.00000000      -0.02930259       0.10836601      -0.50382409
Ni       2.54729183       4.45892185       0.07073657        1       1.00000000       0.00431552      -0.06091714      -0.15939110
Pt       5.15738667       4.46446337       0.09083772        1       0.00000000       0.21359636      -0.12133120      -0.89414797
Pt       7.86922385       4.50093516       0.02957638        0       0.00000000      -0.05151260      -0.02744065      -0.02335028
Ni      10.42416984       4.47223641       0.00933518        0       1.00000000      -0.00680361      -0.03356547       0.15687525
Ni       3.83488799       6.71745725       0.03847880        0       1.00000000       0.01966337       0.01480638       0.31010478
Pt       6.48683184       6.76654967       0.13541316        1       0.00000000       0.00633457      -0.03086935      -0.57648572
Ni       9.11043617       6.69463880       0.00678825        0       1.00000000      -0.04192171       0.03320381       0.16186978
Ni      11.68981163       6.66661401       0.00000000        0       1.00000000       0.05857357       0.02741978       0.29542129
Ni       1.31383880       0.76738643       2.11996422        3       1.00000000      -0.00381715       0.06940296       0.08322168
Ni       3.87926647       0.75672428       2.17283098        4       1.00000000       0.01157707       0.04559675       0.18664905
Ni       6.47638676       0.76063536       2.19591846        4       1.00000000      -0.02251877       0.12841805       0.18048917
Pt       9.08352903       0.74607341       2.19487453        4       0.00000000      -0.02770398      -0.04003515       0.19143837
Ni       2.56822608       2.92704960       2.15902626        4       1.00000000      -0.02255370      -0.08162396       0.10304315
Ni       5.17838383       2.90494163       2.20660943        4       1.00000000      -0.05055437      -0.07749593       0.15178148
Ni       7.79996743       2.96708303       2.18166168        4       1.00000000      -0.02249915       0.05734533       0.10637814
Ni      10.39479857       2.94103301       2.21382883        4       1.00000000       0.02482971      -0.05556950       0.12683887
Pt       3.85380172       5.17911744       2.18012933        4       0.00000000      -0.04154198       0.02379865       0.14962208
Ni       6.53970638       5.18253017       2.18136737        4       1.00000000       0.08533710      -0.06190237       0.17716158
Ni       9.04808286       5.15709313       2.19488607        4       1.00000000      -0.08553522      -0.10437209       0.11326555
Pt      11.62660472       5.11187808       2.13043110        3       0.00000000      -0.08873374      -0.04243854       0.06225724
Ni       5.17119156       7.41945053       2.13506551        3       1.00000000      -0.10559423      -0.00490933       0.18378390
Ni       7.79037894       7.40775314       2.15554304        4       1.00000000       0.03551893      -0.00154668       0.18880319
Pt      10.34780684       7.41582487       2.05559004        3       0.00000000      -0.00875018      -0.02754070       0.05114100
Ni      12.96281296       7.39758993       2.11324138        3       1.00000000      -0.01798430       0.00086274       0.13176805
Ni       0.00703091       1.55053164       4.29994484        6       1.00000000       0.05121328      -0.00033981      -0.17476904
Pt       2.58989737       1.58255586       4.27950599        6       0.00000000      -0.01113483       0.01134465      -0.01938098
Ni       5.19004597       1.50415954       4.30730090        6       1.00000000      -0.03236825       0.03911629      -0.19986401
Ni       7.79256090       1.48443865       4.30161205        6       1.00000000      -0.00158841      -0.08544854      -0.26340441
Ni       1.26621483       3.67850469       4.31636933        6       1.00000000      -0.07134833      -0.00923866      -0.14152103
Ni       3.87325231       3.68672113       4.29751155        6       1.00000000       0.01344620      -0.00105098      -0.26655249
Pt       6.55025486       3.62512116       4.24591856        5       0.00000000       0.08960681      -0.03255174      -0.23653577
Ni       9.09342321       3.67124690       4.25399940        6       1.00000000       0.02033891      -0.05022097      -0.34309693
Ni       2.56979946       5.88370549       4.34374503        6       1.00000000      -0.00225812      -0.06555078      -0.10644066
Pt       5.18735114       5.87974072       4.28052912        6       0.00000000      -0.06645393       0.00658070      -0.18939938
Ni       7.80797462       5.86372858       4.28368614        6       1.00000000      -0.00474657      -0.03468916      -0.27685379
Pt      10.36033420       5.81709002       4.39001710        7       0.00000000       0.03301800       0.01680454       0.03147582
Pt       3.86938868       8.14846868       4.30197884        6       0.00000000       0.04139329       0.05627126      -0.04864920
Pt       6.47983404       8.18158887       4.19648130        5       0.00000000      -0.06340264       0.15969644      -0.19538303
Pt       9.06300386       8.14221290       4.28364964        6       0.00000000      -0.04275557       0.01935730      -0.07176409
Pt      11.68034863       8.16418857       4.25918070        6       0.00000000      -0.04897463      -0.00622326      -0.06380786
Pt       0.00955664       0.00528359       6.57593569       10       0.00000000       0.04334469       0.16526785       0.22547839
Pt       2.61287134       0.04358914       6.60741625       10       0.00000000       0.01745320      -0.02974394       0.18033625
Pt       5.19324807      -0.00886556       6.56529056       10       0.00000000      -0.03033199       0.18666084       0.26981674
Pt       7.77161157      -0.05027776       6.59734501       10       0.00000000       0.00904037       0.27798423       0.23138654
Ni       1.28259447       2.25139989       6.47444965        9       1.00000000      -0.08534959      -0.01155289      -0.22541629
Ni       3.88782066       2.22203255       6.40404478        8       1.00000000       0.03259055      -0.06668512       0.09547462
Ni       6.49981862       2.19791418       6.39890140        8       1.00000000       0.03485812      -0.14310500       0.08067074
Pt       9.08608750       2.30334374       6.35754327        8       0.00000000      -0.03454437      -0.16202532       0.50759790
Pt       2.51323647       4.43203151       6.47826815        9       0.00000000       0.10980524      -0.06843127      -0.16875948
Pt       5.18072099       4.34124929       6.42476976        8       0.00000000      -0.09058957      -0.06513520       0.82914235
Ni       7.82254997       4.43682467       6.38756552        8       1.00000000       0.01225277       0.06892906      -0.01860385
Ni      10.36146779       4.44405449       6.49212517        9       1.00000000      -0.01744125      -0.06114306      -0.18422190
Ni       3.85929514       6.63010888       6.48654835        9       1.00000000       0.02754146      -0.08923886      -0.12925663
Pt       6.54991304       6.60244046       6.44322376        8       0.00000000       0.13575764      -0.04233993       0.62895003
Ni       9.11501035       6.59312485       6.49089047        9       1.00000000      -0.06961316       0.03003030      -0.11005871
Ni      11.65958768       6.62238942       6.49551821        9       1.00000000       0.00316939       0.07768837      -0.14548930
