64
Lattice="10.281814526179735 -0.024147610383236113 0.002768560695313141 5.119994819057297 8.867925516571137 -0.006141756732691231 0.0022605203418140695 -0.007095615806633754 8.811485463509143" Properties=species:S:1:pos:R:3:tags:I:1:initial_magmoms:R:1:forces:R:3 unique_id=56dfe51946884b44beca4df2c44b565d stress="0.00023654942260285805 4.840021917626393e-06 -2.5277086405175602e-05 4.840021917626393e-06 0.00023856945726846018 -4.785066108103667e-06 -2.5277086405175602e-05 -4.785066108103667e-06 0.00023213907237815828" energy=-396.9787460000797 pbc="T T T"
Ni       0.01471180      -0.00942612       0.17209858        4       1.00000000       0.04266730       0.01637545       0.27425646
Ni       2.53536190       0.00645245       0.20648449        4       1.00000000      -0.07762672       0.07116445       0.42438801
Pt       5.12813937      -0.04634015       0.13572966        4       0.00000000      -0.05665473      -0.09378486       0.25600214
Ni       7.73239079      -0.07765409       0.18941035        4       1.00000000       0.01824472      -0.08357386       0.35379833
Ni       1.28486618       2.22344014       0.10255027        4       1.00000000       0.00639282       0.04598464       0.25155159
Pt       3.76444114       2.26964722       0.10273906        4       0.00000000      -0.02672971       0.10883597      -0.13920738
Pt       6.41466983       2.22081746       0.10879869        4       0.00000000       0.02362489       0.10574743      -0.00659166
Pt       9.08224058       2.20326884       0.13750806        4       0.00000000       0.09369203      -0.01183521       0.25602255
Ni       2.55742004       4.46427289       0.05768772        4       1.00000000       0.06925192       0.11446519      -0.05530533
Ni       5.08592350       4.45967827       0.09923455        4       1.00000000      -0.09622883       0.12043812       0.22615453
Pt       7.73426092       4.47595177       0.10561564        4       0.00000000       0.02197175       0.09673326      -0.07043274
Ni      10.32125228       4.43638552       0.07579296        4       1.00000000       0.13397561       0.07417911       0.12244553
Ni       3.80136219       6.63834208       0.10155277        4       1.00000000      -0.09785235      -0.03844687       0.21286409
Pt       6.35966984       6.69119518       0.17950437        4       0.00000000      -0.09832664       0.02836244       0.04268904
Ni       8.98965863       6.62391316       0.16865684        4       1.00000000      -0.06523016       0.00663399       0.32194256
Ni      11.58779015       6.60122435       0.07261831        4       1.00000000       0.09309621      -0.01803313       0.06317910
Ni       1.30615241       0.73504580       2.20330733        3       1.00000000       0.04046846       0.01131655       0.06824958
Ni       3.82684257       0.76746078       2.22363035        3       1.00000000       0.03666543       0.07063970       0.00162691
Ni       6.41537771       0.75579796       2.23206297        3       1.00000000      -0.11326688       0.04718096       0.01707212
Pt       9.04346113       0.67843889       2.22361789        3       0.00000000       0.10985818       0.08809216      -0.05061605
Ni       2.56682579       2.94531256       2.22664708        3       1.00000000       0.06395377       0.02799807      -0.00191367
Ni       5.10833099       2.97065893       2.24482182        3       1.00000000      -0.14580523       0.06624612       0.04049972
Ni       7.70282614       2.98144473       2.24217114        3       1.00000000       0.03687539       0.09877860      -0.03372970
Ni      10.30323717       2.93344681       2.26199644        3       1.00000000       0.06891084      -0.07401337       0.18862046
Ni       3.88216805       5.16283647       2.21337307        3       1.00000000       0.13907498      -0.06293633       0.04978387
Ni       6.39313075       5.16844122       2.25055634        3       1.00000000      -0.06878336       0.08140059      -0.03430406
Ni       8.95262737       5.12402724       2.23912742        3       1.00000000      -0.07331230      -0.16833811       0.14273540
Pt      11.62288064       5.07886560       2.17529965        3       0.00000000       0.18175877      -0.12654342       0.04829775
Ni       5.13365926       7.35004417       2.23501899        3       1.00000000       0.06609068      -0.19926255       0.07297641
Ni       7.64914930       7.38107849       2.22670851        3       1.00000000      -0.18086023      -0.06303167       0.04370721
Pt      10.24405976       7.32257508       2.19654355        3       0.00000000      -0.00043511      -0.01452308      -0.22872683
Ni      12.87004611       7.32852725       2.16794963        3       1.00000000       0.10263518      -0.22603111      -0.00218489
Ni       0.03051790       1.51635116       4.35466322        2       1.00000000      -0.00065786       0.05931006      -0.07414124
Pt       2.53549111       1.56738976       4.31722303        2       0.00000000       0.01601588      -0.05685586       0.00909310
Ni       5.11038447       1.52001191       4.35129565        2       1.00000000      -0.11289274       0.10224705      -0.24407565
Pt       7.69959823       1.51205313       4.32663908        2       0.00000000      -0.01582164      -0.00210570       0.11682617
Ni       1.28867249       3.68317872       4.40488417        2       1.00000000       0.03026800      -0.00529235      -0.02576782
Ni       3.83167754       3.73200158       4.38509519        2       1.00000000      -0.10713194       0.13876139      -0.17020358
Pt       6.36030660       3.75234423       4.35433512        2       0.00000000      -0.04992142      -0.02282387      -0.09237964
Ni       9.00017398       3.68676400       4.33213188        2       1.00000000      -0.07179270      -0.07323316      -0.28490857
Ni       2.60096405       5.83608120       4.40571052        2       1.00000000       0.06731082      -0.20209427      -0.07106777
Ni       5.10053898       5.86943556       4.33018665        2       1.00000000      -0.06890039      -0.08394515      -0.22739657
Ni       7.67372694       5.87870831       4.32374556        2       1.00000000      -0.04712408       0.01088627      -0.21910126
Pt      10.28375102       5.76950169       4.38713466        2       0.00000000      -0.02447092      -0.03136126       0.10775172
Pt       3.91482973       8.02900399       4.33444390        2       0.00000000       0.01520468      -0.10200792       0.23427607
Ni       6.40345326       8.10373371       4.31587326        2       1.00000000      -0.05056828      -0.00967745      -0.15616244
Pt       8.88946185       8.11409305       4.30119871        2       0.00000000      -0.02409473       0.01089105       0.12303561
Pt      11.57656024       8.07017504       4.31601114        2       0.00000000       0.04102595      -0.05150168       0.05906269
Pt       0.00946648       0.01541630       6.56378926        1       0.00000000       0.03729982       0.05162019       0.07653006
Pt       2.56397397       0.06370150       6.59329653        1       0.00000000      -0.00931642       0.10596015       0.22123752
Pt       5.14425782       0.05698973       6.47378813        1       0.00000000       0.04932648       0.14428036      -0.42565175
Pt       7.71422188      -0.07428409       6.61586683        1       0.00000000      -0.04969373      -0.06194227       0.18678335
Ni       1.31017210       2.29348954       6.52216015        1       1.00000000       0.13910468       0.21519476      -0.12642912
Ni       3.85111496       2.29404813       6.45160151        1       1.00000000      -0.02911252       0.23945810      -0.27523869
Ni       6.39492251       2.25909485       6.46264098        1       1.00000000      -0.04587046       0.15076550      -0.20229000
Pt       9.03139238       2.30921692       6.46053895        1       0.00000000       0.01575164       0.11323319      -0.32890938
Ni       2.56781539       4.43356879       6.50754550        1       1.00000000       0.03959001      -0.03787623      -0.23356153
Ni       5.07917849       4.39068803       6.51888378        1       1.00000000      -0.22289351      -0.07033520      -0.11667681
Ni       7.68392233       4.39747475       6.45188033        1       1.00000000      -0.07582681      -0.01467570      -0.28255117
Ni      10.34262590       4.40051056       6.53518495        1       1.00000000       0.30787230       0.00517433      -0.08497117
Ni       3.80568980       6.56274707       6.52632947        1       1.00000000      -0.07219397      -0.27150229      -0.10356523
Pt       6.35267308       6.54549607       6.43271975        1       0.00000000      -0.10742902      -0.08927587      -0.24897027
Pt       9.01526653       6.54047701       6.58679112        1       0.00000000       0.06255048      -0.08705010       0.13142022
Ni      11.59591976       6.55744393       6.54772391        1       1.00000000       0.11629573      -0.17444529      -0.12784792
