64
Lattice="10.554481519702342 -0.008869744041698626 0.005073132146415557 5.269559336185996 9.15210099001335 -0.027142490545288923 0.0 0.0 21.8303001384538" Properties=species:S:1:pos:R:3:tags:I:1:initial_magmoms:R:1:forces:R:3 unique_id=3ccc4a567504433b86bfd921a2e4521e stress="0.0025690173276836144 3.0304251011082115e-05 -5.697988381811645e-05 3.0304251011082115e-05 0.0030342350352607385 -0.00019783211701185306 -5.697988381811645e-05 -0.00019783211701185306 -0.0037909517775833197" energy=-391.657049354823 pbc="T T T"
Ni       0.01860431       0.00785910       0.05552199        1       1.00000000      -0.05093540      -0.02947178       0.28910408
Ni       2.63877246       0.00934997       0.14756711        1       1.00000000       0.09479983       0.02174836       0.01743420
Pt       5.20852064       0.01361274       0.05329261        1       0.00000000      -0.01617096       0.09671178       0.09820032
Pt       7.91988167      -0.03536572       0.10331313        1       0.00000000      -0.11913022       0.05837216      -0.46534010
Pt       1.38029930       2.25099210       0.00000000        0       0.00000000      -0.03617162       0.07528007       0.08328707
Ni       3.93677334       2.27523192       0.14667001        1       1.00000000       0.01895452      -0.05189628       0.11350735
Pt       6.57650130       2.27471883       0.10290104        1       0.00000000       0.08412593      -0.07014654      -0.46413861
Pt       9.28850996       2.26262103       0.02971318        0       0.00000000       0.12164955       0.03983042       0.11687548
Ni       2.62429600       4.56801548       0.12917323        1       1.00000000      -0.03630769       0.03556053       0.05528451
Pt       5.21639306       4.54222699       0.10749329        1       0.00000000       0.11602829       0.10713738      -0.49958636
Pt       7.92869054       4.58360551       0.14380616        1       0.00000000      -0.04016448       0.17114973      -0.33378399
Pt      10.63145710       4.59082946       0.08968279        1       0.00000000       0.06781059      -0.09247493       0.22128218
Pt       3.90611419       6.84398443       0.07899509        1       0.00000000      -0.03013618      -0.09318646      -0.88784276
Pt       6.58695664       6.92589992       0.09927597        1       0.00000000      -0.05445544      -0.21728294      -0.78550256
Pt       9.26023356       6.86941704       0.00219662        0       0.00000000      -0.04198464      -0.12137727      -0.10759067
Ni      11.86712033       6.83967610       0.11837249        1       1.00000000       0.04297684       0.00367290       0.05407752
Pt       1.33898576       0.78107961       2.26754668        2       0.00000000       0.03139936      -0.01096462       0.11401563
Ni       3.95023093       0.75625470       2.27392912        2       1.00000000       0.02264720       0.01984174       0.24345812
Pt       6.58171888       0.74657135       2.37470597        3       0.00000000       0.02602484       0.06478260       0.35436471
Pt       9.26919616       0.82212297       2.35150163        3       0.00000000       0.08441497       0.16330866       0.19043103
Pt       2.60214368       3.05944957       2.26673663        2       0.00000000      -0.08345507      -0.00786610       0.09863205
Pt       5.27058853       3.04891561       2.35449306        3       0.00000000       0.01036950      -0.06395763       0.33221259
Pt       7.96498953       3.11621231       2.42842257        3       0.00000000       0.03830438       0.07709484       0.29994458
Ni      10.55391951       3.08105258       2.31816161        2       1.00000000      -0.01980581       0.11768560       0.16877448
Pt       3.91779349       5.30002079       2.29898425        2       0.00000000      -0.13926191      -0.02355244       0.26886346
Ni       6.61066973       5.31601267       2.28664455        2       1.00000000       0.00826431      -0.01109688       0.31421982
Ni       9.26242465       5.30405955       2.29966686        2       1.00000000       0.13570990      -0.03329351       0.22264640
Ni      11.83574570       5.29404356       2.26419438        2       1.00000000      -0.09862466      -0.07625706       0.22255626
Pt       5.27130239       7.61922700       2.28627851        2       0.00000000      -0.09642423       0.12596126       0.23203522
Pt       7.94835375       7.59756600       2.28426535        2       0.00000000       0.13022095      -0.01293459       0.20159176
Pt      10.54326644       7.56310340       2.29563571        2       0.00000000      -0.03335388      -0.10988166       0.12910613
Pt      13.13572482       7.57869174       2.30098646        2       0.00000000      -0.06018571      -0.04610713       0.33364346
Ni      -0.04143352       1.55037206       4.57472557        6       1.00000000      -0.11271166       0.03745126      -0.09423339
Pt       2.63192559       1.55252651       4.52838814        5       0.00000000       0.02133414       0.08375916      -0.22447812
Pt       5.31539771       1.52503713       4.53639499        5       0.00000000       0.00370586       0.02611643      -0.10658561
Ni       7.95288657       1.55250390       4.55214681        6       1.00000000       0.10388678       0.19315548      -0.27599564
Pt       1.22332986       3.74903505       4.52194649        5       0.00000000      -0.10816812      -0.10526673      -0.19879922
Ni       3.95374340       3.78341677       4.53024996        5       1.00000000      -0.06438844      -0.01965346      -0.25128026
Ni       6.62448437       3.77386543       4.51880054        5       1.00000000       0.02591923      -0.09397937      -0.29653675
Ni       9.23677896       3.73723430       4.53257953        5       1.00000000       0.01608451      -0.19967513      -0.15018471
Pt       2.60180791       6.06489586       4.50193644        5       0.00000000      -0.04878574      -0.06328900      -0.23117245
Pt       5.29476355       6.01006618       4.46533768        5       0.00000000      -0.03334898      -0.04019379      -0.37259903
Pt       7.93072302       5.99574674       4.44901747        4       0.00000000       0.02626887      -0.08595046      -0.43477680
Pt      10.52968332       6.03383329       4.51476332        5       0.00000000      -0.09221013      -0.09813516      -0.18979294
Pt       3.93035534       8.46518843       4.50882333        5       0.00000000       0.01801931       0.06313874      -0.22577626
Pt       6.56459645       8.42874674       4.52543972        5       0.00000000      -0.06938121       0.09260060      -0.19377989
Pt       9.27482372       8.37585294       4.55467937        6       0.00000000      -0.02638761      -0.07785826      -0.17740351
Ni      11.86777628       8.38139974       4.54005891        5       1.00000000       0.00151868      -0.01560927      -0.27543806
Ni       0.00775921       0.03447978       6.76719051        8       1.00000000       0.02115519       0.11681986      -0.39236633
Pt       2.63248466      -0.00496104       6.83030014        8       0.00000000      -0.05012498       0.02731904       0.12713884
Ni       5.27830377      -0.02922369       6.70623490        7       1.00000000       0.06910894       0.03489881       0.03275597
Pt       7.92699160       0.02323402       6.68677762        7       0.00000000      -0.13230152       0.13531455       0.56801498
Ni       1.26423925       2.25528302       6.68566711        7       1.00000000      -0.15102099      -0.07376907      -0.14214213
Pt       3.94315461       2.24321049       6.79840270        8       0.00000000      -0.01333603       0.05653530       0.09478139
Pt       6.64950270       2.25643774       6.67420438        7       0.00000000       0.28471409       0.14511362       0.59785762
Ni       9.28661036       2.25358895       6.65629276        7       1.00000000       0.10687449       0.00672733      -0.33613418
Pt       2.56468323       4.51984306       6.78261484        8       0.00000000      -0.05938981      -0.03671961      -0.02541434
Pt       5.28423523       4.53314411       6.66851659        7       0.00000000       0.10158880      -0.15623183       0.56444607
Pt       8.02753628       4.53020223       6.67503316        7       0.00000000       0.10714742      -0.12558700       0.23940904
Ni      10.54587787       4.52744589       6.69936556        7       1.00000000      -0.03167521      -0.08651215      -0.22863627
Pt       3.95632819       6.88649347       6.69546768        7       0.00000000      -0.06204767       0.03753835       0.74139533
Pt       6.62919485       6.86136073       6.69773817        7       0.00000000       0.15047200      -0.01286117       0.64763643
Ni       9.24041506       6.83960368       6.68336031        7       1.00000000      -0.09663064      -0.00692590       0.03083929
Pt      11.77949281       6.85747165       6.77351449        8       0.00000000       0.01697737       0.13533860      -0.05251240
