64
Lattice="10.221110409947281 0.013648846253945654 -0.04618165267216957 5.12237545256191 8.798707894996468 -0.08559020151020956 -0.03770716150841845 -0.0589249760073948 8.73282294344493" Properties=species:S:1:pos:R:3:tags:I:1:initial_magmoms:R:1:forces:R:3 unique_id=b95348e5d6614265a9a546cac52af93d stress="-8.263649437167259e-05 -3.283018244635973e-06 4.595161051809549e-07 -3.283018244635973e-06 -5.855891532621782e-05 2.4346295499466476e-05 4.595161051809549e-07 2.4346295499466476e-05 -2.479488625817955e-05" energy=-392.96997417327185 pbc="T T T"
Ni       0.03242685      -0.04854003       0.18403000        4       1.00000000       0.09033097      -0.08808072       0.30568208
Ni       2.49475030      -0.03527253       0.19074939        4       1.00000000      -0.11529192      -0.06054279       0.32982754
Pt       5.09893753      -0.06183883       0.12220974        4       0.00000000      -0.09144977      -0.20164898       0.34420504
Ni       7.68572800      -0.04977150       0.13775311        4       1.00000000       0.00611494      -0.04354207       0.29134117
Ni       1.26976797       2.20118676       0.09045346        4       1.00000000       0.00000799       0.00023051       0.26956685
Pt       3.73055683       2.21311175       0.15354661        4       0.00000000      -0.13052316       0.03359687       0.23191996
Pt       6.42128787       2.22140371       0.06217411        4       0.00000000       0.04538988       0.07050369      -0.00261377
Pt       9.02355223       2.25153833       0.07067773        4       0.00000000       0.04564553       0.01881476       0.15255155
Ni       2.51882375       4.42681931       0.02441734        4       1.00000000      -0.04389938       0.03972783       0.01891095
Pt       5.10684060       4.51376086       0.03904870        4       0.00000000      -0.06086153       0.18485761      -0.11596869
Ni       7.69727393       4.46165917       0.04029423        4       1.00000000       0.00510343       0.11363125       0.23970432
Ni      10.24016003       4.43687156      -0.00217155        4       1.00000000       0.02358580       0.13641540       0.09745615
Ni       3.81606958       6.63205429       0.03780119        4       1.00000000      -0.07459105       0.12869247       0.17553426
Ni       6.41237943       6.63574241       0.03742199        4       1.00000000       0.01731176       0.07618425       0.12681063
Ni       8.90931150       6.54979680       0.08279776        4       1.00000000      -0.12484289      -0.10337592       0.29019052
Ni      11.53751075       6.56288021      -0.02397096        4       1.00000000       0.03265152      -0.09115962       0.06356339
Ni       1.29556150       0.72248951       2.19972515        3       1.00000000      -0.00651927       0.00124985       0.17093051
Ni       3.75881560       0.73171379       2.19276024        3       1.00000000      -0.15665726      -0.09096389      -0.05665094
Ni       6.40527547       0.73981878       2.19185805        3       1.00000000       0.08916374      -0.06523804      -0.02888900
Pt       8.95896554       0.72358755       2.18400362        3       0.00000000       0.09311724       0.14836120      -0.06408641
Ni       2.52931043       2.89566672       2.23902008        3       1.00000000       0.03493756      -0.14511819       0.21307412
Ni       5.09469323       2.96173669       2.17706454        3       1.00000000      -0.07438699       0.22815719      -0.10779557
Ni       7.67190314       2.97698608       2.18299304        3       1.00000000       0.12216567       0.05084118      -0.01312390
Ni      10.24343391       2.93196364       2.19001501        3       1.00000000       0.03306733      -0.08087338       0.17678129
Ni       3.84804359       5.12980109       2.18255499        3       1.00000000       0.07661307       0.04453078       0.15547488
Ni       6.40617577       5.15756491       2.14300123        3       1.00000000       0.02863915       0.11068318      -0.01180033
Ni       8.89770368       5.09225788       2.12816326        3       1.00000000      -0.02790832      -0.10360379       0.12899707
Pt      11.53537186       5.06123686       2.12873422        3       0.00000000       0.11295411      -0.18211456       0.07794338
Ni       5.14703647       7.27421044       2.10098951        3       1.00000000       0.03774087      -0.15125631      -0.00114056
Ni       7.59921119       7.30190338       2.08249689        3       1.00000000      -0.11294175      -0.10081607       0.03595577
Pt      10.22517415       7.27140345       2.14110308        3       0.00000000      -0.00668474      -0.00723716      -0.11550362
Ni      12.79702605       7.29957430       2.05973426        3       1.00000000       0.04468639      -0.15147768      -0.00826784
Ni       0.03727548       1.47281044       4.30428967        2       1.00000000       0.10152772       0.01935751      -0.04039803
Ni       2.47196043       1.47952899       4.26565167        2       1.00000000      -0.05824741       0.06052632      -0.06965123
Pt       5.10452283       1.46882405       4.19379294        2       0.00000000      -0.14620628       0.02408821       0.00628591
Ni       7.65987068       1.45782696       4.26506920        2       1.00000000       0.04903189       0.00658404      -0.09200258
Ni       1.26441099       3.62901746       4.33408351        2       1.00000000       0.02785125      -0.04469600       0.01690617
Ni       3.77313095       3.70887844       4.25375946        2       1.00000000      -0.04193326       0.12694541      -0.20396276
Pt       6.41079668       3.71702336       4.26079969        2       0.00000000       0.01543079      -0.02257549      -0.10933963
Ni       8.97187410       3.68823588       4.22258232        2       1.00000000       0.11556208       0.10592384      -0.21868755
Ni       2.54082989       5.79210063       4.32046277        2       1.00000000      -0.02275927      -0.09744877      -0.04445189
Ni       5.09823626       5.83412397       4.27512818        2       1.00000000       0.03864430      -0.03719152      -0.17781751
Ni       7.63630991       5.83351341       4.23395061        2       1.00000000       0.00104511       0.05599096      -0.18435725
Ni      10.23884366       5.78617102       4.27261150        2       1.00000000       0.04218666      -0.10555685       0.02289884
Pt       3.83404468       7.95534008       4.21385320        2       0.00000000      -0.01657048      -0.11900619       0.12491059
Ni       6.36104025       8.01356417       4.19849685        2       1.00000000      -0.13542847      -0.04656151      -0.16240246
Pt       8.84865381       7.99958177       4.17224577        2       0.00000000      -0.15962716       0.02324063       0.07646320
Ni      11.51554960       7.99203962       4.20043998        2       1.00000000       0.04070831      -0.11509285      -0.04339561
Pt      -0.01538939      -0.07978146       6.50792844        1       0.00000000       0.12845371      -0.05336192       0.13115500
Pt       2.50669513      -0.02883401       6.49185804        1       0.00000000      -0.10365414       0.05546598       0.21659419
Pt       5.10729898      -0.04871819       6.38957296        1       0.00000000       0.10814317       0.02904207      -0.40950434
Pt       7.64157102      -0.07522611       6.46137693        1       0.00000000      -0.08117877      -0.04139414       0.08719159
Ni       1.24917700       2.22549702       6.41925041        1       1.00000000       0.02756745       0.11479613      -0.19069135
Pt       3.77862582       2.29612115       6.36524438        1       0.00000000       0.03001620       0.26322582      -0.27121486
Ni       6.37309674       2.21870135       6.35329228        1       1.00000000      -0.01380158       0.08238048      -0.26310672
Pt       8.93695792       2.27178334       6.29560328        1       0.00000000       0.01813226       0.14857403      -0.38768911
Ni       2.50393201       4.41415716       6.39411461        1       1.00000000      -0.03103090       0.13178901      -0.23625082
Ni       5.09554417       4.42232572       6.33085529        1       1.00000000      -0.03211413       0.14119376      -0.27131508
Ni       7.60466773       4.37241125       6.40761793        1       1.00000000      -0.16124501      -0.00610469      -0.06882398
Ni      10.26884164       4.36979389       6.36585455        1       1.00000000       0.26156074      -0.01527127      -0.22134497
Ni       3.81339771       6.47978029       6.40051244        1       1.00000000       0.01758647      -0.16616614      -0.11356974
Ni       6.34340530       6.50065205       6.38019042        1       1.00000000      -0.01726443      -0.05101829      -0.21103538
Pt       8.92620449       6.43018562       6.40793347        1       0.00000000       0.02315838      -0.14306537       0.14413312
Ni      11.51773544       6.49644729       6.35299254        1       1.00000000       0.06178588      -0.04404202      -0.20610656
