64
Lattice="10.384967979476562 -0.04098087247455305 0.013826832738616561 5.1569935131061255 8.972751641552652 -0.016865466074745664 0.0 0.0 21.6631276478984" Properties=species:S:1:pos:R:3:tags:I:1:initial_magmoms:R:1:forces:R:3 unique_id=bf3ef93b0d834923a37a86ff9224214a energy=-379.98757244225027 stress="0.005782205094285363 -0.0003508440422392852 9.053784930814927e-05 -0.0003508440422392852 0.006060441223430025 -0.000329206611289482 9.053784930814927e-05 -0.000329206611289482 -0.0011421720392457337" pbc="T T T"
Ni       0.04594562       0.02021985       0.13964917        1       1.00000000       0.18847544      -0.02001341      -0.01886662
Ni       2.55336920       0.00005587       0.16621069        2       1.00000000      -0.13479994       0.07058479       0.06718405
Pt       5.10277746      -0.03544329       0.10673287        1       0.00000000      -0.11953394       0.15205257      -0.90573468
Pt       7.86958603      -0.06851082       0.13516899        1       0.00000000       0.00529289      -0.15996488      -0.88046256
Ni       1.25754334       2.24768885       0.06941107        1       1.00000000      -0.12577644      -0.00737369       0.62523486
Pt       3.78818878       2.28859668       0.09284397        1       0.00000000       0.00560490      -0.00320281       0.16354087
Pt       6.48746672       2.28568322       0.13678828        1       0.00000000      -0.04634120       0.11984776      -0.65384981
Ni       9.13068173       2.22947642       0.13953229        1       1.00000000       0.06167765       0.13501092       0.06014407
Ni       2.58269887       4.47018815       0.04196966        0       1.00000000       0.02766952      -0.02041473       0.37576810
Ni       5.13967861       4.49931182       0.14078435        1       1.00000000      -0.05504968       0.11420368       0.21915365
Pt       7.85241948       4.49712213       0.08635440        1       0.00000000      -0.01400091       0.01327977       0.14822683
Ni      10.38068071       4.40811578       0.04938993        0       1.00000000       0.08011967      -0.18076157       0.42233159
Ni       3.88389289       6.69302385       0.13945144        1       1.00000000       0.03251269      -0.13426173       0.20710569
Pt       6.44215758       6.75171882       0.16122016        2       0.00000000      -0.07262240       0.01170008      -0.30017984
Ni       9.04348750       6.69335871       0.04137633        0       1.00000000      -0.07908003       0.02740281       0.19320814
Pt      11.67353958       6.60203096       0.00000000        0       0.00000000       0.17521387       0.05793431      -0.23856617
Ni       1.33188321       0.75402876       2.17531579        3       1.00000000       0.21294501       0.11382423      -0.02468305
Ni       3.83726171       0.76325151       2.22195596        3       1.00000000      -0.10714745       0.08920957       0.20047027
Pt       6.44396812       0.77704407       2.28389931        4       0.00000000      -0.13397076       0.12565026       0.12245643
Pt       9.21183109       0.75424041       2.21798004        3       0.00000000       0.17678680       0.13714248       0.07035339
Ni       2.59272251       2.96997215       2.20979616        3       1.00000000       0.03297124      -0.02644819       0.17477025
Ni       5.13680898       3.02569638       2.23762907        3       1.00000000      -0.22600204       0.18240477       0.23151284
Ni       7.81634018       3.02304542       2.22779232        3       1.00000000       0.13582315       0.17223864       0.21137948
Ni      10.38305132       2.95291565       2.19920897        3       1.00000000       0.15261411       0.09350660       0.06788060
Ni       3.91292530       5.21885203       2.21049642        3       1.00000000       0.13314770      -0.06173495       0.15240683
Ni       6.45783688       5.22026852       2.22664273        3       1.00000000      -0.09152997       0.06510990       0.20623084
Ni       9.03663511       5.17058540       2.23250118        3       1.00000000      -0.09346799      -0.18847266       0.24991837
Pt      11.71637169       5.10995615       2.20368503        3       0.00000000       0.10711225      -0.16436026       0.05114483
Ni       5.16207186       7.42854745       2.19173092        3       1.00000000      -0.11337888      -0.19330482       0.13351613
Ni       7.73566049       7.45199210       2.19152468        3       1.00000000      -0.01451062      -0.06908046       0.07592738
Pt      10.28205250       7.37497775       2.18899872        3       0.00000000      -0.05245307      -0.28263838      -0.12740748
Ni      12.99860208       7.38656422       2.20387902        3       1.00000000       0.06321709      -0.21007606       0.15083192
Ni       0.01882669       1.51291225       4.39086149        6       1.00000000       0.09427336      -0.05358317      -0.17087434
Pt       2.62336491       1.53298402       4.34924593        5       0.00000000      -0.00289618      -0.03552688      -0.17050078
Ni       5.16511422       1.51176450       4.39612811        6       1.00000000      -0.03237092       0.18452334      -0.26530144
Pt       7.84622294       1.53546619       4.36447101        6       0.00000000       0.15180081       0.02873185      -0.06270252
Pt       1.29139451       3.71974253       4.44212656        6       0.00000000      -0.04418783      -0.01603293      -0.01834926
Ni       3.89058802       3.74884249       4.37610380        6       1.00000000       0.04765357       0.13256052      -0.32122332
Pt       6.46000171       3.79528816       4.29248009        5       0.00000000      -0.07286883       0.09204172      -0.19309120
Ni       9.07142259       3.71894955       4.38717356        6       1.00000000      -0.05774408       0.01933997      -0.31584676
Ni       2.60822471       5.92278223       4.38304014        6       1.00000000       0.13689415      -0.24104266      -0.26899001
Ni       5.15254637       5.92814745       4.34249965        5       1.00000000      -0.10722101      -0.06885358      -0.42585566
Ni       7.77350068       5.91708492       4.36978628        6       1.00000000      -0.07504779      -0.02333231      -0.37107915
Pt      10.30699324       5.86947682       4.46590080        7       0.00000000      -0.11629325      -0.05378412      -0.12354419
Pt       3.89184142       8.13890738       4.29814623        5       0.00000000       0.04721002      -0.12786724      -0.15436630
Pt       6.45104713       8.17208777       4.26343211        5       0.00000000      -0.08600858      -0.00422143      -0.27013169
Pt       9.01833739       8.18047410       4.33465045        5       0.00000000      -0.07286839      -0.04986311      -0.14241584
Pt      11.67466649       8.12933909       4.35796413        6       0.00000000       0.08984797      -0.14008373      -0.22130028
Pt       0.03277975       0.03246206       6.62965212        9       0.00000000       0.02889807       0.06089575       0.09448893
Pt       2.61351487       0.02961010       6.66312765       10       0.00000000       0.01586286       0.04221170       0.16889415
Pt       5.17673820      -0.07263818       6.54228738        8       0.00000000       0.03378613       0.12084673       0.90507774
Pt       7.79397104      -0.06177062       6.57579050        9       0.00000000       0.02405344       0.16185415       0.97799484
Ni       1.32367875       2.28334519       6.59539471        9       1.00000000       0.06670399       0.06383016      -0.22367841
Ni       3.85596807       2.24935899       6.52325022        8       1.00000000      -0.02356631      -0.00787490      -0.04226983
Pt       6.46787187       2.24646573       6.53447091        8       0.00000000      -0.02524766      -0.04941244       0.62709192
Pt       9.16696713       2.32448106       6.61678357        9       0.00000000       0.02355310       0.12648636       0.08220589
Ni       2.54145288       4.44513679       6.58041832        9       1.00000000      -0.08006283      -0.02254373      -0.32744629
Pt       5.11175404       4.42604526       6.58731938        9       0.00000000      -0.15071605       0.07476795      -0.04531311
Ni       7.82247782       4.47638379       6.51645907        8       1.00000000       0.10931640       0.09032516      -0.17386385
Ni      10.39467246       4.47324752       6.60658799        9       1.00000000       0.06212529       0.08153988      -0.22261035
Pt       3.80552248       6.64546652       6.58756262        9       0.00000000       0.00473981      -0.08912346       0.00444633
Pt       6.53600013       6.64862872       6.51754805        8       0.00000000      -0.10394909      -0.07961553       0.23612990
Ni       9.09033057       6.64488697       6.59237498        9       1.00000000      -0.05761600      -0.05013438      -0.19040667
Ni      11.63806913       6.62551601       6.51231298        8       1.00000000       0.06042720      -0.12605416       0.19388435
