64
Lattice="10.323601895912967 -0.020705478661819612 -0.0054050166016183935 5.143869477437831 8.912748307708135 -0.04747454032382172 -0.004413177575079 -0.0422114766012976 8.81676646830468" Properties=species:S:1:pos:R:3:tags:I:1:initial_magmoms:R:1:forces:R:3 unique_id=29e33ac627334cd38928cfa4f54cdf69 stress="0.00029632870410277456 1.4756379636285277e-06 -1.177553708017355e-05 1.4756379636285277e-06 0.00030191555300313616 1.583721958108972e-05 -1.177553708017355e-05 1.583721958108972e-05 0.00028331093923304046" energy=-399.58166403295326 pbc="T T T"
Ni       0.02036147       0.02266327       0.19904982        4       1.00000000       0.06809749       0.08316411       0.34865668
Ni       2.57355014      -0.00663776       0.20496400        4       1.00000000      -0.02372979      -0.03246105       0.40574084
Ni       5.13230948      -0.02898202       0.15680179        4       1.00000000      -0.05384802       0.14072279       0.31795826
Pt       7.79348974      -0.09118913       0.08052206        4       0.00000000       0.02081740      -0.09797242      -0.06366289
Ni       1.26383898       2.22008086       0.07632006        4       1.00000000      -0.10234989      -0.06021538       0.14579120
Pt       3.78422217       2.22659194       0.09937891        4       0.00000000      -0.10860767       0.00457579      -0.12240383
Pt       6.43806941       2.23740771       0.12819931        4       0.00000000      -0.02611340       0.00116371       0.18133205
Ni       9.05505050       2.19312930       0.12562260        4       1.00000000      -0.03397903      -0.13630888       0.16364528
Ni       2.57044248       4.46534968       0.04873061        4       1.00000000       0.08124728      -0.00369427       0.05634835
Ni       5.11374935       4.46654429       0.15734368        4       1.00000000      -0.05600286       0.03735740       0.32371238
Pt       7.81075040       4.47021034       0.07779988        4       0.00000000       0.15395059       0.02788240      -0.09214447
Ni      10.34424310       4.44162076       0.03177725        4       1.00000000       0.13399574      -0.03387660       0.11201502
Ni       3.84425027       6.64379413       0.15482845        4       1.00000000      -0.00555404      -0.22476228       0.33519921
Pt       6.41081748       6.71606504       0.15804159        4       0.00000000      -0.06143174       0.00036021       0.07075613
Ni       9.03460886       6.67973532       0.03042623        4       1.00000000      -0.03097623       0.03281046       0.02862736
Ni      11.60134608       6.63672061       0.01981717        4       1.00000000       0.05686771      -0.10594113       0.00291575
Ni       1.29065049       0.71762123       2.17217354        3       1.00000000       0.00281601       0.02611002      -0.01910443
Ni       3.83331464       0.74550693       2.19645922        3       1.00000000      -0.00246879       0.05444399       0.02328829
Pt       6.46377923       0.76951583       2.28540835        3       0.00000000       0.04120166       0.17163946      -0.09266945
Ni       9.05651704       0.70020955       2.20848270        3       1.00000000       0.01647724      -0.01017089       0.01133348
Ni       2.59899997       2.95461279       2.20294986        3       1.00000000       0.02485318       0.05269244       0.04630686
Ni       5.10944390       3.00020391       2.22379826        3       1.00000000      -0.19945315       0.05989487      -0.01962808
Ni       7.75133901       2.97519813       2.22667550        3       1.00000000       0.07418094       0.05676702      -0.06279795
Pt      10.29263400       2.88990106       2.17373243        3       0.00000000       0.04265028       0.01356954       0.04460377
Ni       3.90174547       5.18751728       2.19297147        3       1.00000000       0.11311222      -0.01290441       0.13375972
Ni       6.42245430       5.18577581       2.21214539        3       1.00000000      -0.03429310       0.12798305      -0.04823175
Ni       8.98696894       5.16968452       2.21115965        3       1.00000000      -0.04960063      -0.07116619       0.15561749
Pt      11.68118576       5.16136647       2.12209910        3       0.00000000       0.10212348      -0.05004667       0.02555362
Ni       5.11547908       7.40264276       2.16717863        3       1.00000000      -0.10639425      -0.12162264      -0.07737551
Ni       7.71129011       7.40757354       2.16761378        3       1.00000000      -0.01811563      -0.11127953      -0.05774005
Pt      10.25614006       7.38281603       2.07704348        3       0.00000000       0.05366476      -0.10122872      -0.01820345
Ni      12.93574393       7.37328698       2.15765397        3       1.00000000       0.00391199      -0.09711588      -0.00383566
Ni      -0.02775847       1.48572277       4.35011568        2       1.00000000       0.01816862      -0.00946752      -0.11864037
Pt       2.60798727       1.51439041       4.31675988        2       0.00000000      -0.01754646      -0.01220373      -0.09456832
Ni       5.14567625       1.49303180       4.34874635        2       1.00000000      -0.02762438       0.10670149      -0.07921807
Ni       7.78125478       1.48247597       4.34680410        2       1.00000000       0.19602636       0.11044996      -0.11230969
Pt       1.29433520       3.69737171       4.43103279        2       0.00000000       0.01278183      -0.03589635      -0.02195762
Ni       3.87426803       3.71906427       4.32914495        2       1.00000000       0.02323328       0.11000953      -0.23181724
Pt       6.45470126       3.71586315       4.24915657        2       0.00000000      -0.08789950      -0.03526662       0.03218733
Ni       9.00213290       3.66644726       4.34566841        2       1.00000000      -0.03241176      -0.04043310      -0.23167573
Ni       2.59894565       5.88901462       4.33918925        2       1.00000000       0.10658052      -0.06189389      -0.15845984
Ni       5.11955301       5.88419024       4.29329347        2       1.00000000      -0.08570962      -0.02007602      -0.16422229
Ni       7.73058763       5.86947793       4.30927772        2       1.00000000      -0.04910053      -0.01356577      -0.24957406
Pt      10.26651205       5.85385086       4.40765900        2       0.00000000      -0.06579531      -0.04615444      -0.10640005
Pt       3.85420294       8.15531645       4.24612537        2       0.00000000      -0.01045563      -0.02517057       0.02284673
Pt       6.41061321       8.11636546       4.20936742        2       0.00000000       0.00283863      -0.04977044       0.01466081
Pt       8.99654474       8.12997941       4.28904263        2       0.00000000      -0.02615867       0.04254059       0.08396851
Pt      11.62882127       8.12973378       4.35022381        2       0.00000000       0.00792160      -0.11215535       0.05174260
Pt      -0.01813116       0.01731964       6.58861850        1       0.00000000      -0.02975166       0.05042074       0.15486319
Pt       2.59422299       0.02203606       6.62588501        1       0.00000000       0.00242778       0.10750305       0.25834074
Pt       5.18839363      -0.09470618       6.60549275        1       0.00000000       0.03545847      -0.14904691       0.15754523
Ni       7.74351386      -0.04231667       6.47514522        1       1.00000000       0.08793181       0.12654301      -0.25933194
Ni       1.30148969       2.25433336       6.54289260        1       1.00000000       0.06768595       0.11558244      -0.04247780
Ni       3.83918722       2.22310516       6.45853618        1       1.00000000      -0.02920598       0.04046547      -0.26528224
Pt       6.45661191       2.17724332       6.43231270        1       0.00000000       0.03119203       0.03344131      -0.33224308
Pt       9.07110214       2.27510143       6.49942508        1       0.00000000       0.16233240       0.17278268       0.03243798
Ni       2.52435615       4.40946749       6.52469921        1       1.00000000      -0.12021893      -0.00955688      -0.07735549
Pt       5.08051815       4.38711473       6.51764118        1       0.00000000      -0.11291833      -0.01258251       0.08938895
Ni       7.78039860       4.43623330       6.42885965        1       1.00000000       0.06047099       0.08060956      -0.31842923
Ni      10.32515948       4.44029498       6.53456585        1       1.00000000       0.04928981       0.15004443       0.00871716
Pt       3.74832796       6.63673712       6.52391071        1       0.00000000      -0.13118010       0.04813168       0.15876621
Pt       6.49615993       6.59616439       6.43877019        1       0.00000000      -0.00869895      -0.00049066      -0.24215385
Ni       9.04360491       6.59556525       6.51926658        1       1.00000000      -0.02032587      -0.09114589      -0.09740492
Ni      11.57679559       6.59441907       6.51859017        1       1.00000000      -0.08638815      -0.19071960      -0.11730782
