64
Lattice="10.231336182918525 0.03172507885728392 -0.04290242351164175 5.143142815686738 8.850414187038114 -0.0951784360450966 0.0 0.0 21.664571689317754" Properties=species:S:1:pos:R:3:tags:I:1:initial_magmoms:R:1:forces:R:3 unique_id=23d2bb5df18a4222ab02215375562c1b stress="0.001704741505013407 0.00011742427992209538 -0.00037469715330928753 0.00011742427992209538 0.0014500858562162804 -0.0005860132822507986 -0.00037469715330928753 -0.0005860132822507986 -0.005490896018778621" energy=-372.4313420804699 pbc="T T T"
Ni       0.00535332       0.01433656       0.27730293        3       1.00000000       0.08740176      -0.01552143      -0.53860607
Ni       2.55817271      -0.00241525       0.29890954        3       1.00000000       0.00936714      -0.01369630      -0.41226959
Ni       5.12061472      -0.01810700       0.13679605        1       1.00000000       0.00124977       0.10467307       0.11605970
Ni       7.67680535      -0.01498975       0.10564731        1       1.00000000      -0.02372101       0.05421899       0.03153524
Ni       1.24260748       2.21397777       0.17117330        2       1.00000000      -0.00447071       0.00901541       0.30503709
Pt       3.78607145       2.20985279       0.25075793        3       0.00000000       0.06609297      -0.00083144      -0.88125119
Pt       6.45464331       2.21683667       0.23690137        2       0.00000000      -0.01823177      -0.03008646      -0.70809755
Ni       9.00180481       2.26021594       0.17555275        2       1.00000000      -0.01878241       0.11214170      -0.16015005
Ni       2.55635115       4.43671423       0.10074106        1       1.00000000      -0.03025647      -0.04989274       0.16585079
Ni       5.09490636       4.43795755       0.09908009        1       1.00000000      -0.07007879      -0.13636342      -0.02477295
Ni       7.74739194       4.42556781       0.09079508        1       1.00000000       0.12269926      -0.03366307       0.11197844
Ni      10.23211122       4.41944309       0.06955523        1       1.00000000      -0.05864731      -0.01423908       0.27888522
Ni       3.84370039       6.60617890       0.07027404        1       1.00000000       0.05143543      -0.05287351       0.04683618
Pt       6.40835831       6.66192496       0.02853585        0       0.00000000       0.04341401       0.18633041      -0.30927531
Ni       8.96946153       6.61546531       0.14138566        1       1.00000000      -0.10228097      -0.16719473      -0.39106837
Ni      11.52851768       6.63468042       0.00000000        0       1.00000000      -0.07696546      -0.08924061       0.12602499
Ni       1.28392143       0.75089940       2.20823203        5       1.00000000       0.01862983       0.06283063       0.06359423
Ni       3.82946414       0.73914913       2.26911060        6       1.00000000       0.06030562      -0.04253162       0.24140951
Ni       6.36480069       0.76545109       2.29882958        6       1.00000000      -0.04187882       0.01168386       0.26611984
Pt       8.96474456       0.82023505       2.21942908        5       0.00000000      -0.08085230      -0.05038732       0.10448501
Ni       2.51514540       2.91612563       2.23111650        5       1.00000000      -0.12465585      -0.07499338       0.01601749
Ni       5.10408455       2.92157074       2.26721094        6       1.00000000      -0.00494810      -0.00973314       0.21674248
Ni       7.73856158       2.97564830       2.23945605        5       1.00000000       0.14183932       0.12273670       0.19369656
Ni      10.23192777       2.96101983       2.21638088        5       1.00000000       0.03132171      -0.02411824       0.13460632
Ni       3.85032085       5.11297639       2.15822828        5       1.00000000       0.04272424      -0.13292662      -0.11658805
Pt       6.43398647       5.14185266       2.17186524        5       0.00000000       0.00455592      -0.12151184       0.03937837
Ni       8.96221901       5.12006040       2.20348992        5       1.00000000       0.04847483      -0.07473214       0.10023217
Pt      11.50264440       5.08306266       2.18968574        5       0.00000000      -0.00043130       0.00729178       0.03446968
Ni       5.13773711       7.36858892       2.15602480        5       1.00000000       0.00936033      -0.03872639       0.04603894
Ni       7.68232576       7.38725425       2.16034434        5       1.00000000      -0.02828687      -0.00795909       0.14184904
Pt      10.21266514       7.39211432       2.11337144        4       0.00000000      -0.01419281       0.00066719       0.07891983
Pt      12.82620378       7.36434227       2.09963076        4       0.00000000       0.02049462      -0.01314136       0.00991044
Ni      -0.04015192       1.51380875       4.40045854        9       1.00000000      -0.07959579       0.10039393      -0.09119240
Pt       2.47738947       1.49206992       4.31665191        8       0.00000000      -0.13718136      -0.02625962      -0.08870812
Ni       5.13992986       1.42373687       4.34033427        8       1.00000000      -0.00172441      -0.02878969      -0.22831451
Ni       7.65962306       1.46237259       4.35050965        9       1.00000000       0.03633348       0.04772302      -0.15288253
Ni       1.20472369       3.68219756       4.42356368        9       1.00000000      -0.06000654       0.00426488      -0.02082202
Pt       3.76915122       3.70187551       4.31627798        8       0.00000000      -0.04522896       0.11268299      -0.19354821
Pt       6.47396406       3.63024093       4.34167687        8       0.00000000       0.00031998       0.15386027      -0.10846624
Ni       9.00469468       3.70360874       4.32790773        8       1.00000000       0.04654454       0.04641897      -0.12387293
Ni       2.47302371       5.87005931       4.41751378        9       1.00000000      -0.11935992       0.03449128      -0.04350608
Pt       5.08296720       5.87535958       4.38665615        9       0.00000000      -0.02547045       0.00020444      -0.17453183
Ni       7.74285364       5.83956774       4.33716065        8       1.00000000       0.11672973      -0.04063923      -0.16608567
Ni      10.26342121       5.83157438       4.34708549        8       1.00000000      -0.02250951       0.00185044      -0.07276394
Pt       3.74617561       8.10975706       4.38285325        9       0.00000000      -0.07701459       0.08857535       0.05981648
Pt       6.39798198       8.07795537       4.24571365        7       0.00000000       0.00250414       0.04527687      -0.15868298
Pt       9.03165893       8.06878154       4.31502666        8       0.00000000      -0.02268826       0.08253398      -0.01107455
Ni      11.51032108       8.09885811       4.35151754        9       1.00000000      -0.04761543       0.02610917      -0.07617427
Pt      -0.07181062      -0.08362748       6.66400276       12       0.00000000      -0.01071333       0.03969902       0.36940866
Pt       2.54711012      -0.04704521       6.66457169       12       0.00000000       0.09471053      -0.07357543       0.41233693
Ni       5.14963594      -0.07046503       6.54100332       11       1.00000000      -0.03422772       0.05411807       0.01338224
Ni       7.59139409      -0.07817959       6.54246532       11       1.00000000       0.02388825       0.04430190       0.05851696
Ni       1.25626172       2.23032286       6.53267746       11       1.00000000       0.04360310      -0.02551233      -0.13034363
Pt       3.79797139       2.25214143       6.50274461       11       0.00000000       0.20145396      -0.05370555       0.95201111
Pt       6.39119618       2.14155071       6.46974053       11       0.00000000      -0.05544297      -0.06822824       0.84793671
Pt       8.98261622       2.28456192       6.50165617       11       0.00000000      -0.05846768      -0.03419211      -0.00501147
Ni       2.49966691       4.44801782       6.51025860       11       1.00000000       0.02617062       0.02357323      -0.23914683
Ni       5.10216937       4.44525730       6.52894172       11       1.00000000      -0.00508878      -0.09628382      -0.02755018
Ni       7.65004315       4.42375489       6.49152049       11       1.00000000       0.00561739      -0.02737238      -0.04321822
Ni      10.29221564       4.41135700       6.45504791       11       1.00000000       0.06782816       0.05574464      -0.19996953
Ni       3.77128773       6.54975380       6.50870281       11       1.00000000      -0.01757838      -0.01494264      -0.10315606
Ni       6.39371571       6.55257488       6.39802765       10       1.00000000       0.16728744       0.08373461       0.50178426
Pt       9.01412085       6.50978161       6.50921944       11       0.00000000      -0.03369773      -0.02569374       0.12047556
Ni      11.54640864       6.61517055       6.42941962       10       1.00000000      -0.04006533      -0.00758811      -0.20424514
