64
Lattice="10.394545575445967 -0.015498474977237477 0.03735558667173979 5.183850714672778 8.867850022110622 -0.015763731581630053 0.0 0.0 21.62676999597455" Properties=species:S:1:pos:R:3:tags:I:1:initial_magmoms:R:1:forces:R:3 unique_id=61c52bbe3bd04c71a695cea95af3402c stress="0.006118875925117336 -0.00010670479786117329 0.00047304955363252965 -0.00010670479786117329 0.005441246072009455 -0.00011432265766976113 0.00047304955363252965 -0.00011432265766976113 -0.0016121145988948204" energy=-378.29433485091306 pbc="T T T"
Ni      -0.01029133      -0.02118435       0.13122910        1       1.00000000      -0.01806714       0.03771971      -0.11426367
Ni       2.62210620      -0.01960102       0.06652225        1       1.00000000       0.08067733       0.01794004       0.37383103
Ni       5.19652929      -0.04274065       0.12264711        1       1.00000000       0.01952994       0.04724101      -0.34426046
Ni       7.79216488      -0.08144558       0.16511300        2       1.00000000      -0.08897561      -0.10989541      -0.09154555
Pt       1.30385033       2.21445765       0.05491130        1       0.00000000       0.00927940      -0.01286285       0.14346576
Pt       3.87689200       2.15097703       0.06633216        1       0.00000000       0.03699952       0.03099408       0.10602439
Pt       6.49564592       2.11862439       0.07582421        1       0.00000000       0.07153705      -0.06404783      -0.07599058
Pt       9.11953273       2.19269655       0.10079482        1       0.00000000       0.01005895       0.04665155      -0.52532262
Ni       2.57561568       4.47218423       0.06845170        1       1.00000000       0.02059214      -0.00940634      -0.12966479
Pt       5.16039275       4.45673752       0.09770845        1       0.00000000       0.16117482      -0.01705554      -0.79727760
Pt       7.83558624       4.47528963       0.00000000        0       0.00000000      -0.13545146       0.03292577      -0.25794356
Ni      10.42196361       4.46731788       0.03802252        0       1.00000000       0.04357863       0.01746028       0.13374404
Ni       3.84356810       6.69216121       0.03985959        0       1.00000000      -0.02061166       0.04623263       0.38141770
Pt       6.49653775       6.74990469       0.14987872        1       0.00000000      -0.00736030      -0.08775561      -0.50814764
Ni       9.11945744       6.67877942       0.02847123        0       1.00000000      -0.02476221       0.06662591       0.17796987
Ni      11.70252076       6.64550877       0.03769491        0       1.00000000       0.11712922       0.04598023       0.29573915
Ni       1.33771451       0.74114484       2.18185766        4       1.00000000       0.11400926       0.10615307       0.06827935
Ni       3.87735440       0.75670260       2.21152472        4       1.00000000      -0.11033668       0.13876916       0.22289507
Ni       6.49860879       0.75136671       2.22380121        4       1.00000000      -0.02981031       0.16383732       0.26571650
Pt       9.10389201       0.71670530       2.24281562        4       0.00000000       0.03381324       0.16610412       0.02808830
Ni       2.60585439       2.89844667       2.23885415        4       1.00000000       0.03697351      -0.16871572       0.38870403
Ni       5.19285341       2.89625516       2.24254566        4       1.00000000      -0.14360398      -0.14306232       0.25929914
Ni       7.77652085       2.91838342       2.23453530        4       1.00000000      -0.01764006      -0.05582992       0.11089452
Ni      10.42211108       2.91124357       2.27094334        5       1.00000000       0.07797687      -0.12992068       0.35386745
Pt       3.87890234       5.16582553       2.21863791        4       0.00000000      -0.00510422      -0.11416543      -0.00317127
Ni       6.50552477       5.15906611       2.20971468        4       1.00000000       0.02468565      -0.05548022       0.17185680
Pt       9.05029390       5.12752341       2.24264652        4       0.00000000      -0.10954196      -0.12420656      -0.00810185
Pt      11.69640196       5.10228483       2.18500077        4       0.00000000      -0.10277586      -0.13498141       0.09934084
Ni       5.19482394       7.39656429       2.16654280        4       1.00000000      -0.06636381      -0.00192883       0.16240013
Ni       7.78787446       7.41829378       2.18685889        4       1.00000000       0.05852125       0.15513262       0.10737143
Pt      10.38684477       7.43101072       2.10352077        3       0.00000000       0.01260378      -0.02812656      -0.00548985
Ni      12.99471054       7.37359354       2.16576010        4       1.00000000      -0.00893617      -0.01542790       0.08090026
Ni       0.04913644       1.53498864       4.32733687        6       1.00000000       0.09895320       0.13241328      -0.28727613
Ni       2.61355948       1.52825805       4.35831577        7       1.00000000       0.01426872       0.11565919      -0.19207527
Ni       5.18076355       1.49517333       4.35445447        7       1.00000000      -0.09953511       0.10010966      -0.27258080
Ni       7.81246322       1.47449429       4.35961215        7       1.00000000       0.03374865      -0.09378598      -0.26377287
Ni       1.31969905       3.62122096       4.34248043        6       1.00000000       0.02619246      -0.11983083      -0.27826383
Ni       3.86253989       3.61500196       4.33778232        6       1.00000000      -0.07054687      -0.15064492      -0.32125460
Pt       6.55771219       3.60183713       4.29687221        6       0.00000000       0.00650370      -0.00992925      -0.17260948
Ni       9.11833385       3.64575620       4.34698734        6       1.00000000       0.07610268      -0.16299687      -0.35235871
Ni       2.59394985       5.86378994       4.36893235        7       1.00000000      -0.01395588      -0.08234453      -0.06751638
Pt       5.20154166       5.86634963       4.31592740        6       0.00000000       0.06330938      -0.03985756       0.04457584
Ni       7.81611391       5.85933016       4.36181416        7       1.00000000      -0.02717947      -0.02030682      -0.19015296
Pt      10.40342839       5.80247994       4.47333872        8       0.00000000       0.07170521      -0.02484303       0.13736189
Pt       3.89503803       8.12664144       4.32048430        6       0.00000000      -0.03532958       0.03913261       0.06251459
Pt       6.51962472       8.19800602       4.25207327        6       0.00000000      -0.04370834       0.28116228      -0.13629805
Pt       9.06913691       8.15759920       4.34204332        6       0.00000000      -0.07813807       0.10284196      -0.09943448
Pt      11.69724876       8.13784932       4.31830946        6       0.00000000       0.04577937       0.07400300      -0.09824629
Pt       0.07415674       0.00801483       6.57722946       11       0.00000000       0.04345618       0.22593482       0.28218429
Ni       2.62764614       0.00497415       6.54235702       10       1.00000000      -0.04615350       0.10549541      -0.21483212
Pt       5.15077320      -0.01511703       6.59999111       11       0.00000000       0.00130681       0.20722166       0.27074182
Pt       7.79077506      -0.06240483       6.62677000       11       0.00000000      -0.05480981       0.26913520       0.33965131
Ni       1.34067684       2.19928426       6.41807268        9       1.00000000       0.04393657      -0.02363773      -0.17224984
Ni       3.87920810       2.17044449       6.42954674        9       1.00000000      -0.14849382      -0.05898743      -0.12536841
Ni       6.51449937       2.17936722       6.46046725       10       1.00000000       0.02205639      -0.17754634       0.01354493
Pt       9.12182867       2.27025120       6.42539290        9       0.00000000       0.01443901      -0.12009829       0.43197067
Pt       2.54084378       4.40423574       6.48725716       10       0.00000000       0.02684269      -0.17128040      -0.11417344
Pt       5.19898722       4.32967342       6.47171603       10       0.00000000      -0.12437577      -0.11638471       0.71989251
Ni       7.84048312       4.40956818       6.43526454        9       1.00000000       0.03590752       0.08858162       0.02862796
Ni      10.39917636       4.41153070       6.54833278       10       1.00000000      -0.02578422      -0.09825616      -0.13794491
Ni       3.88585717       6.61201531       6.52402807       10       1.00000000       0.04157217      -0.07496118      -0.15736262
Pt       6.59698217       6.60953436       6.48467309       10       0.00000000       0.10015171      -0.08639645       0.52794965
Ni       9.12337136       6.58489828       6.54674090       10       1.00000000      -0.00059144      -0.05288637      -0.12691728
Ni      11.69101715       6.58939011       6.55949720       11       1.00000000      -0.03742964       0.09638576      -0.14895330
