64
Lattice="10.481492248139288 0.01070885407189853 0.07994686342359364 5.250020263741328 9.129047593610522 0.03175400950932099 0.0 0.0 21.818756980568473" Properties=species:S:1:pos:R:3:tags:I:1:initial_magmoms:R:1:forces:R:3 unique_id=56be06dc36fc437db35fdb2c4d110885 stress="0.006436587881001939 9.082033076628047e-05 0.00023189943984058156 9.082033076628047e-05 0.006638868129967409 -3.3728542834992065e-05 0.00023189943984058156 -3.3728542834992065e-05 0.0001230583025450538" energy=-386.49727664163606 pbc="T T T"
Pt      -0.05670045       0.03112375       0.00000000        0       0.00000000      -0.17073120      -0.03860676      -0.00066622
Ni       2.64774565      -0.01958341       0.01508598        0       1.00000000       0.10003996      -0.05291422       0.45237502
Ni       5.25995932      -0.03340292       0.10606717        1       1.00000000       0.15232029      -0.04165448       0.08294949
Ni       7.84810097       0.00624292       0.08547520        1       1.00000000      -0.16480622      -0.05681357       0.58037333
Pt       1.27070725       2.28740248       0.04587486        0       0.00000000      -0.00243987       0.11098971      -0.83409590
Pt       3.96414477       2.21691351       0.07480770        1       0.00000000       0.22011247       0.08557927      -0.76061483
Pt       6.63557529       2.21242209       0.13169463        1       0.00000000      -0.07348027      -0.18737350      -0.03878618
Ni       9.16662166       2.30138353       0.07127510        1       1.00000000       0.02688002       0.05787747       0.44534249
Pt       2.56929663       4.60443580       0.05835869        1       0.00000000       0.04222810       0.03093365      -0.91006962
Pt       5.31868113       4.54709606       0.12776856        1       0.00000000       0.18968288      -0.22166954      -0.48290607
Ni       7.92273196       4.57095508       0.12842439        1       1.00000000       0.19497980       0.03885122       0.43933245
Ni      10.43919673       4.59912463       0.07625194        1       1.00000000      -0.16838664       0.12500617       0.46667677
Pt       3.87839181       6.91789053       0.12381103        1       0.00000000      -0.11317859       0.09529022      -0.48872360
Pt       6.63338347       6.84605695       0.12372557        1       0.00000000      -0.07996211      -0.03630499      -0.37994131
Ni       9.21124712       6.83992420       0.06721687        1       1.00000000       0.10022958      -0.11494000       0.57621728
Ni      11.76895784       6.88049769       0.14866289        1       1.00000000       0.01235673       0.07337993       0.03140964
Pt       1.28110028       0.69991620       2.23432631        2       0.00000000      -0.03363953      -0.11120179       0.14485598
Pt       4.03676858       0.75322465       2.27220564        3       0.00000000       0.09594523      -0.02061550       0.24694500
Ni       6.60700473       0.76193742       2.28390660        3       1.00000000       0.24321423       0.00138275       0.21613596
Ni       9.13837442       0.74823561       2.28588575        3       1.00000000      -0.24712781      -0.01119067       0.04307210
Pt       2.65819528       3.05100155       2.27177501        3       0.00000000      -0.05882659       0.02286257       0.27949128
Ni       5.30154717       3.03299706       2.29404752        3       1.00000000       0.11373087      -0.07046554       0.40449378
Pt       7.83044197       3.06262473       2.35297940        4       0.00000000      -0.12243112       0.00899764       0.27087584
Pt      10.40525680       3.07302317       2.28851712        3       0.00000000      -0.22848397      -0.05090855       0.06833150
Pt       4.01531397       5.37449386       2.28330586        3       0.00000000       0.07603567       0.11291560       0.07373902
Ni       6.60871212       5.30601103       2.28841724        3       1.00000000       0.19341137      -0.13096137       0.30815638
Ni       9.16606691       5.32463633       2.28921689        3       1.00000000      -0.14709822      -0.04514505       0.12782636
Pt      11.74824389       5.37778507       2.30334018        3       0.00000000      -0.13779442       0.00669740       0.15921826
Ni       5.24539678       7.61383795       2.25653123        3       1.00000000      -0.02096972       0.07667997       0.28168355
Pt       7.90288925       7.51881872       2.29561953        3       0.00000000       0.13226909      -0.14168473       0.20564396
Pt      10.54155751       7.61977172       2.22371122        2       0.00000000       0.03709610       0.06425731       0.04227006
Ni      13.13093693       7.67600982       2.31092665        3       1.00000000       0.02026397       0.30093495       0.13962054
Pt      -0.09135279       1.55899409       4.48806784        6       0.00000000      -0.38857471       0.18207636      -0.22599141
Pt       2.67473206       1.49053614       4.48088004        6       0.00000000       0.01858465      -0.02172378      -0.21476956
Ni       5.32615938       1.53470843       4.48191356        6       1.00000000       0.16160485       0.04926005      -0.43023611
Ni       7.87488248       1.55414732       4.50729089        6       1.00000000      -0.13088507       0.13427973      -0.29062963
Pt       1.23586596       3.84688705       4.48337110        6       0.00000000      -0.24598478       0.14080861      -0.13622907
Pt       4.05738988       3.75706156       4.43742750        5       0.00000000       0.20907280      -0.06468818      -0.23056644
Ni       6.63928131       3.78389374       4.49262182        6       1.00000000       0.20161658      -0.01714063      -0.30716123
Ni       9.16322060       3.83700981       4.53675798        6       1.00000000      -0.26306614       0.11404805      -0.21576979
Pt       2.61720101       6.11331021       4.44143788        5       0.00000000      -0.09607198       0.08408068      -0.24013929
Pt       5.37861534       6.05964818       4.42950858        5       0.00000000       0.29845645      -0.03404561      -0.26787784
Ni       7.94394888       6.03297789       4.51449481        6       1.00000000       0.22131297      -0.27365145      -0.28728865
Ni      10.46378703       6.07221123       4.56961270        7       1.00000000      -0.20392367      -0.03667301      -0.03836945
Pt       3.94491540       8.41548311       4.42812250        5       0.00000000      -0.04018838       0.02694347      -0.36333184
Pt       6.59043393       8.36511292       4.51997669        6       0.00000000      -0.12530469       0.09189424      -0.09349681
Pt       9.22615935       8.28694160       4.57432412        7       0.00000000       0.00076733      -0.27166165      -0.01164761
Pt      11.82965647       8.45127390       4.50209572        6       0.00000000      -0.09003146       0.22997325      -0.25948908
Ni       0.02821636       0.01651841       6.64989016        8       1.00000000      -0.10355132      -0.00342008      -0.10721483
Ni       2.66134783      -0.01656433       6.73876515        9       1.00000000      -0.07501122       0.07370923      -0.21475381
Pt       5.25804077      -0.03094718       6.78403716       10       0.00000000       0.02776833       0.11862833       0.00944819
Ni       7.92719168       0.02345108       6.76650631       10       1.00000000       0.05315124       0.03474259      -0.46710222
Pt       1.26603975       2.23432946       6.66866222        9       0.00000000      -0.03431939      -0.05915357       0.74999057
Pt       3.97392554       2.23009798       6.67550568        9       0.00000000       0.04341789      -0.00009061       0.75946340
Pt       6.68134101       2.23764851       6.63447560        8       0.00000000       0.00794901      -0.01395119       0.12606546
Ni       9.21715816       2.27269608       6.77664574       10       1.00000000      -0.03874679      -0.05654491      -0.38620093
Pt       2.62251768       4.55572241       6.66792738        9       0.00000000       0.06758685      -0.10092123       0.78159464
Pt       5.33644811       4.55889090       6.68397829        9       0.00000000       0.22638867       0.05368116       0.51445537
Pt       8.02548316       4.56793008       6.71504418        9       0.00000000      -0.06746531      -0.02333154      -0.40232823
Ni      10.50296542       4.57556186       6.78195133       10       1.00000000       0.05890686      -0.02981699      -0.33098203
Pt       3.97738782       6.92548498       6.68767028        9       0.00000000       0.12529239       0.00724886       0.40881934
Pt       6.68464189       6.89798856       6.70301230        9       0.00000000       0.04199967      -0.12368379       0.42455203
Ni       9.22538495       6.83444254       6.77037972       10       1.00000000       0.06533632      -0.02364676      -0.32308005
Pt      11.76417935       6.83810452       6.81875698       10       0.00000000      -0.10752803      -0.06741522      -0.12096542
