64
Lattice="10.325435613161352 -0.025843246609063016 0.021562140167082865 5.140336898500963 8.94292201364139 0.006825869566253372 0.017605413723907552 -0.0037289988089692916 8.8263911132026" Properties=species:S:1:pos:R:3:tags:I:1:initial_magmoms:R:1:forces:R:3 unique_id=ce08eb9ee78c489f8ee6a600a7760ef1 stress="-0.00030265079037915255 3.717858393575247e-06 -1.4477217003293514e-05 3.717858393575247e-06 -0.00030560033524113656 -3.955046243445615e-06 -1.4477217003293514e-05 -3.955046243445615e-06 -0.0002699265461394429" energy=-400.5368884327694 pbc="T T T"
Ni       0.03019886       0.03286189       0.22379485        4       1.00000000       0.04650447       0.02746341       0.12040161
Ni       2.57434113      -0.00330567       0.24455103        4       1.00000000       0.00084655      -0.00387029       0.18812884
Ni       5.12721898      -0.01167474       0.18720443        4       1.00000000      -0.05309656       0.10398366       0.10155211
Pt       7.80001065      -0.10008658       0.08747260        4       0.00000000       0.01565423      -0.05783708      -0.11679717
Ni       1.25539474       2.22818784       0.10146680        4       1.00000000      -0.05044382      -0.02403484       0.04479298
Pt       3.77621800       2.24096345       0.10732339        4       0.00000000      -0.04651610       0.01096121      -0.14109152
Pt       6.43584019       2.26115453       0.16926462        4       0.00000000      -0.01241957       0.08507539      -0.09330571
Ni       9.05224907       2.19148787       0.19635604        4       1.00000000      -0.04232917      -0.07195246       0.11880448
Ni       2.57775547       4.48495184       0.07994266        4       1.00000000       0.07163481       0.00503360      -0.00888578
Ni       5.10921520       4.48925187       0.21880550        4       1.00000000       0.00771851       0.01951073       0.13776260
Pt       7.82572837       4.49557994       0.10624400        4       0.00000000       0.10789865       0.02819706      -0.16413755
Ni      10.35846248       4.45566143       0.09006939        4       1.00000000       0.09846199      -0.02184139       0.05396113
Ni       3.84247409       6.65339924       0.22593663        4       1.00000000      -0.00055606      -0.11316424       0.16811988
Pt       6.40935567       6.74474701       0.20171061        4       0.00000000       0.00817517       0.00628093      -0.11891470
Ni       9.03210361       6.70872720       0.08640597        4       1.00000000       0.00422728       0.06801072      -0.02474912
Ni      11.60707101       6.65390999       0.07897330        4       1.00000000       0.05256882      -0.04432636      -0.04650519
Ni       1.29757647       0.73435226       2.17928534        3       1.00000000       0.00362625       0.01966540       0.06618932
Ni       3.83103300       0.75885966       2.21418999        3       1.00000000       0.00338297       0.02661642       0.02220806
Pt       6.43343459       0.75779151       2.26595583        3       0.00000000       0.04032425       0.00219651       0.03594454
Ni       9.07764360       0.69256379       2.21368451        3       1.00000000      -0.00842786      -0.06093740       0.00965630
Ni       2.60672148       2.98147477       2.22706279        3       1.00000000       0.01946575       0.01325904      -0.02667955
Ni       5.09661793       3.02356314       2.25523984        3       1.00000000      -0.08688706      -0.00090486      -0.01245662
Ni       7.75326173       3.01802168       2.23425940        3       1.00000000      -0.02753125       0.07443174      -0.04820571
Pt      10.30952210       2.90940258       2.22040952        3       0.00000000       0.00240073      -0.00546232       0.04587463
Ni       3.91411157       5.21213467       2.24275970        3       1.00000000       0.03522923      -0.01489534       0.09902891
Ni       6.42299690       5.22747551       2.24494783        3       1.00000000       0.00344105       0.04145936      -0.04232994
Ni       8.98705200       5.18625979       2.27213495        3       1.00000000      -0.03444465      -0.05051026       0.00258775
Pt      11.69459562       5.18137612       2.17831983        3       0.00000000       0.04601433      -0.02285083       0.00227731
Ni       5.11734624       7.42421102       2.20928191        3       1.00000000      -0.01247020      -0.04795249       0.00760681
Ni       7.71198964       7.43134245       2.22072645        3       1.00000000       0.00287398      -0.06382642       0.00118339
Pt      10.25399518       7.39442710       2.13614734        3       0.00000000       0.00761316      -0.02985578       0.02559527
Ni      12.93980793       7.39221385       2.22768175        3       1.00000000      -0.01903534      -0.00552746       0.00789052
Ni       0.03295773       1.50006626       4.36076874        2       1.00000000       0.06476417      -0.06372180       0.00497259
Pt       2.61998579       1.53486627       4.32746753        2       0.00000000       0.01090017      -0.02821328      -0.00540759
Ni       5.14855820       1.52217516       4.36947626        2       1.00000000       0.02760376       0.01607312      -0.05221228
Pt       7.83674940       1.52440133       4.34334819        2       0.00000000       0.09064694       0.01104690      -0.06301930
Pt       1.30727761       3.72700709       4.45419110        2       0.00000000      -0.01750586      -0.01678287      -0.00235460
Ni       3.87895137       3.75767929       4.34262372        2       1.00000000      -0.00479528       0.02872794      -0.08578969
Pt       6.42926504       3.78620850       4.29077305        2       0.00000000      -0.03714288       0.01573180      -0.03999014
Ni       9.02293957       3.72986634       4.37625677        2       1.00000000      -0.01683664       0.00220220      -0.09096523
Ni       2.61598257       5.90713547       4.36631047        2       1.00000000       0.05320961      -0.03191286      -0.03285226
Ni       5.12048141       5.92401190       4.32481416        2       1.00000000      -0.02296093      -0.01439622      -0.03881751
Ni       7.73585370       5.91544474       4.33648010        2       1.00000000      -0.05280327       0.02696172      -0.16185075
Pt      10.26875135       5.88221411       4.45766258        2       0.00000000      -0.01769040      -0.01116802      -0.06702994
Pt       3.87687985       8.14311696       4.29769785        2       0.00000000       0.02166482      -0.04182672       0.03197219
Pt       6.42612427       8.15800891       4.26502866        2       0.00000000       0.01544100      -0.00211462      -0.00452375
Pt       9.00435291       8.17741538       4.36279812        2       0.00000000       0.02115887       0.01860707       0.06501303
Pt      11.63142904       8.12545378       4.41973776        2       0.00000000       0.00405098       0.00398268      -0.03868404
Pt      -0.00972745       0.04124949       6.60707224        1       0.00000000      -0.02338284       0.02739164       0.12296318
Pt       2.60881485       0.05029563       6.66376762        1       0.00000000      -0.00420091       0.02001531       0.19762583
Pt       5.20933913      -0.08878028       6.63580237        1       0.00000000       0.04319303      -0.08274924       0.12819559
Ni       7.76366329      -0.01651262       6.48412037        1       1.00000000       0.02761629       0.10015381      -0.12515798
Ni       1.32904203       2.29167368       6.56474627        1       1.00000000       0.04834259       0.02071355       0.02245329
Ni       3.84530661       2.25665843       6.46225202        1       1.00000000       0.00157713       0.00334496      -0.16258810
Pt       6.45217742       2.22503864       6.48162606        1       0.00000000      -0.00884742       0.00677208       0.00705286
Pt       9.11666150       2.33447773       6.60102158        1       0.00000000       0.05715621       0.12093075       0.09061107
Ni       2.52406010       4.44732590       6.55147458        1       1.00000000      -0.06289854       0.00166955      -0.02903401
Pt       5.07344725       4.43284484       6.57622720        1       0.00000000      -0.09645165       0.00170606       0.11881926
Ni       7.79757892       4.48226365       6.45004525        1       1.00000000      -0.00548515       0.04672637      -0.19104604
Ni      10.34976438       4.49348564       6.59338375        1       1.00000000       0.01257819       0.07909948       0.02814521
Pt       3.74480989       6.68353568       6.59882122        1       0.00000000      -0.10969558       0.02513356       0.17743027
Pt       6.50532288       6.64201860       6.47750840        1       0.00000000      -0.07180770      -0.01053813      -0.09408542
Ni       9.05502082       6.63301812       6.57245563        1       1.00000000      -0.06657577      -0.04780210      -0.05026988
Ni      11.57925288       6.61713084       6.57863403        1       1.00000000      -0.06472749      -0.11816008      -0.07508377
