64
Lattice="10.36498748870618 0.012840319715231774 -0.012722976136250353 5.193613787419191 8.92269438890137 -0.03458544529849189 -0.01038826651447356 -0.026609802066015285 8.874154520119783" Properties=species:S:1:pos:R:3:tags:I:1:initial_magmoms:R:1:forces:R:3 unique_id=22db881d7c04431d8cb501a6884a7f62 stress="0.00032106418688847976 -3.460234518362152e-06 1.181008534105039e-05 -3.460234518362152e-06 0.0003313349844906027 2.333830678583906e-05 1.181008534105039e-05 2.333830678583906e-05 0.0003046490689458045" energy=-399.8443615917302 pbc="T T T"
Ni       0.00653145      -0.00184906       0.18133895        4       1.00000000       0.02742995       0.03348218       0.34926775
Ni       2.56253360       0.01473072       0.19439949        4       1.00000000      -0.04073124       0.08720716       0.44339911
Pt       5.17397542      -0.04615566       0.13530623        4       0.00000000      -0.03040771      -0.08155086       0.33695559
Ni       7.79421836      -0.04464941       0.16772787        4       1.00000000       0.02316180      -0.08371448       0.39332956
Ni       1.29638243       2.23501785       0.09714645        4       1.00000000       0.01184418       0.02432854       0.26603924
Pt       3.77944824       2.23322509       0.17130450        4       0.00000000      -0.06097322       0.08430725       0.11861422
Pt       6.50778315       2.20457192       0.10056094        4       0.00000000       0.11013541      -0.01890317       0.01058799
Pt       9.17261339       2.23625128       0.10404012        4       0.00000000       0.13305474      -0.02158086       0.03956068
Ni       2.54384612       4.48532269       0.04433603        4       1.00000000      -0.06667460       0.02360120       0.00788699
Pt       5.15007889       4.49891397       0.12121734        4       0.00000000      -0.03552762       0.06955781       0.27928739
Pt       7.86158202       4.52277529       0.08023871        4       0.00000000       0.09913309       0.05047702      -0.07237531
Ni      10.41489563       4.49278776       0.03894169        4       1.00000000       0.09957613       0.03613241       0.06307988
Ni       3.84398443       6.72925860       0.06713285        4       1.00000000      -0.10675826       0.07858236       0.20281521
Pt       6.48726560       6.78912198       0.17009791        4       0.00000000      -0.01787089       0.04506383       0.14391075
Ni       9.09805581       6.69082628       0.04978816        4       1.00000000       0.04589823      -0.00935560       0.13169685
Ni      11.69242220       6.67012022       0.03427448        4       1.00000000       0.06546605      -0.07133796       0.11094578
Ni       1.32154264       0.77241300       2.20620922        3       1.00000000       0.03238822       0.20667572      -0.03740988
Ni       3.84936834       0.77207811       2.25959408        3       1.00000000      -0.04678168       0.09639087       0.11388046
Ni       6.47629597       0.77813367       2.25789281        3       1.00000000      -0.05565228       0.09095015       0.10303509
Pt       9.07738122       0.75413628       2.24563643        3       0.00000000       0.01736792       0.22758190      -0.00757259
Ni       2.56274735       2.92275524       2.27868016        3       1.00000000      -0.08230621      -0.12965317       0.21848986
Ni       5.18349459       2.93198506       2.26665628        3       1.00000000      -0.11996094      -0.09124103       0.02480044
Ni       7.78636936       2.99270265       2.25125102        3       1.00000000       0.17795776       0.00365545      -0.07743721
Ni      10.38567647       2.96876642       2.25493056        3       1.00000000       0.00809267      -0.11208182       0.18187795
Pt       3.85733202       5.19563012       2.24359787        3       0.00000000      -0.04875596      -0.13675985      -0.12103295
Ni       6.53014972       5.20249026       2.23594675        3       1.00000000       0.09814099       0.01815169      -0.01615425
Ni       9.04363021       5.18032297       2.23550130        3       1.00000000      -0.08562834      -0.16092992       0.19839511
Pt      11.63822938       5.12902916       2.16743258        3       0.00000000      -0.10809592      -0.21860624       0.07961185
Ni       5.18770782       7.44216752       2.18805171        3       1.00000000      -0.11226242      -0.02609689      -0.02221403
Ni       7.77688511       7.43982378       2.19934664        3       1.00000000       0.01162803      -0.02896133       0.00536751
Pt      10.33632082       7.39297300       2.18169312        3       0.00000000      -0.04707297      -0.10884990      -0.24858600
Ni      12.96658588       7.44123668       2.14907414        3       1.00000000      -0.06761784      -0.05786225      -0.04452173
Ni       0.02913083       1.55064499       4.38129481        2       1.00000000       0.11456768       0.20298189      -0.12819589
Ni       2.56595014       1.54354053       4.34713997        2       1.00000000      -0.05561674       0.11944613      -0.21453586
Ni       5.16925199       1.51611804       4.35267602        2       1.00000000      -0.09724919       0.04607491      -0.19366199
Ni       7.77467128       1.50600423       4.36889333        2       1.00000000       0.06382099      -0.05176170      -0.11849927
Ni       1.31169662       3.65535975       4.41890357        2       1.00000000       0.03929972      -0.10979182      -0.05205401
Ni       3.83042994       3.68144119       4.35239500        2       1.00000000      -0.09756632      -0.07195357      -0.17977197
Pt       6.53591824       3.64876758       4.32120581        2       0.00000000      -0.02925111       0.00583131      -0.04185590
Ni       9.08418693       3.70043941       4.34272719        2       1.00000000       0.07405133      -0.12002703      -0.34903412
Ni       2.57826401       5.88030853       4.43786041        2       1.00000000      -0.05083562      -0.14416712       0.05088271
Pt       5.17801526       5.91061017       4.33088686        2       0.00000000       0.17836492      -0.03892505       0.06393679
Ni       7.79894782       5.89937479       4.35747974        2       1.00000000       0.04139708      -0.04304338      -0.19688028
Pt      10.36047587       5.83721945       4.45308299        2       0.00000000       0.03103455      -0.05683269       0.03491313
Pt       3.88438470       8.17466855       4.34913801        2       0.00000000      -0.04733450      -0.04122373       0.17686100
Pt       6.48696236       8.23862796       4.24845965        2       0.00000000      -0.00493099       0.17051705       0.00988642
Pt       9.04361484       8.20312692       4.31401855        2       0.00000000      -0.07454064       0.09485173       0.12866919
Pt      11.68708888       8.18844799       4.29622804        2       0.00000000       0.03754935       0.00546837       0.03235599
Pt      -0.00443158       0.00421831       6.63770377        1       0.00000000       0.03403626       0.05985264       0.16981584
Pt       2.58253522       0.00191260       6.63742189        1       0.00000000      -0.02633181       0.01504197       0.19264629
Pt       5.18843737      -0.04238744       6.53198516        1       0.00000000       0.03374073      -0.02768682      -0.31807001
Pt       7.75939274      -0.03891579       6.63915446        1       0.00000000      -0.03422718      -0.02169953       0.18752445
Ni       1.28282241       2.27854818       6.54295140        1       1.00000000      -0.05890228       0.19624080      -0.23741665
Pt       3.82483080       2.26224105       6.45985970        1       0.00000000      -0.13290313       0.07578945      -0.19312266
Ni       6.48928454       2.22741224       6.48821650        1       1.00000000       0.01136675      -0.00666764      -0.25669270
Pt       9.07745460       2.32265620       6.44249684        1       0.00000000      -0.00891468       0.10594439      -0.29686184
Ni       2.53232685       4.46993092       6.54038721        1       1.00000000      -0.15914693       0.06056576      -0.25972603
Pt       5.15527849       4.43134915       6.50702104        1       0.00000000      -0.01522877       0.01029731      -0.31422186
Ni       7.81069658       4.45853832       6.47501359        1       1.00000000       0.10128307       0.07305805      -0.31352298
Ni      10.39370793       4.46520008       6.55750738        1       1.00000000       0.13048758      -0.00936786      -0.05837562
Ni       3.83997328       6.63860315       6.56426499        1       1.00000000      -0.08396165      -0.08540102      -0.12789226
Pt       6.53515021       6.63022742       6.51449370        1       0.00000000       0.08938496       0.00054902      -0.16995395
Ni       9.10192031       6.61675849       6.55578978        1       1.00000000       0.09516241      -0.13538009      -0.10532951
Ni      11.67786429       6.61706893       6.55996086        1       1.00000000       0.07319712      -0.09724194      -0.09734778
