64
Lattice="10.262636581248762 0.004362765808114029 -0.041807208798065286 5.1350965566449664 8.86436014678024 -0.10501801875299334 0.0 0.0 21.645046064508367" Properties=species:S:1:pos:R:3:tags:I:1:initial_magmoms:R:1:forces:R:3 unique_id=075e926975be47688d0f5a10d3632eff energy=-373.6376856439996 stress="0.004592518309349338 -0.00012917643237949259 -0.00037079357905464306 -0.00012917643237949259 0.004548853294903921 -0.0007600838578596331 -0.00037079357905464306 -0.0007600838578596331 -0.002611523508284301" pbc="T T T"
Ni      -0.00370514       0.00909120       0.24252349        2       1.00000000       0.06571346       0.00943540      -0.36367299
Ni       2.56111001      -0.00764979       0.25971932        3       1.00000000      -0.01127212       0.00435165      -0.27012770
Ni       5.13395328      -0.03155216       0.11362705        1       1.00000000       0.01820163       0.07034351       0.14390894
Ni       7.69561267      -0.05172158       0.10425067        1       1.00000000      -0.07847700      -0.04352931       0.20800074
Ni       1.24182045       2.21137006       0.22758482        2       1.00000000      -0.06667666       0.03867121      -0.04829820
Pt       3.79054148       2.19892753       0.12118696        1       0.00000000      -0.01567739      -0.02048905      -0.04659951
Pt       6.46674115       2.19300756       0.19520520        2       0.00000000       0.03641339      -0.04082390      -0.50761938
Ni       9.01301357       2.23413410       0.15478205        2       1.00000000       0.02408197       0.10572678      -0.06044227
Ni       2.52838134       4.43590883       0.05440641        1       1.00000000      -0.14047893      -0.07792318       0.10008545
Ni       5.12586140       4.41831988       0.15191554        2       1.00000000       0.05331893      -0.15019577      -0.69334443
Ni       7.75686458       4.42049660       0.06230852        1       1.00000000       0.14785164      -0.06050571       0.16376519
Ni      10.24570987       4.41408360       0.04821337        0       1.00000000      -0.07463488      -0.07554599       0.29632875
Ni       3.81248250       6.66441596       0.05055398        1       1.00000000      -0.00295302       0.08606269       0.14457725
Pt       6.41419186       6.67635767       0.01972689        0       0.00000000      -0.02038256       0.12747596      -0.26373531
Ni       8.98968578       6.62265289       0.11298135        1       1.00000000      -0.09836180      -0.14672387      -0.23412558
Ni      11.56365807       6.64539172       0.00000000        0       1.00000000       0.00904771      -0.06579051       0.24854722
Ni       1.27757107       0.73603264       2.19921240        5       1.00000000      -0.04307468       0.00649224       0.03483197
Ni       3.84141523       0.73370345       2.23068730        5       1.00000000       0.07197158       0.01679000       0.13550965
Ni       6.39949220       0.72415158       2.26860569        6       1.00000000       0.00519441       0.06206057       0.20420421
Pt       8.96341239       0.75583412       2.19336387        5       0.00000000      -0.07270558      -0.01292930       0.03937479
Ni       2.51957130       2.90182720       2.20866194        5       1.00000000      -0.05594248      -0.03932518       0.05442217
Ni       5.11326421       2.88534443       2.23896433        5       1.00000000      -0.05433525      -0.13223937       0.20337778
Ni       7.75548156       2.94324518       2.22012528        5       1.00000000       0.15486702       0.07210263       0.15621596
Ni      10.24527163       2.93258123       2.19788805        5       1.00000000      -0.00336247      -0.03248488       0.19436375
Pt       3.81899555       5.17145950       2.12288580        4       0.00000000      -0.01332297      -0.01662162      -0.11810506
Pt       6.49817779       5.14169874       2.16735051        5       0.00000000       0.06308146      -0.03044762       0.03029448
Ni       8.98352218       5.11866493       2.17941786        5       1.00000000       0.07321653      -0.06775899       0.13327100
Pt      11.48768743       5.09918126       2.16996901        5       0.00000000       0.00036454      -0.04618739       0.02309557
Ni       5.12018085       7.39649110       2.13355672        4       1.00000000      -0.01938471       0.00640979       0.02046011
Ni       7.70305479       7.39824322       2.13779541        4       1.00000000       0.05386272       0.03782822       0.09716269
Pt      10.27606597       7.40535537       2.08673720        4       0.00000000       0.00998636       0.03267925       0.01290410
Ni      12.81082822       7.39160366       2.09875279        4       1.00000000      -0.01434969       0.06443923      -0.05944631
Ni      -0.04378063       1.49934967       4.37565151        9       1.00000000      -0.05995073       0.13115658      -0.12290182
Pt       2.52055853       1.46579971       4.29644072        8       0.00000000      -0.05617248       0.07138316      -0.07004189
Ni       5.14528490       1.40249786       4.33282051        8       1.00000000       0.03416108      -0.03352403      -0.27601580
Ni       7.67488504       1.42674431       4.33354136        8       1.00000000       0.00346932       0.02284807      -0.15412775
Ni       1.20403869       3.69867116       4.37384517        9       1.00000000      -0.09194374      -0.03381251      -0.06119109
Pt       3.78058876       3.66410610       4.35438841        9       0.00000000      -0.07163041      -0.04922787      -0.08618492
Pt       6.49412849       3.60901552       4.30652863        8       0.00000000       0.09374859      -0.00290440       0.01755769
Ni       9.02051872       3.68201713       4.31771884        8       1.00000000       0.12778155       0.04783242      -0.14422821
Ni       2.46925463       5.87694094       4.40169340        9       1.00000000      -0.15391257      -0.00870618      -0.03651075
Pt       5.09648251       5.89030020       4.35924904        9       0.00000000       0.01387598       0.03373236      -0.02699244
Ni       7.75005942       5.83491876       4.33035959        8       1.00000000       0.18266903      -0.05801826      -0.13779738
Ni      10.27832576       5.82373717       4.33489499        8       1.00000000      -0.00998359      -0.00588353      -0.07603253
Pt       3.71367624       8.10436654       4.30813764        8       0.00000000      -0.05736351       0.04144388       0.07053164
Pt       6.40130175       8.09313027       4.22896745        7       0.00000000      -0.03509591       0.06442979      -0.11253583
Pt       9.04972515       8.05894848       4.27574178        8       0.00000000      -0.02741765      -0.03179200      -0.02781797
Ni      11.52700725       8.08930876       4.32356946        8       1.00000000      -0.07115929       0.01128683      -0.04982449
Pt      -0.07493470      -0.11045214       6.64097855       12       0.00000000       0.10210814       0.21103816       0.23396694
Pt       2.60638937      -0.04317321       6.64504606       12       0.00000000       0.01800767      -0.02417562       0.32348531
Ni       5.15692264      -0.08815167       6.54095536       11       1.00000000       0.03848261      -0.14467874      -0.07177556
Ni       7.62024691      -0.10526649       6.53571224       11       1.00000000      -0.03794911       0.01768136      -0.11927895
Pt       1.29339203       2.27386902       6.57390367       12       0.00000000      -0.10522205      -0.11875937       0.02275432
Ni       3.83737400       2.17322634       6.45909087       11       1.00000000       0.06220829       0.02379860       0.19853335
Pt       6.35239309       2.07970549       6.46385727       11       0.00000000      -0.06643581      -0.00007793       0.58251998
Pt       8.94062184       2.23264793       6.48908030       11       0.00000000       0.01620477      -0.04045433      -0.00891153
Ni       2.50953760       4.45438718       6.50459504       11       1.00000000      -0.02151684       0.15149678      -0.13030855
Pt       5.08235788       4.42278583       6.59091723       12       0.00000000       0.02006744      -0.09711116       0.59029699
Ni       7.68419896       4.40190585       6.48571456       11       1.00000000      -0.08905594      -0.01146612      -0.07286632
Ni      10.27445750       4.41947521       6.44996998       10       1.00000000       0.12655565       0.01531480      -0.25295086
Ni       3.75227270       6.58986046       6.49520336       11       1.00000000      -0.07480867      -0.02740666      -0.11054897
Ni       6.41631768       6.58238806       6.40091941       10       1.00000000       0.19782744       0.04960400       0.38356787
Pt       9.02124916       6.51447352       6.49204038       11       0.00000000       0.01768533       0.06647383       0.07787286
Ni      11.56196383       6.59731291       6.42838976       10       1.00000000      -0.02701576       0.04713059      -0.33142839
