64
Lattice="10.355926157327488 7.558070235232261e-05 -0.036198220129643834 5.17802853347202 8.828396376174544 -0.08782372770517358 -0.029555722971523528 -0.06573699993217576 8.787079764922344" Properties=species:S:1:pos:R:3:tags:I:1:initial_magmoms:R:1:forces:R:3 unique_id=ea148f1f2b7f42eab99beb8ca08a5dfc stress="0.00021367389093727984 -1.7411238103538784e-06 1.0729126942361596e-05 -1.7411238103538784e-06 0.0002323011052569185 1.6604059405251543e-05 1.0729126942361596e-05 1.6604059405251543e-05 0.00021051930316762224" energy=-397.52978725953983 pbc="T T T"
Ni       0.01111429      -0.06247981       0.18279260        4       1.00000000       0.07870252      -0.11154886       0.28142685
Ni       2.57752775      -0.05698201       0.18941863        4       1.00000000      -0.04125607      -0.09340357       0.32369146
Ni       5.17482519      -0.03745604       0.14488602        4       1.00000000      -0.04981108      -0.06015573       0.18908999
Ni       7.75260918      -0.06178110       0.14485158        4       1.00000000      -0.05408945      -0.12133496       0.27107829
Pt       1.28627410       2.20615968       0.16276792        4       0.00000000       0.01343714      -0.03079996       0.24872258
Pt       3.86641905       2.17163977       0.16211729        4       0.00000000      -0.06557945      -0.00303105       0.24873706
Pt       6.47916749       2.16426016       0.06379155        4       0.00000000       0.01944523      -0.08030339      -0.06171485
Pt       9.06175816       2.25249236       0.07811004        4       0.00000000      -0.00927693       0.06799169       0.13784949
Ni       2.56701920       4.46056992       0.01388721        4       1.00000000       0.00208922       0.07606756       0.00917706
Pt       5.20751431       4.50513742      -0.01617324        4       0.00000000       0.00067748       0.14663439      -0.16186000
Ni       7.76871873       4.46593396       0.01054273        4       1.00000000      -0.04476760       0.15205448       0.09761551
Ni      10.35337998       4.46380603      -0.01024127        4       1.00000000      -0.01699854       0.15871420       0.01072924
Ni       3.85999812       6.66115522       0.01898373        4       1.00000000      -0.05658541       0.11223911       0.17239813
Ni       6.48988874       6.66262474       0.03896338        4       1.00000000       0.05846484       0.12675839       0.23178974
Ni       9.03501748       6.62142899       0.06443725        4       1.00000000      -0.14163817       0.01775347       0.17482060
Ni      11.66426776       6.61951759      -0.02570872        4       1.00000000       0.04715060      -0.04881030       0.00360774
Ni       1.31354345       0.69590234       2.24305897        3       1.00000000       0.01342254      -0.00513911       0.14511047
Ni       3.82741607       0.71947094       2.19917371        3       1.00000000      -0.18671167      -0.03075445       0.01004469
Ni       6.47915806       0.72848110       2.18755086        3       1.00000000       0.11997742       0.00065432       0.01001703
Pt       9.06466924       0.71534741       2.19172594        3       0.00000000       0.06669198       0.15219846      -0.14242913
Ni       2.58042525       2.88928241       2.26694904        3       1.00000000      -0.01084068      -0.10786873       0.18739259
Ni       5.18735951       2.92349717       2.19706447        3       1.00000000       0.01029258       0.11134514      -0.02864274
Ni       7.73647692       2.92586535       2.19901234        3       1.00000000       0.01037632      -0.06650557      -0.01202891
Ni      10.36147510       2.91169963       2.23267888        3       1.00000000       0.02447897      -0.09386251       0.17574963
Pt       3.88693613       5.14283754       2.17611528        3       0.00000000       0.00409742      -0.00820840      -0.08699987
Ni       6.47815884       5.15973506       2.13933068        3       1.00000000      -0.02820782       0.08177895      -0.01587733
Pt       8.98712625       5.10450313       2.15306989        3       0.00000000      -0.04010703       0.00299530       0.04328658
Pt      11.64452054       5.09127741       2.14513449        3       0.00000000       0.02193537      -0.10308878      -0.02220409
Ni       5.22209148       7.34150176       2.10473912        3       1.00000000       0.09862736      -0.04528806       0.02106089
Ni       7.69789964       7.35778775       2.09881252        3       1.00000000      -0.12938827      -0.04213884       0.04524977
Pt      10.37463781       7.38898541       2.07666831        3       0.00000000       0.03232830      -0.01440614       0.02926838
Ni      12.93254891       7.34898500       2.07882317        3       1.00000000      -0.02798692      -0.05601300      -0.02596008
Ni       0.01452850       1.46415684       4.30651253        2       1.00000000       0.10607022       0.03481768      -0.05897125
Ni       2.53443294       1.46166065       4.27727645        2       1.00000000      -0.05051102       0.03584705      -0.08212470
Pt       5.18321076       1.43545070       4.23096664        2       0.00000000      -0.09083645      -0.03551900       0.04143484
Ni       7.75239948       1.44159550       4.29372428        2       1.00000000       0.01113754      -0.07082920      -0.12259372
Ni       1.28000362       3.66940605       4.30911330        2       1.00000000       0.02066532      -0.01588807      -0.06697802
Ni       3.80967857       3.67008543       4.30143762        2       1.00000000      -0.08201703       0.00765594      -0.10419087
Pt       6.53897525       3.65440155       4.30286060        2       0.00000000       0.07072117      -0.04383021      -0.11843155
Ni       9.09152525       3.67259672       4.27878359        2       1.00000000       0.17992134       0.02507297      -0.10501466
Ni       2.53531941       5.82622002       4.36263878        2       1.00000000      -0.05006512      -0.03571191      -0.01187889
Pt       5.19155696       5.86835030       4.34662466        2       0.00000000       0.11826726       0.05138222      -0.05996219
Ni       7.75584577       5.84162056       4.29257878        2       1.00000000       0.00734677       0.02377862      -0.06062378
Ni      10.37654373       5.80992343       4.31655551        2       1.00000000       0.06561262      -0.03402340      -0.01773009
Pt       3.83232217       8.04835645       4.23802672        2       0.00000000      -0.05984066      -0.02931226       0.07358836
Ni       6.45780147       8.07861298       4.22673423        2       1.00000000      -0.06205343       0.11950692      -0.16070664
Pt       8.99300057       8.01675992       4.19831752        2       0.00000000      -0.10919375      -0.07831469       0.08456555
Ni      11.64230065       8.01493947       4.24171597        2       1.00000000      -0.02976864      -0.14451966      -0.06125218
Pt      -0.01960230      -0.12231142       6.54790161        1       0.00000000       0.02616859      -0.07894490       0.10394506
Pt       2.55709508      -0.08169134       6.53140903        1       0.00000000      -0.03008439       0.01719769       0.16565040
Pt       5.18525012      -0.07693975       6.53829533        1       0.00000000       0.04794635      -0.02300401       0.01311983
Pt       7.73365975      -0.10284460       6.51936358        1       0.00000000      -0.06302198      -0.07956724       0.15096164
Pt       1.26973645       2.25751946       6.38495912        1       0.00000000       0.04707772       0.07646044      -0.17156245
Pt       3.89676511       2.26965675       6.41380507        1       0.00000000       0.06185296       0.19358728      -0.20924122
Ni       6.46023163       2.19546726       6.40913932        1       1.00000000      -0.01085596       0.02108403      -0.24697949
Pt       8.99533499       2.24752184       6.34162792        1       0.00000000      -0.01782457       0.08581149      -0.35902682
Ni       2.56372907       4.44264268       6.43403574        1       1.00000000       0.01388677       0.14495258      -0.26487126
Ni       5.17289604       4.40262510       6.38206630        1       1.00000000       0.04210055       0.07502320      -0.32199275
Ni       7.71092751       4.37523641       6.45077078        1       1.00000000      -0.15595513       0.00256056      -0.10911759
Ni      10.37176656       4.39643932       6.40938230        1       1.00000000       0.19004472       0.02924355      -0.28326241
Ni       3.84332171       6.50523555       6.45840310        1       1.00000000      -0.04624302      -0.12620214      -0.05521856
Ni       6.44920884       6.51291693       6.45188147        1       1.00000000       0.08628150      -0.07503004       0.00689868
Pt       9.04894815       6.44099175       6.45216848        1       0.00000000       0.01775185      -0.06829859       0.10503479
Ni      11.65903280       6.50143569       6.39968201        1       1.00000000       0.02646769      -0.08951094      -0.20366481
