64
Lattice="10.156607563531265 0.0027993402092621497 -0.013083341064355679 5.080728081500747 8.719304743576197 -0.07171973211617587 -0.010682503246157854 -0.061450465774186294 8.667630135627618" Properties=species:S:1:pos:R:3:tags:I:1:initial_magmoms:R:1:forces:R:3 unique_id=654fd95840be4942826222b4bd905703 stress="-0.006515123133784072 2.450383375047232e-07 9.886131978659207e-06 2.450383375047232e-07 -0.006446675095554973 -1.0622441947119682e-06 9.886131978659207e-06 -1.0622441947119682e-06 -0.005549993137915363" energy=-389.5880180677139 pbc="T T T"
Ni       0.04174738      -0.05960315       0.20597201        4       1.00000000       0.06991650      -0.07960727       0.13356606
Ni       2.48943996      -0.04051493       0.19861598        4       1.00000000      -0.00808598      -0.07619497       0.05893095
Pt       5.09616242      -0.03681793       0.15579940        4       0.00000000      -0.03961879      -0.00066310      -0.21919082
Ni       7.62742698      -0.05767247       0.17229591        4       1.00000000       0.00179968      -0.12251330       0.07163090
Ni       1.26153755       2.19043897       0.11841082        4       1.00000000      -0.02956698       0.02488913       0.14036064
Pt       3.76523839       2.24545087       0.18256918        4       0.00000000      -0.04292750      -0.00220619      -0.08035970
Ni       6.35008735       2.23019551       0.10255048        4       1.00000000      -0.03615975       0.07219751       0.08720228
Pt       8.88657295       2.23975025       0.11869135        4       0.00000000      -0.01232891       0.06403017      -0.20710205
Ni       2.51380766       4.40041993       0.07546387        4       1.00000000      -0.00272728       0.02198078       0.05901287
Ni       5.09988187       4.40696835       0.07683874        4       1.00000000      -0.01571496       0.06081231       0.05089198
Ni       7.57996625       4.40140812       0.08440838        4       1.00000000      -0.05983422       0.02979292       0.09782060
Ni      10.18852303       4.39592082       0.07390384        4       1.00000000       0.01705536       0.06191646       0.07889358
Ni       3.81937888       6.50850264       0.06261081        4       1.00000000       0.04408736      -0.05289534       0.03682636
Ni       6.33765843       6.52012908       0.06403014        4       1.00000000      -0.01302587      -0.02378858      -0.01919291
Ni       8.84330773       6.47695944       0.12286805        4       1.00000000      -0.10272128      -0.07860731       0.09584092
Ni      11.46279527       6.47860550       0.03210084        4       1.00000000       0.02182790      -0.05874799      -0.02385058
Ni       1.31450508       0.70440581       2.16134262        3       1.00000000      -0.00778336       0.00125233       0.07772647
Ni       3.73270251       0.70058780       2.18934779        3       1.00000000      -0.06959230      -0.08763764      -0.00333721
Ni       6.36375749       0.74326398       2.16768515        3       1.00000000       0.01480436      -0.00204588      -0.00722119
Pt       8.87423052       0.68689152       2.15909371        3       0.00000000       0.03749406      -0.03753981       0.15200454
Ni       2.50419592       2.92582974       2.22541866        3       1.00000000      -0.00128887       0.02215033       0.09234955
Ni       5.08886463       2.95656183       2.14772968        3       1.00000000       0.00735141       0.13281314       0.00646931
Ni       7.59214581       2.94472061       2.16733891        3       1.00000000       0.00354466       0.01433041       0.04450978
Ni      10.20120951       2.96425398       2.16023672        3       1.00000000       0.02643481       0.05404075       0.04555020
Ni       3.80710483       5.06465688       2.13549573        3       1.00000000       0.01325178      -0.02006667       0.00770694
Ni       6.34579093       5.09932129       2.10676106        3       1.00000000       0.00288164       0.02801574       0.02454120
Ni       8.85618249       5.02903520       2.13766064        3       1.00000000      -0.03217512      -0.04729555       0.03045827
Ni      11.45593162       5.03025932       2.13789487        3       1.00000000       0.02952589      -0.03001575       0.06397402
Ni       5.11890871       7.18217159       2.09406233        3       1.00000000      -0.01620186      -0.08139668       0.04842593
Ni       7.57267935       7.22865645       2.12582751        3       1.00000000      -0.02247495      -0.06878340       0.02069250
Pt      10.14935221       7.17491611       2.18653944        3       0.00000000       0.00308852      -0.09538141       0.05103356
Ni      12.69619978       7.16585554       2.07329664        3       1.00000000       0.02756163      -0.13709522       0.02374712
Pt       0.08924971       1.48029590       4.24890970        2       0.00000000       0.07264150      -0.05061530       0.00626110
Ni       2.54639747       1.44030750       4.22354250        2       1.00000000       0.04670821       0.01941850      -0.07088096
Pt       5.06040541       1.41571890       4.16302755        2       0.00000000       0.02451559       0.03101884      -0.15366994
Ni       7.60034200       1.42888851       4.25923545        2       1.00000000       0.00063356      -0.03894978      -0.06810909
Ni       1.29835942       3.66102835       4.27176628        2       1.00000000       0.04571700      -0.01010690      -0.04923719
Ni       3.75862678       3.68295231       4.21412728        2       1.00000000       0.04108838       0.07941942      -0.12905896
Pt       6.36990351       3.67525543       4.25625578        2       0.00000000       0.03933183      -0.00568507      -0.02164965
Ni       8.91452765       3.69626153       4.20823276        2       1.00000000       0.04861117       0.07797272      -0.12244122
Ni       2.50773032       5.72408003       4.24913129        2       1.00000000      -0.01381317      -0.00654337      -0.15588936
Ni       5.07878447       5.76504015       4.24462223        2       1.00000000       0.03086880      -0.03225821      -0.14113538
Ni       7.62022780       5.81619964       4.19574021        2       1.00000000       0.05027933       0.03232772      -0.12477562
Ni      10.18069491       5.73769056       4.24906765        2       1.00000000       0.02828261      -0.02228328      -0.01857084
Pt       3.80161044       7.84366785       4.19568857        2       0.00000000       0.03716111       0.01064829       0.02698996
Ni       6.38335675       7.90393969       4.16692534        2       1.00000000      -0.01776714      -0.01046509      -0.08228334
Ni       8.83123004       7.92120639       4.18786396        2       1.00000000      -0.06992949      -0.03593466      -0.04546259
Ni      11.43167317       7.89024118       4.19865656        2       1.00000000       0.05931260      -0.07340888      -0.08245028
Pt       0.00406470      -0.10332759       6.49724059        1       0.00000000      -0.08400177       0.00970130       0.17789491
Pt       2.51212692      -0.04071442       6.40698460        1       0.00000000       0.06126078       0.05080503       0.04640004
Pt       5.08332035      -0.06278499       6.31531687        1       0.00000000      -0.10090001      -0.01806391       0.02018219
Pt       7.59808726      -0.08496467       6.45044070        1       0.00000000       0.03157641       0.03764860       0.12337643
Ni       1.26820865       2.21728301       6.40170552        1       1.00000000       0.03171905       0.08389862       0.03154821
Pt       3.78087125       2.29078486       6.32321979        1       0.00000000      -0.02082071       0.08706879       0.04212199
Ni       6.33003112       2.19972729       6.39415545        1       1.00000000      -0.04733394       0.03779776      -0.01910893
Pt       8.86188005       2.26991435       6.29657544        1       0.00000000      -0.05846491       0.10135853       0.04257489
Ni       2.50528773       4.38626707       6.35090820        1       1.00000000       0.01093901       0.07598530      -0.06793266
Ni       5.07993768       4.38978318       6.38103813        1       1.00000000      -0.03075354       0.09118443      -0.01248631
Ni       7.54488731       4.33912222       6.39314905        1       1.00000000      -0.14382254       0.03501484       0.06049042
Ni      10.23415427       4.32706845       6.34616813        1       1.00000000       0.13616871       0.00658958      -0.05777186
Ni       3.79868418       6.39878348       6.36654556        1       1.00000000      -0.01869274      -0.04974393      -0.03338028
Ni       6.31507035       6.42925250       6.33959603        1       1.00000000      -0.00253603       0.01780544      -0.14797392
Pt       8.87922677       6.36748521       6.35760188        1       0.00000000      -0.00139755      -0.03776747       0.09839710
Ni      11.45633580       6.42492328       6.32467027        1       1.00000000       0.00502032       0.02042222      -0.11188095
