64
Lattice="10.153868657430287 0.011961251519981978 -0.03740084765308983 5.0872930763925535 8.726148557631223 -0.0827798690642872 -0.030537664232546856 -0.06041468034970626 8.667900833368241" Properties=species:S:1:pos:R:3:tags:I:1:initial_magmoms:R:1:forces:R:3 unique_id=23a11942cea8418c8a92b24d40d90184 stress="-0.007202394647438694 -2.0276974056473297e-05 1.0093326709817003e-05 -2.0276974056473297e-05 -0.007148794265131091 -7.485193970141405e-06 1.0093326709817003e-05 -7.485193970141405e-06 -0.006160863283349034" energy=-389.45965752154723 pbc="T T T"
Ni       0.03464282      -0.05435773       0.20292625        4       1.00000000       0.05437047      -0.06178605       0.13558091
Ni       2.48179694      -0.03233925       0.21355916        4       1.00000000      -0.04783978      -0.03702292       0.15139251
Pt       5.09722653      -0.01922781       0.15327879        4       0.00000000      -0.03483434       0.01771428      -0.18474900
Ni       7.63145042      -0.04419844       0.16694966        4       1.00000000       0.03409152      -0.08491937       0.13840282
Ni       1.25922645       2.19245317       0.11203989        4       1.00000000      -0.04681620       0.02631851       0.12523778
Pt       3.76235994       2.25450087       0.16949123        4       0.00000000      -0.04801847       0.01401329      -0.10299899
Ni       6.34999030       2.23808590       0.08826014        4       1.00000000      -0.04058387       0.07789592       0.09587004
Pt       8.88639064       2.24295181       0.08018427        4       0.00000000      -0.01438875       0.05575454      -0.20716935
Ni       2.51434175       4.40514652       0.06984326        4       1.00000000      -0.01270458       0.02193116       0.04741392
Ni       5.09887812       4.41385822       0.06490210        4       1.00000000      -0.03096901       0.06372032       0.04363301
Ni       7.58079243       4.40824735       0.06640413        4       1.00000000      -0.07033107       0.03398152       0.10416843
Ni      10.18579632       4.40487626       0.04944606        4       1.00000000       0.00830041       0.06019130       0.09407451
Ni       3.82157485       6.51511514       0.05434288        4       1.00000000       0.03605806      -0.05369126       0.02684072
Ni       6.33499528       6.52743011       0.04532139        4       1.00000000      -0.05692265      -0.03005554      -0.05603597
Ni       8.84004115       6.48596073       0.10623590        4       1.00000000      -0.12158809      -0.07384428       0.10030827
Ni      11.47179266       6.49053554      -0.00755232        4       1.00000000       0.05828192      -0.05563034      -0.08143902
Ni       1.29015315       0.72485535       2.19403865        3       1.00000000      -0.00519979       0.02672503       0.12444182
Ni       3.72920714       0.72951638       2.16801735        3       1.00000000      -0.07684070      -0.03345264       0.01798955
Ni       6.37186450       0.75342440       2.16081651        3       1.00000000       0.06319633      -0.00158004       0.02604834
Pt       8.90594730       0.72956789       2.17183114        3       0.00000000       0.05263660      -0.00101700       0.13431476
Ni       2.49551857       2.92554526       2.21937007        3       1.00000000       0.01194693       0.00455603       0.07831563
Ni       5.08684196       2.96620432       2.13339055        3       1.00000000       0.00538327       0.13367527      -0.00743340
Ni       7.59361794       2.95197278       2.14515794        3       1.00000000       0.00621284       0.02484606       0.01440061
Ni      10.19757234       2.94976258       2.17055307        3       1.00000000       0.03740516       0.02303534       0.02383699
Ni       3.80540259       5.06968526       2.12782567        3       1.00000000       0.01770310      -0.02528195       0.00527954
Ni       6.34006325       5.10250463       2.09065476        3       1.00000000      -0.01868271       0.01963693       0.01926128
Ni       8.85660718       5.02871243       2.11853909        3       1.00000000      -0.01705589      -0.06072271       0.04837632
Ni      11.46132662       5.02245906       2.11285087        3       1.00000000       0.06858990      -0.09258487       0.06803238
Ni       5.11138847       7.19471233       2.08168664        3       1.00000000      -0.04574011      -0.07693453       0.03753006
Ni       7.54540342       7.22475560       2.06392559        3       1.00000000      -0.05270132      -0.09605336       0.03578723
Pt      10.20136875       7.15241859       2.10965011        3       0.00000000       0.03994757      -0.14232597       0.06089635
Ni      12.71611665       7.19018958       2.04679884        3       1.00000000       0.08197790      -0.13330790       0.01256594
Ni       0.04693619       1.46576458       4.26365310        2       1.00000000       0.06598390      -0.00864190      -0.03256943
Ni       2.45705177       1.47720064       4.22576268        2       1.00000000       0.00356552       0.02715648      -0.02822447
Pt       5.06915965       1.45843510       4.15985943        2       0.00000000      -0.03486478       0.02602116      -0.14393705
Ni       7.61386376       1.44500150       4.23391425        2       1.00000000      -0.02539903      -0.03323404      -0.06571406
Ni       1.26324743       3.61396061       4.26795539        2       1.00000000       0.03336421      -0.01636925      -0.04754074
Ni       3.74390687       3.69120230       4.20573353        2       1.00000000       0.01411745       0.07421182      -0.14130292
Pt       6.36847108       3.68333522       4.24190119        2       0.00000000       0.03108511      -0.01760869      -0.01944851
Ni       8.92896474       3.66556742       4.17382977        2       1.00000000       0.03531960       0.05365024      -0.14982481
Ni       2.50734266       5.72759763       4.24425315        2       1.00000000      -0.04124301      -0.04077470      -0.15886076
Ni       5.06424492       5.77583514       4.23368638        2       1.00000000       0.00557369      -0.04028986      -0.14264820
Ni       7.58982496       5.78623656       4.18828013        2       1.00000000       0.00523221       0.00981944      -0.12739278
Ni      10.19005000       5.71815704       4.22431754        2       1.00000000       0.01224086      -0.03631378      -0.04056954
Pt       3.80522563       7.87772423       4.18935820        2       0.00000000      -0.02826116      -0.00092351       0.04548630
Ni       6.31551317       7.94291940       4.15487468        2       1.00000000      -0.06731263      -0.01353983      -0.08191371
Pt       8.79585027       7.92648707       4.13306222        2       0.00000000      -0.06715713      -0.02341217      -0.02045881
Ni      11.44303846       7.90900266       4.17118574        2       1.00000000       0.01225058      -0.06735488      -0.08200186
Pt      -0.00516306      -0.08334650       6.47117850        1       0.00000000      -0.06532378       0.02270598       0.14150531
Pt       2.49291003      -0.02590402       6.46059416        1       0.00000000       0.10248086       0.06189723       0.16876455
Pt       5.08201184      -0.04484456       6.33245578        1       0.00000000      -0.05664765       0.02519008       0.06575470
Pt       7.59188027      -0.07549667       6.43758643        1       0.00000000       0.06317939       0.04566661       0.17501662
Ni       1.24800332       2.21579816       6.36047984        1       1.00000000       0.03524283       0.05045866      -0.06527557
Pt       3.76622027       2.29749256       6.31070788        1       0.00000000      -0.00681367       0.09688101       0.03101882
Ni       6.33191891       2.21161155       6.38288719        1       1.00000000      -0.01109134       0.04695734      -0.01346765
Pt       8.88066279       2.26374784       6.23345275        1       0.00000000       0.01775976       0.05469424      -0.04840844
Ni       2.49310275       4.38933667       6.34376019        1       1.00000000       0.01229765       0.08172652      -0.08044550
Ni       5.07103742       4.39491469       6.36723029        1       1.00000000      -0.00800999       0.09587625      -0.01979248
Ni       7.54154261       4.33500787       6.37766327        1       1.00000000      -0.09231792       0.01809453       0.05614188
Ni      10.22645201       4.33042832       6.31843132        1       1.00000000       0.15419950       0.00683769      -0.06027539
Ni       3.79451693       6.40979030       6.35584074        1       1.00000000      -0.00193267      -0.04691359      -0.03313142
Ni       6.30327680       6.43907549       6.32639666        1       1.00000000       0.02359547       0.01587865      -0.16246539
Pt       8.87357139       6.36433964       6.37600806        1       0.00000000       0.02766447      -0.04288212       0.10153712
Ni      11.44981774       6.43757410       6.29712324        1       1.00000000       0.01633708       0.03074965      -0.14972981
