64
Lattice="10.385709127282308 0.032476034644800096 0.08262123486239174 5.2209796346577315 9.052449511607222 0.053068742677075106 0.0 0.0 21.77755058631645" Properties=species:S:1:pos:R:3:tags:I:1:initial_magmoms:R:1:forces:R:3 unique_id=d795744bcc6743d282e2893e0390a452 stress="0.005929955141731231 0.00011442136000754527 0.00022144120035973343 0.00011442136000754527 0.006060538527663498 0.00023720404549374866 0.00022144120035973343 0.00023720404549374866 -0.0007073020238027201" energy=-381.17155745822265 pbc="T T T"
Pt      -0.05652898       0.05242413       0.01759584        0       0.00000000      -0.15760783       0.03106462      -0.26381889
Ni       2.64992897       0.00681106       0.06815973        1       1.00000000       0.08272584      -0.03730961       0.26948468
Ni       5.22192769       0.01252516       0.09361400        1       1.00000000       0.19871277      -0.01289512       0.38691165
Ni       7.74164986       0.06271332       0.15476312        2       1.00000000      -0.18281702       0.08197623       0.52825473
Pt       1.30545303       2.27357789       0.00000000        0       0.00000000      -0.00316683       0.07505974      -0.43751281
Ni       3.93869309       2.24002193       0.17099356        2       1.00000000       0.10633285       0.03015945      -0.22505213
Ni       6.52376566       2.23297086       0.20786569        2       1.00000000      -0.01444229      -0.21317408       0.19101814
Ni       9.05755467       2.30652425       0.13938982        1       1.00000000      -0.09058790      -0.00340311       0.36833579
Pt       2.54726664       4.55943739       0.14508626        1       0.00000000      -0.10498693       0.15224318      -0.82068666
Pt       5.28360910       4.43567654       0.19903665        2       0.00000000       0.13426611      -0.07597515      -0.45103362
Ni       7.86106260       4.52428331       0.21000899        2       1.00000000       0.13177456       0.06246569       0.22400767
Ni      10.35827717       4.58590946       0.15837812        2       1.00000000      -0.06883012       0.16284245       0.35467852
Pt       3.83485339       6.84661831       0.15781102        2       0.00000000      -0.12092484       0.02222019      -0.76726329
Pt       6.60596658       6.77419714       0.18278475        2       0.00000000      -0.04069098      -0.18617056      -0.74977283
Ni       9.16310844       6.79770512       0.14173796        1       1.00000000       0.11453991      -0.07498804       0.42565621
Ni      11.66777520       6.83941736       0.23140431        2       1.00000000      -0.00610507       0.01978426      -0.08802904
Pt       1.29781617       0.76274904       2.26154855        4       0.00000000       0.00665070       0.04969898       0.07773795
Pt       4.01877223       0.76764242       2.20624646        3       0.00000000       0.18608808      -0.14752554       0.03346159
Ni       6.56476092       0.76396617       2.28945568        4       1.00000000       0.18429370      -0.08209940       0.04094258
Ni       9.03169660       0.78201676       2.33761849        4       1.00000000      -0.19316598       0.03847716       0.13181860
Pt       2.65550988       3.03477426       2.31188001        4       0.00000000       0.01038755      -0.02714601       0.19771783
Ni       5.25676132       3.01869056       2.32503589        4       1.00000000       0.04658393      -0.02058747       0.33300114
Pt       7.75204029       3.02996483       2.32669507        4       0.00000000      -0.05148186      -0.08767067       0.16120788
Pt      10.34308938       3.11874563       2.31473822        4       0.00000000      -0.04821056      -0.01606504       0.00452411
Pt       3.93165452       5.27121990       2.34797776        4       0.00000000       0.04623855       0.01779927       0.11318188
Ni       6.56513002       5.25484481       2.33780639        4       1.00000000       0.14171244      -0.05609187       0.32074405
Ni       9.12065878       5.29685473       2.33606857        4       1.00000000      -0.02247754      -0.01317886       0.12304858
Ni      11.68323900       5.33417733       2.35566113        5       1.00000000      -0.01790306      -0.03893876       0.15013486
Pt       5.15964483       7.58102180       2.35602467        5       0.00000000      -0.13402758       0.08925911       0.17414533
Pt       7.89442980       7.47069056       2.35189842        5       0.00000000       0.11285987      -0.03089403       0.21167224
Pt      10.51920094       7.51921531       2.32168071        4       0.00000000       0.03836975       0.02416523       0.23406131
Ni      12.99520383       7.63317877       2.38648722        5       1.00000000       0.04965412       0.23258203       0.15432130
Pt      -0.10120561       1.52531727       4.53649720        7       0.00000000      -0.20816831       0.13432487      -0.23232903
Pt       2.64106521       1.53383751       4.53110063        7       0.00000000       0.07495335       0.08765950      -0.10756153
Pt       5.33412652       1.54370028       4.46043902        7       0.00000000       0.11440064      -0.01593572      -0.18137085
Ni       7.83056615       1.51572566       4.52175788        7       1.00000000      -0.10037062      -0.03828109      -0.16984784
Pt       1.24236350       3.82632547       4.48531966        7       0.00000000      -0.21218027       0.10969950      -0.10839712
Ni       3.96329226       3.76913319       4.49487144        7       1.00000000       0.03803585      -0.04986106      -0.24253809
Ni       6.58537329       3.78119153       4.49505782        7       1.00000000       0.16686631      -0.05115951      -0.25962999
Ni       9.08972334       3.82742975       4.54178786        7       1.00000000      -0.22956493       0.04422284      -0.23599414
Pt       2.57827567       6.12464849       4.43028549        6       0.00000000      -0.15144281       0.18477602      -0.21235774
Pt       5.30267150       5.98522141       4.46749676        7       0.00000000       0.11403486      -0.11709595      -0.07220945
Ni       7.88863300       5.99454089       4.52054411        7       1.00000000       0.15516111      -0.19289901      -0.25955183
Ni      10.39544848       6.04245944       4.56255904        8       1.00000000      -0.18628090      -0.07262013      -0.13687327
Ni       3.89092333       8.35053826       4.50214089        7       1.00000000      -0.27693491       0.12855218      -0.21275589
Pt       6.52972832       8.31911299       4.55493791        8       0.00000000      -0.07802088      -0.04804619      -0.04616655
Pt       9.21891463       8.23818156       4.64499679        8       0.00000000       0.14969386      -0.03229751       0.04546655
Ni      11.78128186       8.35735598       4.56965219        8       1.00000000       0.13688361       0.19086930      -0.15043095
Ni       0.03277104       0.05741282       6.59683621        9       1.00000000      -0.07436361      -0.01572104       0.15227637
Ni       2.64602075       0.01171194       6.70642875       10       1.00000000      -0.09036565      -0.04245433      -0.15751841
Ni       5.22760345       0.00894794       6.72353605       10       1.00000000      -0.00878876       0.02880188      -0.22275859
Ni       7.84626451       0.04876426       6.70854401       10       1.00000000       0.07901265      -0.01806836      -0.49361149
Ni       1.29475581       2.24600196       6.60376333        9       1.00000000      -0.05971624      -0.00362924       0.24045253
Pt       3.91959039       2.18450675       6.75901050       11       0.00000000       0.00964077       0.17080387       0.26779716
Pt       6.62557759       2.19556840       6.74501239       10       0.00000000       0.09102758       0.04953397      -0.13834734
Ni       9.16493567       2.27647828       6.75772803       11       1.00000000       0.00568937      -0.01035024      -0.27961585
Pt       2.59203469       4.51090197       6.63333859        9       0.00000000       0.12124747      -0.04347152       0.68549507
Pt       5.27185268       4.50326127       6.64435567        9       0.00000000       0.04135846      -0.15125699       0.63737310
Pt       7.96455753       4.53949607       6.70616022       10       0.00000000      -0.07346079      -0.06011658      -0.17876875
Ni      10.42627682       4.54848714       6.75687449       11       1.00000000       0.06358450      -0.01509759      -0.33189349
Pt       3.94343823       6.90529671       6.63477638        9       0.00000000       0.04907114       0.06956672       0.55481342
Pt       6.64007115       6.85164073       6.68785193       10       0.00000000       0.03059417      -0.11823845       0.78947266
Ni       9.16282998       6.81838643       6.75934948       11       1.00000000      -0.06282589      -0.04987652      -0.14917640
Pt      11.63975443       6.88191870       6.77755059       11       0.00000000       0.03746454      -0.01801790      -0.20034163
