64
Lattice="10.468719358943305 0.023130115611124023 0.00308812449957784 5.254390947183356 9.066936238269333 -0.04860445417336176 0.0025214430953846407 -0.04728047470567341 8.978183359811515" Properties=species:S:1:pos:R:3:tags:I:1:initial_magmoms:R:1:forces:R:3 unique_id=8757b0a2369e4fdda8d138f5bf05aacf stress="-8.678888698272075e-05 -9.164356556391546e-07 -4.587458184937692e-06 -9.164356556391546e-07 -8.421691990465746e-05 3.895406307143945e-06 -4.587458184937692e-06 3.895406307143945e-06 -7.118949339832148e-05" energy=-406.5126671701497 pbc="T T T"
Ni      -0.06410648      -0.02247241       0.18171068        4       1.00000000      -0.18929532      -0.05054688       0.10705500
Ni       2.64859676      -0.03371048       0.17650971        4       1.00000000       0.12207633      -0.07826255       0.14577898
Ni       5.26242798      -0.02867121       0.16140125        4       1.00000000       0.08216359       0.00150865       0.11420149
Ni       7.87659757      -0.03541206       0.12569397        4       1.00000000       0.01012081      -0.11672793       0.08652858
Pt       1.28772412       2.28786556       0.12127903        4       0.00000000      -0.00588147       0.01722188      -0.12115238
Pt       3.93426880       2.31745226       0.15090683        4       0.00000000       0.01757808       0.09323399      -0.08135795
Pt       6.58113100       2.19434662       0.13713526        4       0.00000000       0.04029368      -0.12064614      -0.08541825
Ni       9.15672634       2.24176900       0.15915866        4       1.00000000      -0.06082234      -0.12556776       0.13890617
Ni       2.62872282       4.56961123       0.03618498        4       1.00000000       0.03875940       0.05951398      -0.06917389
Ni       5.25793692       4.54201696       0.13784517        4       1.00000000       0.20054761      -0.04207393       0.09404538
Pt       7.93104174       4.56008890       0.13479569        4       0.00000000       0.07371848      -0.02627609      -0.02770241
Ni      10.49467619       4.59494718       0.03535999        4       1.00000000       0.01404563       0.10554116      -0.04228244
Ni       3.91070749       6.82944335       0.15306192        4       1.00000000      -0.02597437       0.09008142       0.14864258
Pt       6.53783145       6.84734042       0.17856801        4       0.00000000      -0.00983704      -0.00310748       0.01088299
Ni       9.20160954       6.81521075       0.04756451        4       1.00000000       0.00315973      -0.02089036       0.00600241
Ni      11.81487585       6.82534194       0.02514210        4       1.00000000       0.09339852       0.04229047      -0.06088273
Pt       1.27394523       0.66583699       2.18993295        3       0.00000000      -0.02484719      -0.03443419       0.04488669
Pt       3.99339449       0.76533536       2.24963295        3       0.00000000       0.04034715       0.00518512       0.06427513
Ni       6.58810391       0.73522522       2.26794357        3       1.00000000       0.06442689      -0.05170688       0.01427458
Ni       9.10407134       0.72134894       2.20427382        3       1.00000000      -0.11172999      -0.01144570      -0.01657384
Ni       2.62443441       3.03019792       2.23935764        3       1.00000000      -0.06455099       0.00237769       0.01396096
Ni       5.26659844       3.02173480       2.26273140        3       1.00000000       0.04894749      -0.00339045       0.00111748
Pt       7.79754939       3.01437676       2.35492416        3       0.00000000      -0.03590988       0.00420428       0.01097247
Pt      10.40314310       3.06768276       2.22015955        3       0.00000000      -0.09212968       0.05036245       0.00055636
Pt       3.97991139       5.29408560       2.13079284        3       0.00000000       0.02449205      -0.02812062       0.02880761
Ni       6.59318788       5.29299606       2.24669575        3       1.00000000       0.08368767       0.00290954       0.02439195
Ni       9.14300590       5.32472344       2.28029455        3       1.00000000      -0.01487904       0.02804601       0.08317976
Pt      11.79327082       5.31019270       2.13803306        3       0.00000000       0.03035132      -0.02216448      -0.05550762
Ni       5.20853473       7.54878083       2.18498522        3       1.00000000      -0.09343925       0.01302314       0.02628388
Ni       7.88704987       7.48926699       2.21683969        3       1.00000000       0.05642611      -0.08746329       0.05502497
Pt      10.48946354       7.52896144       2.12468533        3       0.00000000       0.00364086      -0.03612968       0.01851412
Ni      13.11893660       7.61173244       2.15490029        3       1.00000000      -0.05136156       0.01721027      -0.03872599
Pt      -0.09795999       1.52393388       4.40131773        2       0.00000000      -0.10700903       0.02308988      -0.03395398
Pt       2.63707427       1.49324463       4.39566775        2       0.00000000      -0.07277563      -0.04709283      -0.04716250
Ni       5.28940681       1.50837456       4.40641560        2       1.00000000       0.04034014       0.01723060      -0.13340167
Ni       7.81921017       1.52907655       4.41930744        2       1.00000000      -0.02618606       0.00098962      -0.06774335
Pt       1.24278540       3.82788414       4.44965988        2       0.00000000      -0.02625868       0.03597354      -0.10874341
Pt       3.99373114       3.73070386       4.35325877        2       0.00000000      -0.00302035       0.01069564      -0.06225082
Ni       6.58868609       3.74718243       4.42688936        2       1.00000000       0.00612584       0.01261983       0.02000704
Ni       9.13431058       3.82238001       4.41854290        2       1.00000000      -0.03386132       0.04725857      -0.08505170
Pt       2.58245490       6.03466327       4.44651972        2       0.00000000       0.02998149       0.02680224      -0.05473672
Pt       5.33210017       5.97522485       4.34426955        2       0.00000000       0.01925546      -0.04627161       0.00459302
Ni       7.92224237       5.97373809       4.36683712        2       1.00000000       0.02177759      -0.06985443      -0.15473304
Ni      10.42591312       6.01438210       4.46978380        2       1.00000000      -0.02950172      -0.01194756      -0.07415235
Pt       3.91401967       8.30685461       4.32299746        2       0.00000000       0.02059943      -0.02865272      -0.03410144
Pt       6.58054724       8.24685302       4.34002783        2       0.00000000      -0.00369017       0.02226238      -0.00330460
Pt       9.19828381       8.19792071       4.40242539        2       0.00000000      -0.01495419       0.01102420       0.02350160
Pt      11.79490592       8.36535791       4.38041676        2       0.00000000      -0.01075958       0.01869189      -0.03517210
Pt      -0.04865563      -0.03419588       6.74733006        1       0.00000000      -0.01375334       0.02075732       0.09116217
Pt       2.65081390      -0.05590038       6.75071939        1       0.00000000       0.03453903       0.02564741       0.14787640
Pt       5.29596079      -0.12543022       6.74206188        1       0.00000000       0.05822286      -0.06750485       0.11800463
Ni       7.83998956      -0.02360589       6.66691800        1       1.00000000       0.01063045       0.04258356      -0.09482621
Pt       1.30307404       2.32798694       6.61503173        1       0.00000000       0.00133533       0.04482693       0.01970273
Pt       3.93580344       2.25516690       6.60260874        1       0.00000000       0.03776959      -0.02297789       0.00837071
Pt       6.56588175       2.20920080       6.53278830        1       0.00000000       0.00038261       0.00834006      -0.04011788
Pt       9.15401636       2.27400966       6.69213503        1       0.00000000       0.00377886       0.07309987       0.14054281
Ni       2.58225972       4.53613719       6.64962019        1       1.00000000      -0.05090529       0.04932409      -0.12144429
Pt       5.22262328       4.52294423       6.68022378        1       0.00000000      -0.03796007       0.05130698       0.06920005
Pt       7.95471355       4.56277015       6.52247282        1       0.00000000       0.01749138       0.05125404      -0.00801466
Ni      10.49773219       4.60117178       6.62838136        1       1.00000000       0.03289150       0.12060377      -0.09718375
Pt       3.81308996       6.77607638       6.73114178        1       0.00000000      -0.13040801       0.04454277       0.16612403
Pt       6.59691178       6.76700275       6.60165518        1       0.00000000      -0.00969273       0.02344791       0.03508865
Ni       9.23815745       6.74232129       6.61387969        1       1.00000000       0.06011540      -0.03130756      -0.09567314
Ni      11.74727282       6.73352950       6.63978538        1       1.00000000      -0.09202407      -0.13051925      -0.13191822
