64
Lattice="10.463748868692994 0.015457383890688337 0.020783211063556205 5.245260921471884 9.069203334472535 -0.03982546892461638 0.0 0.0 21.70520426731943" Properties=species:S:1:pos:R:3:tags:I:1:initial_magmoms:R:1:forces:R:3 unique_id=3bb040cc60804548b52221cfbe1d20db stress="0.006332867238702065 -1.560763458253191e-05 0.00034161606892540503 -1.560763458253191e-05 0.006184537263345333 -0.00033954052114453767 0.00034161606892540503 -0.00033954052114453767 -0.0022250055021503373" energy=-383.29651225156954 pbc="T T T"
Ni      -0.05489023      -0.02355959       0.12793074        1       1.00000000      -0.18299092      -0.05554086      -0.12281382
Ni       2.64554732      -0.02964200       0.03147341        0       1.00000000       0.08302677      -0.00472053       0.29852642
Ni       5.25648001      -0.03465370       0.11756821        1       1.00000000       0.13132215       0.06387190      -0.21920978
Ni       7.87342630      -0.04012714       0.08610728        1       1.00000000      -0.02093971      -0.07222043       0.56646336
Pt       1.28658509       2.27494877       0.06997889        1       0.00000000       0.17758065       0.09302173      -1.00790224
Pt       3.93349948       2.30187143       0.10723361        1       0.00000000       0.01763281       0.17426772      -0.79299939
Pt       6.57722008       2.19108851       0.09902964        1       0.00000000      -0.07897194      -0.12916138      -0.22869257
Ni       9.15265564       2.23898804       0.12181938        1       1.00000000      -0.01858059      -0.14649731      -0.02168018
Ni       2.63076300       4.55925194       0.08513397        1       1.00000000       0.01149001      -0.08537598      -0.30165902
Ni       5.25323945       4.54077650       0.09301070        1       1.00000000       0.19955940      -0.04038512      -0.10385725
Pt       7.92209367       4.56067956       0.09725162        1       0.00000000      -0.02238038       0.06644463      -0.14402039
Ni      10.48340931       4.58495887       0.00684687        0       1.00000000       0.00606258       0.07713219       0.27304979
Ni       3.90808690       6.83211884       0.10548288        1       1.00000000      -0.03105297       0.12899925      -0.01683123
Pt       6.53720411       6.85226360       0.13658521        1       0.00000000      -0.04476665      -0.02069788      -0.34801510
Ni       9.19364367       6.81886889       0.00898962        0       1.00000000      -0.03926409      -0.04429779       0.39898354
Ni      11.79953080       6.82651043       0.00000000        0       1.00000000       0.12612840       0.06178415       0.41635092
Pt       1.28673917       0.65773152       2.14035916        2       0.00000000      -0.00308869      -0.17991480       0.14759133
Pt       3.98679608       0.75631232       2.20779360        3       0.00000000       0.03565289      -0.11353990       0.17174475
Ni       6.58668169       0.73089689       2.22913559        3       1.00000000       0.08947687      -0.05987686       0.16196339
Ni       9.10509069       0.71685913       2.16810001        3       1.00000000      -0.12741789      -0.02582514       0.02189326
Ni       2.62573705       3.02618250       2.18982981        3       1.00000000      -0.03074904       0.00813575       0.32340304
Ni       5.26449412       3.02005800       2.21990381        3       1.00000000       0.06941598       0.02457713       0.26265723
Pt       7.79638675       3.00958817       2.31727235        4       0.00000000      -0.02765093      -0.01957468       0.23564694
Pt      10.40106690       3.05809447       2.18547212        3       0.00000000      -0.22101451       0.11832105       0.12128180
Pt       3.98759880       5.29960680       2.09417097        2       0.00000000       0.06789462       0.00872876       0.07544748
Ni       6.58825019       5.29276864       2.20626190        3       1.00000000       0.09507497      -0.03701114       0.28001033
Ni       9.13847969       5.32148953       2.24229487        3       1.00000000      -0.07064146       0.05444100       0.19819828
Pt      11.77435042       5.31234646       2.11425992        2       0.00000000       0.03914867      -0.04167176       0.05772839
Ni       5.20826703       7.55090765       2.14450129        2       1.00000000      -0.11411665       0.01512157       0.18253974
Ni       7.87893769       7.49615736       2.18512375        3       1.00000000       0.11193559      -0.10460694       0.17220970
Pt      10.47729428       7.53150646       2.09793764        2       0.00000000      -0.01517379       0.00839500       0.02941306
Ni      13.11088144       7.60979612       2.12921363        2       1.00000000      -0.04095916       0.06540402      -0.03763471
Pt      -0.09607387       1.52150817       4.34451985        5       0.00000000      -0.13390237       0.03416019      -0.24544590
Pt       2.64524390       1.47893470       4.36274486        6       0.00000000      -0.08792166      -0.13740724      -0.23416386
Ni       5.29476395       1.50192377       4.36383595        6       1.00000000       0.05324773       0.05017204      -0.34249072
Ni       7.82119724       1.52474228       4.38240115        6       1.00000000      -0.05174533       0.03780869      -0.20986062
Pt       1.24057894       3.81409591       4.38510143        6       0.00000000      -0.10453253       0.05667313      -0.16861752
Pt       4.00395782       3.71950282       4.30664552        5       0.00000000       0.05058636       0.05112470      -0.22343074
Ni       6.59472116       3.74543467       4.38719859        6       1.00000000       0.01244680      -0.00130045      -0.21724850
Ni       9.13192455       3.81749363       4.38576427        6       1.00000000      -0.04096334       0.04760513      -0.25562581
Pt       2.58506909       6.04979517       4.36755579        6       0.00000000       0.01338350      -0.00169690      -0.09620486
Pt       5.33824278       5.98127291       4.31215956        5       0.00000000       0.02980260      -0.10570133      -0.15411942
Ni       7.92077682       5.97430168       4.33367519        5       1.00000000       0.08271821      -0.10132955      -0.31339776
Ni      10.42345922       6.01279342       4.43739352        6       1.00000000      -0.03007549      -0.00750638      -0.06045908
Pt       3.91472874       8.31539935       4.28169909        5       0.00000000       0.00576751       0.00833146      -0.15681503
Pt       6.58222359       8.25657379       4.32022329        5       0.00000000      -0.03983981       0.14740149      -0.18545175
Pt       9.18384394       8.20124032       4.39840861        6       0.00000000      -0.00814205      -0.02727244      -0.08586959
Pt      11.78191745       8.36599783       4.36049480        6       0.00000000      -0.07409826       0.03096270      -0.05577348
Pt       0.00315593      -0.02968771       6.69851350        9       0.00000000       0.05478588       0.02902365       0.08149114
Ni       2.64845017      -0.04968715       6.63469052        8       1.00000000       0.01604899       0.05218922      -0.15063908
Pt       5.24043809      -0.13178438       6.70520427        9       0.00000000      -0.02099004       0.20700781      -0.02662951
Ni       7.83729505      -0.02767056       6.63559074        8       1.00000000       0.00065786       0.00237313      -0.27975569
Pt       1.30848755       2.24145761       6.56133515        8       0.00000000      -0.02076232      -0.00149748       0.92250622
Pt       3.94215484       2.19169821       6.56314964        8       0.00000000       0.14219828      -0.00942267       0.74113032
Pt       6.56806200       2.19233420       6.49649263        7       0.00000000      -0.09680156       0.02903795       0.40660085
Pt       9.15688331       2.26143700       6.65773773        9       0.00000000      -0.07215009       0.13903590       0.01671088
Pt       2.55088317       4.55407673       6.67538812        9       0.00000000       0.08784430      -0.10083797       0.18170278
Pt       5.26351014       4.52250436       6.63494878        8       0.00000000       0.09326068       0.03193541       0.22470260
Pt       7.95381553       4.56273776       6.48859988        7       0.00000000      -0.11946215      -0.01922947       0.28203668
Ni      10.46527394       4.58455164       6.59674190        8       1.00000000      -0.00691234       0.05773216      -0.25485674
Pt       3.86317176       6.82651597       6.67445655        9       0.00000000       0.12249297      -0.03363153      -0.00522523
Pt       6.65733588       6.81548124       6.56630891        8       0.00000000      -0.02211855      -0.11482283       0.39105770
Ni       9.22479623       6.75962662       6.58402241        8       1.00000000       0.04169805      -0.06390887      -0.28032008
Ni      11.73870927       6.77314097       6.60983730        8       1.00000000      -0.04816484      -0.07473704      -0.29532530
