64
Lattice="10.390043282171984 -0.044804944531598175 0.09231618474929441 5.156219420906478 8.914643502510147 0.04715539062231612 0.0 0.0 21.648281633791193" Properties=species:S:1:pos:R:3:tags:I:1:initial_magmoms:R:1:forces:R:3 unique_id=daf40c4054c54a7eb3843bdb5a8a7249 stress="0.0043583618116453116 -0.0004808965095438097 0.0007553735567989308 -0.0004808965095438097 0.0040978954564793585 0.0001339730025809426 0.0007553735567989308 0.0001339730025809426 -0.0041763272606643205" energy=-380.37107963358926 pbc="T T T"
Ni      -0.00625365      -0.01656821       0.10655733        1       1.00000000       0.02472515       0.04066382      -0.17406252
Ni       2.62936572      -0.02137527       0.05873350        1       1.00000000       0.07182613       0.03891502       0.34116094
Ni       5.20016330      -0.04941777       0.12703514        1       1.00000000       0.00025689       0.06492944      -0.40649933
Ni       7.79150585      -0.10076261       0.18621630        2       1.00000000      -0.07524241      -0.05593615      -0.15493502
Pt       1.30295300       2.23258705       0.03024160        0       0.00000000      -0.01511572      -0.00558298       0.15362657
Pt       3.87445978       2.16558847       0.14719687        1       0.00000000       0.03555336       0.04578750      -0.43353699
Pt       6.49231795       2.11859736       0.07355480        1       0.00000000       0.06225086       0.02297644      -0.09216727
Pt       9.11351004       2.18784171       0.12016319        1       0.00000000       0.04240960       0.09614720      -0.55623695
Ni       2.56677655       4.50108294       0.06462327        1       1.00000000      -0.00069120      -0.01841065      -0.15253163
Pt       5.13616033       4.48725208       0.00000000        0       0.00000000       0.19211176      -0.02194794      -0.24646307
Pt       7.81780720       4.48741088       0.11863185        1       0.00000000      -0.21480209      -0.02301669      -0.81494046
Ni      10.41388417       4.47477019       0.08359248        1       1.00000000       0.02608609      -0.00863978       0.15240669
Ni       3.82802529       6.73189233       0.05239001        1       1.00000000      -0.00398719       0.06980985       0.33173459
Pt       6.47734585       6.78387580       0.17833479        2       0.00000000       0.00100292      -0.09573922      -0.53887081
Ni       9.10517708       6.70770649       0.07277674        1       1.00000000      -0.04454363       0.02860793       0.20443140
Ni      11.68923586       6.65971699       0.08657148        1       1.00000000       0.10922637       0.04293637       0.31732418
Ni       1.35147204       0.75788510       2.14951795        3       1.00000000       0.06957882       0.06306656       0.11121853
Ni       3.86079068       0.73074781       2.19403794        4       1.00000000      -0.13055060      -0.01394336       0.16664011
Ni       6.52289385       0.73256123       2.20353021        4       1.00000000       0.01521143       0.07912034       0.16586242
Pt       9.11458798       0.70982528       2.25442003        5       0.00000000       0.06586669      -0.01277574       0.14990882
Ni       2.59051317       2.92356802       2.24263403        4       1.00000000      -0.00684136      -0.09215813       0.30239607
Ni       5.20173575       2.95571297       2.20397385        4       1.00000000       0.03243213       0.07014432       0.15990399
Ni       7.78720315       2.91451968       2.24726874        4       1.00000000      -0.00028594      -0.08658169       0.14460581
Ni      10.41971788       2.91072061       2.30341360        5       1.00000000       0.06001077      -0.06637767       0.25705948
Pt       3.89526705       5.19622333       2.19970137        4       0.00000000       0.06921453      -0.03272854       0.06011043
Ni       6.48576543       5.19763964       2.22157419        4       1.00000000      -0.05631662       0.00871602       0.19186729
Pt       9.04767264       5.14690814       2.28984891        5       0.00000000       0.05900140      -0.03713338       0.13152298
Pt      11.69378168       5.11084734       2.23049679        4       0.00000000      -0.07435956      -0.08537242       0.09709328
Ni       5.17857722       7.44613790       2.18876880        4       1.00000000      -0.07412288       0.04997881       0.18399082
Ni       7.77516119       7.45259188       2.21528974        4       1.00000000       0.03824431       0.08480288       0.12273289
Pt      10.37963043       7.45050492       2.14721466        3       0.00000000       0.04475788      -0.06695242       0.07113545
Ni      12.98906790       7.38833272       2.22110207        4       1.00000000       0.05371529      -0.02505109       0.10479944
Ni       0.07583084       1.55948819       4.27573893        6       1.00000000       0.08949474       0.00914852      -0.26844524
Ni       2.58573770       1.54123863       4.30643984        6       1.00000000      -0.04280673       0.04984249      -0.20585590
Pt       5.20197268       1.50120146       4.26214867        6       0.00000000      -0.00887628      -0.01579454      -0.21673465
Ni       7.84238323       1.48193363       4.36838125        7       1.00000000      -0.02331069      -0.01609663      -0.22751286
Ni       1.33110781       3.65866082       4.32165198        6       1.00000000       0.01822785      -0.08523448      -0.18757868
Ni       3.85212151       3.69873629       4.32289532        6       1.00000000      -0.09679105      -0.03083077      -0.31365342
Pt       6.56620040       3.68623567       4.29871356        6       0.00000000      -0.02525526      -0.04192779      -0.24232028
Ni       9.14921220       3.63108253       4.34315992        6       1.00000000       0.10288458      -0.17203482      -0.33759344
Ni       2.59842633       5.90994981       4.35540858        7       1.00000000      -0.00652521      -0.09503644      -0.13151299
Pt       5.18444156       5.89617107       4.36914081        7       0.00000000      -0.09660940      -0.04350352      -0.07235871
Ni       7.79877717       5.92450054       4.36139070        7       1.00000000      -0.05537455       0.04507182      -0.24746485
Pt      10.41074509       5.81288001       4.51891890        8       0.00000000      -0.04757167      -0.09753881       0.08034951
Pt       3.89892575       8.18161799       4.34802861        6       0.00000000       0.05725680       0.09760509      -0.02259523
Pt       6.50213897       8.24897995       4.27444564        6       0.00000000      -0.08874178       0.22038494      -0.15099299
Pt       9.04715520       8.14601289       4.39555736        7       0.00000000       0.00580179       0.01711943      -0.03232005
Pt      11.71558383       8.12586017       4.37565536        7       0.00000000      -0.08848727      -0.03047679      -0.09999778
Pt       0.10709249       0.02570082       6.55689585       11       0.00000000      -0.09170104       0.14531267       0.16917992
Ni       2.64197367      -0.00712808       6.51977081       10       1.00000000      -0.00732060       0.06294120      -0.14569779
Pt       5.19452834      -0.07860143       6.62269463       11       0.00000000       0.01634503       0.16865683       0.25878037
Pt       7.81942314      -0.07814134       6.64828163       11       0.00000000      -0.01003220       0.21690612       0.25224751
Ni       1.34260042       2.24657669       6.38783413        9       1.00000000       0.03957868       0.04596564      -0.09765415
Pt       3.89551796       2.23191184       6.45148183       10       0.00000000      -0.15785129       0.05124174       0.42184370
Ni       6.52315604       2.20780946       6.46388527       10       1.00000000       0.00090913      -0.08321859       0.00083307
Pt       9.17801009       2.22798020       6.43456153        9       0.00000000      -0.04075768      -0.12097082       0.56206670
Pt       2.57737913       4.50679433       6.48915280       10       0.00000000       0.05830383      -0.21034775      -0.15313655
Ni       5.21232477       4.42488214       6.44270958        9       1.00000000      -0.01717404      -0.05873162       0.22014858
Pt       7.86169951       4.44818975       6.46233829       10       0.00000000       0.09890976       0.05333913       0.64908600
Ni      10.44234755       4.42631177       6.59016503       11       1.00000000      -0.02960137      -0.11650329      -0.06051357
Ni       3.89605174       6.66204103       6.53475354       10       1.00000000       0.01651790       0.01983829      -0.14957348
Pt       6.53906561       6.67513736       6.51128235       10       0.00000000       0.15280358      -0.10080291       0.53796245
Ni       9.12908192       6.63864536       6.58816203       11       1.00000000      -0.08183245      -0.04333839      -0.02351368
Ni      11.69691793       6.61968112       6.60931606       11       1.00000000      -0.01703627       0.10075940      -0.11675968
