64
Lattice="10.761037849662902 0.004118962149985316 0.008294423229891884 5.384086050690567 9.324796530642336 -0.0034112384073747113 0.0 0.0 21.993861583305364" Properties=species:S:1:pos:R:3:tags:I:1:initial_magmoms:R:1:forces:R:3 unique_id=3e2119dd6a7d4ad6a241a8764381b7ac stress="0.0030169424074176845 -5.047587649469859e-05 -2.314207356313409e-05 -5.047587649469859e-05 0.0029908248953246872 5.038110847436244e-05 -2.314207356313409e-05 5.038110847436244e-05 -0.0016558080185833674" energy=-404.0913848594547 pbc="T T T"
Pt       0.01234983      -0.02412962       0.04083906        0       0.00000000      -0.02317100      -0.00359051      -0.26394842
Pt       2.67387514      -0.02274813       0.04995068        0       0.00000000      -0.01647812       0.06775167      -0.35324008
Pt       5.37859545       0.00102643       0.04997437        0       0.00000000      -0.00065059      -0.01662704      -0.34259494
Pt       8.07785729       0.00104826       0.04580071        0       0.00000000       0.05368285      -0.11006479      -0.26755599
Pt       1.35636369       2.35379960       0.03974982        0       0.00000000      -0.03663041      -0.01556787      -0.26440660
Pt       4.02307040       2.36379688       0.05031160        1       0.00000000       0.03530303       0.04817931      -0.30740321
Pt       6.73463668       2.34371154       0.05547318        1       0.00000000       0.06542871       0.14390816      -0.21838760
Pt       9.41456110       2.34177816       0.00000000        0       0.00000000      -0.02316510       0.07614023       0.12368407
Ni       2.69500666       4.66448761       0.03346119        0       1.00000000       0.02507371       0.01648797       0.29985801
Pt       5.36908263       4.68939167       0.04966539        0       0.00000000       0.02619588      -0.01805414      -0.32190980
Pt       8.06029215       4.67871087       0.05563311        1       0.00000000       0.00792082      -0.11529260      -0.16368043
Pt      10.78568050       4.66228141       0.04594782        0       0.00000000      -0.03888391       0.02130538      -0.21092216
Pt       4.05403375       6.96626086       0.04300863        0       0.00000000      -0.02811496       0.02590393      -0.37294433
Ni       6.72758996       6.99372640       0.04060619        0       1.00000000      -0.02399122      -0.02243450       0.36442177
Pt       9.38985055       6.98941195       0.04881612        0       0.00000000       0.05666163      -0.10394926      -0.29680956
Pt      12.12776416       6.96641767       0.04820991        0       0.00000000       0.04162831      -0.01425521      -0.38299550
Pt       1.33806015       0.78313451       2.33092045        2       0.00000000      -0.11938232       0.11894541       0.54998319
Pt       4.04277742       0.78072180       2.33456713        2       0.00000000       0.03843765       0.03201837       0.52108264
Pt       6.75787484       0.81719618       2.36165705        3       0.00000000       0.07692673       0.10264930       0.51475612
Pt       9.39101289       0.82292729       2.36813379        3       0.00000000      -0.04154521       0.12199869       0.52724671
Pt       2.68857550       3.12030683       2.30415932        2       0.00000000      -0.05099715       0.07363899       0.38409312
Pt       5.42548938       3.11191281       2.33569795        2       0.00000000       0.12570864       0.04550064       0.51251310
Ni       8.07919260       3.10564832       2.34662663        2       1.00000000       0.03386072      -0.00954688       0.51242575
Pt      10.71006769       3.11177775       2.36763303        3       0.00000000      -0.17475700      -0.03073533       0.51992562
Pt       4.03324011       5.42870496       2.29858731        2       0.00000000      -0.06325263      -0.08056575       0.36718868
Pt       6.74470202       5.41879303       2.31046367        2       0.00000000      -0.01042924       0.02582517       0.38436767
Pt       9.40176309       5.39587733       2.35490123        3       0.00000000      -0.02432478      -0.11824067       0.52886936
Pt      12.11323549       5.42867619       2.30792845        2       0.00000000       0.00413437      -0.09573560       0.35169803
Pt       5.39486454       7.76161326       2.29853674        2       0.00000000       0.04848089      -0.04962758       0.38002607
Pt       8.06387456       7.75322744       2.30765316        2       0.00000000      -0.07288338      -0.13102081       0.36192610
Pt      10.76454981       7.76670231       2.33570383        2       0.00000000      -0.01344308      -0.04328196       0.54821085
Pt      13.46060834       7.78210652       2.33181073        2       0.00000000       0.05830970       0.10008598       0.50091289
Pt      -0.08215658       1.59984125       4.66721424        5       0.00000000      -0.34835317       0.21818529      -0.22235043
Pt       2.68373234       1.55365775       4.64203542        4       0.00000000      -0.12668161       0.03061040      -0.55394186
Pt       5.42738137       1.55911465       4.63818052        4       0.00000000       0.09141882       0.06164298      -0.46573531
Ni       8.08835618       1.57707964       4.65860399        5       1.00000000       0.11502951       0.15800817      -0.40802844
Pt       1.31194169       3.87724571       4.63012792        4       0.00000000      -0.03455285      -0.00084843      -0.48578039
Pt       4.04586035       3.88228758       4.63192440        4       0.00000000       0.05734819       0.01540836      -0.49973106
Pt       6.81299714       3.83577607       4.61347598        4       0.00000000       0.29952274      -0.14724763      -0.60201214
Ni       9.40666315       3.86068568       4.66018454        5       1.00000000      -0.07080793      -0.16355271      -0.41145546
Pt       2.69162823       6.21015551       4.63035951        4       0.00000000      -0.01079087      -0.04342006      -0.47533815
Pt       5.39916596       6.20968784       4.63188868        4       0.00000000       0.10625721      -0.05886716      -0.50498691
Pt       8.08870245       6.17617851       4.63241901        4       0.00000000      -0.02941650      -0.07024276      -0.44889172
Pt      10.74757338       6.18426244       4.64118810        4       0.00000000      -0.04280752      -0.07783460      -0.52929262
Pt       4.02627640       8.58349808       4.63358220        4       0.00000000       0.00055754       0.05608490      -0.52758574
Pt       6.72403459       8.54614179       4.63168118        4       0.00000000      -0.07161232       0.01172091      -0.52523051
Pt       9.42821622       8.54264338       4.63653681        4       0.00000000      -0.00157377      -0.03201947      -0.53193544
Pt      12.13113477       8.57733292       4.63692799        4       0.00000000       0.03976038       0.03557707      -0.51535148
Pt      -0.01110843       0.02379871       6.91746430        6       0.00000000      -0.00269713       0.06917726       0.26227800
Pt       2.68801720      -0.00471330       6.93161178        6       0.00000000      -0.03616190       0.05847627       0.44116302
Pt       5.39163097       0.00176666       6.92441650        6       0.00000000       0.03473261       0.04057716       0.42229814
Pt       8.09340440       0.03913246       6.90779834        6       0.00000000       0.02331397       0.21977333       0.22119910
Pt       1.31543563       2.33028522       6.91723034        6       0.00000000      -0.06238866      -0.05280634       0.27097716
Pt       4.04246695       2.33032911       6.92504630        6       0.00000000       0.04844754      -0.04657483       0.34221135
Pt       6.78089371       2.32642620       6.90083439        6       0.00000000       0.16562869      -0.04657987       0.13919343
Ni       9.41783883       2.33089346       6.91900737        6       1.00000000      -0.05332730       0.03870891      -0.38827583
Pt       2.68924041       4.65310970       6.99042410        7       0.00000000      -0.07165859      -0.04529462       0.00370105
Pt       5.39449726       4.65591797       6.92720994        6       0.00000000       0.13299169      -0.08750048       0.22861226
Pt       8.10229798       4.62229818       6.90272033        6       0.00000000       0.14246685      -0.12325728       0.10218373
Pt      10.74417112       4.62469939       6.91038718        6       0.00000000      -0.20950746      -0.12646825       0.18195584
Pt       4.04391775       6.99430542       6.92470444        6       0.00000000      -0.00087384       0.10518747       0.29222530
Pt       6.73453187       6.98821888       6.99386158        7       0.00000000       0.02560849      -0.02418102       0.02602870
Pt       9.41840487       6.98222273       6.92680044        6       0.00000000       0.00827953      -0.06177012       0.39799950
Pt      12.11420816       6.98955206       6.92283820        6       0.00000000      -0.05380587       0.04757847       0.27750575
