64
Lattice="10.035199317429297 -0.0006998085711197792 0.011470149424019912 5.01699360671427 8.71924792061178 0.030414812895470284 0.0 0.0 21.39992391011705" Properties=species:S:1:pos:R:3:tags:I:1:initial_magmoms:R:1:forces:R:3 unique_id=b0082488802b4aeca78717198209dee7 energy=-365.84332245799476 stress="0.003783141811934893 -7.151161231608194e-05 -0.00013409932909139781 -7.151161231608194e-05 0.00411095880813756 0.0001402681418846665 -0.00013409932909139781 0.0001402681418846665 -0.0027820817233210303" pbc="T T T"
Pt       0.03871525      -0.04355181       0.05607994        1       0.00000000       0.11188501       0.09891641      -0.16867318
Ni       2.55258068       0.00846007       0.19565098        2       1.00000000       0.00618901       0.02311789      -0.37427133
Ni       4.97676620       0.04610025       0.13326621        1       1.00000000      -0.07215072       0.02136296      -0.41147305
Ni       7.51156280       0.01512609       0.03859214        0       1.00000000      -0.01646902       0.04871258      -0.08819663
Ni       1.30743760       2.20934574       0.18270839        2       1.00000000      -0.01407788      -0.03002765      -0.16766951
Ni       3.76624144       2.19433924       0.10630541        1       1.00000000      -0.01450310       0.01713637       0.28166957
Ni       6.21696470       2.23194697       0.05381556        1       1.00000000      -0.03937480       0.12184503       0.09411919
Pt       8.75076437       2.24091665       0.07322694        1       0.00000000       0.03007550      -0.05649231      -0.14170014
Ni       2.54173654       4.31616934       0.18700647        2       1.00000000       0.01902277       0.02998883      -0.19704629
Ni       5.02410306       4.35692833       0.10237880        1       1.00000000      -0.03053508      -0.04645941       0.18760139
Ni       7.49060699       4.40580199       0.09587057        1       1.00000000      -0.03624170      -0.06392501       0.12118259
Ni      10.03089824       4.36296293       0.11564433        1       1.00000000       0.04455533       0.03339470       0.08276270
Ni       3.81404153       6.47789395       0.07641479        1       1.00000000       0.02476430      -0.13474035      -0.00401834
Ni       6.29452140       6.49002142       0.10639935        1       1.00000000      -0.03343025       0.04047926       0.06857489
Ni       8.71519310       6.52267179       0.08019942        1       1.00000000       0.01718976       0.01938088       0.07629339
Pt      11.28703328       6.50573547       0.00000000        0       0.00000000      -0.03136420      -0.13917981      -0.47720856
Ni       1.27787415       0.77810018       2.14880372        3       1.00000000      -0.03715393       0.12044184       0.06446418
Ni       3.70989183       0.78647187       2.16188130        4       1.00000000      -0.01020610       0.08233886       0.26889751
Pt       6.27008745       0.82314114       2.16857712        4       0.00000000       0.04732970       0.06398858      -0.06692099
Ni       8.82898699       0.76686288       2.20857177        4       1.00000000       0.08796074       0.08446944       0.16465237
Ni       2.52124034       2.90902120       2.16871601        4       1.00000000       0.01890298      -0.01128328       0.19000486
Ni       4.98560850       2.96136545       2.15120068        4       1.00000000      -0.01136317      -0.01409162       0.14396225
Ni       7.51104652       2.97474196       2.16547209        4       1.00000000      -0.05374624       0.04299260      -0.00285771
Ni      10.07318801       2.91960675       2.17412068        4       1.00000000       0.02445888      -0.00122021       0.05216184
Ni       3.78363134       5.02878747       2.13503754        3       1.00000000      -0.03802349      -0.01265344       0.06175315
Ni       6.28213677       5.07664793       2.13206006        3       1.00000000       0.00556080      -0.04649740       0.06196478
Ni       8.74863066       5.06017636       2.12858285        3       1.00000000      -0.01719937      -0.00826874      -0.05432147
Ni      11.29160022       5.01600494       2.19107152        4       1.00000000      -0.02124155      -0.00948728       0.11300470
Ni       5.06976305       7.23200416       2.14696077        3       1.00000000       0.02032367      -0.06178959      -0.07362216
Ni       7.48383646       7.24759311       2.13794338        3       1.00000000       0.01155519      -0.08764783       0.00478291
Pt       9.95165285       7.23533932       2.21512226        4       0.00000000      -0.05805313      -0.03265616       0.01726922
Pt      12.62357705       7.24075366       2.21457163        4       0.00000000       0.07215555       0.00308641      -0.12788230
Ni      -0.01825798       1.46707779       4.20522832        5       1.00000000       0.07744429       0.07326955      -0.14446088
Ni       2.54680377       1.50630106       4.20402617        5       1.00000000      -0.04013984       0.00399502      -0.02685076
Ni       5.00806882       1.50506850       4.25522565        6       1.00000000      -0.08493975       0.00443750       0.00754622
Ni       7.51914783       1.44529152       4.28533841        6       1.00000000      -0.04990092       0.01656727      -0.06425083
Ni       1.28173041       3.65790008       4.19374732        5       1.00000000       0.06585950      -0.05108444      -0.13592610
Ni       3.76239981       3.59231569       4.22214218        5       1.00000000      -0.07227265      -0.05045530      -0.08211409
Ni       6.25962716       3.60072235       4.26416902        6       1.00000000      -0.03491495      -0.04203129      -0.13724292
Pt       8.77997630       3.65477900       4.24723028        5       0.00000000       0.03570587       0.02707946       0.06214125
Ni       2.47705453       5.81751521       4.25142919        6       1.00000000      -0.01019257      -0.16597842      -0.11847613
Pt       4.99430915       5.76024788       4.26021007        6       0.00000000      -0.04734526      -0.12211918       0.03758695
Ni       7.55770521       5.82686531       4.27380586        6       1.00000000       0.02335076       0.05068907      -0.13148857
Ni      10.05117260       5.82385955       4.30171626        6       1.00000000      -0.00726555      -0.03448704      -0.06631621
Ni       3.72771292       8.03711997       4.30294083        6       1.00000000      -0.00097454      -0.01456524      -0.13965062
Pt       6.27859516       8.03236707       4.20269602        5       0.00000000       0.08881538       0.09832906       0.09724900
Ni       8.80645447       8.00131688       4.27483334        6       1.00000000      -0.00192483       0.07900367       0.00259100
Ni      11.31947214       8.00279502       4.28791585        6       1.00000000      -0.05401663       0.07567436      -0.05378576
Ni      -0.06167937      -0.00991782       6.24350162        7       1.00000000       0.07470825       0.09963722       0.32560817
Pt       2.51616133      -0.04093613       6.39992391        9       0.00000000       0.01608712       0.04383878       0.37532061
Pt       5.10884545       0.02562490       6.34045208        8       0.00000000       0.00464800      -0.03655651       0.21557224
Ni       7.57692555       0.01478009       6.30191874        8       1.00000000      -0.03984157       0.02560531      -0.04547785
Pt       1.19177197       2.20785276       6.33560502        8       0.00000000      -0.05777914      -0.02841952       0.17745529
Ni       3.82252211       2.22301918       6.32446377        8       1.00000000      -0.02238463      -0.02877338      -0.13426109
Ni       6.30197794       2.23207750       6.31993082        8       1.00000000       0.08128176       0.02237380      -0.11807819
Ni       8.72151551       2.17340507       6.26519446        8       1.00000000      -0.02224390      -0.03275253       0.35611837
Pt       2.55824219       4.43020629       6.35843856        9       0.00000000      -0.04296006       0.02084250       0.05306205
Ni       5.07686887       4.34691830       6.37156553        9       1.00000000       0.03014866      -0.02920898      -0.08783860
Ni       7.51390569       4.38036284       6.35890128        9       1.00000000      -0.04354165      -0.05426564      -0.16873932
Ni       9.99879449       4.41861547       6.35551682        9       1.00000000       0.08378604      -0.02792849      -0.07299026
Ni       3.77558233       6.60563325       6.35351210        9       1.00000000      -0.02622827      -0.02643382      -0.05422128
Ni       6.26773030       6.49435751       6.37720265        9       1.00000000       0.01962891      -0.04708877      -0.05463124
Ni       8.79104524       6.48836194       6.33830823        8       1.00000000      -0.02085577       0.05340968      -0.08318735
Ni      11.30127143       6.56119430       6.22039139        7       1.00000000       0.07146248       0.00216374       0.51047707
