64
Lattice="10.245016484383111 0.02135388730364501 -0.045426276759572906 5.141001251066061 8.81517646217251 -0.09935618566017068 0.0 0.0 21.556767095157117" Properties=species:S:1:pos:R:3:tags:I:1:initial_magmoms:R:1:forces:R:3 unique_id=0fca86ef112548fbb9b3071302c4f28a energy=-372.214144009947 stress="0.005281116427460796 3.085474250056908e-05 -0.00016123161626610657 3.085474250056908e-05 0.004519533567096714 -0.00019970524166770977 -0.00016123161626610657 -0.00019970524166770977 -0.0014370126263678548" pbc="T T T"
Ni       0.03260134      -0.04894200       0.21829482        2       1.00000000       0.11801256      -0.02974172      -0.10943635
Ni       2.50115398      -0.03035233       0.22437949        2       1.00000000      -0.04011819      -0.01485013      -0.07221485
Pt       5.11233630      -0.05224597       0.15026017        2       0.00000000      -0.11556971       0.07243604      -1.01788714
Ni       7.70292231      -0.04445574       0.17278311        2       1.00000000      -0.05583480      -0.04311537      -0.23819010
Ni       1.27516463       2.20342451       0.12151070        1       1.00000000      -0.02735763       0.00228358       0.36639217
Pt       3.74110671       2.21872523       0.18538444        2       0.00000000       0.05687197      -0.01531904      -0.54198652
Pt       6.43600727       2.22644382       0.09167284        1       0.00000000      -0.04348665      -0.00972339      -0.25620245
Pt       9.04660251       2.25384520       0.10356127        1       0.00000000       0.05836744       0.07081232      -0.56744484
Ni       2.53236386       4.43341180       0.04797892        0       1.00000000       0.02458880       0.02706864       0.18409064
Pt       5.11773157       4.52141069       0.06534286        1       0.00000000      -0.09011459       0.08892365       0.03723220
Ni       7.69931747       4.46158127       0.03060588        0       1.00000000      -0.00845541       0.03533475       0.08307173
Ni      10.28103322       4.44339174       0.01133998        0       1.00000000       0.05522279       0.04170883       0.21902955
Ni       3.83065968       6.64359437       0.06180109        1       1.00000000       0.00115691       0.08267148       0.35995871
Ni       6.42671219       6.65132621       0.05938247        1       1.00000000      -0.02417915       0.07757948       0.36236646
Ni       8.94087699       6.58362326       0.09354575        1       1.00000000      -0.10633063       0.04945511      -0.20019896
Ni      11.57282001       6.58345068       0.00000000        0       1.00000000       0.04474463       0.02486967       0.21410696
Ni       1.29811213       0.72110762       2.23958759        4       1.00000000       0.00353220       0.04287866       0.22722200
Ni       3.76799734       0.73725033       2.23188120        4       1.00000000      -0.19460020      -0.06266435       0.12692889
Ni       6.42284891       0.74716974       2.23076181        4       1.00000000       0.09598459       0.00594656       0.15273617
Pt       8.98148720       0.72245354       2.22366866        4       0.00000000       0.10339837       0.04642466       0.01300667
Ni       2.54210479       2.89320217       2.27512728        5       1.00000000       0.05304981      -0.15423637       0.28121439
Ni       5.10510361       2.96325318       2.21466151        4       1.00000000      -0.07971138       0.15009473       0.09005620
Ni       7.66134030       2.93322738       2.22507187        4       1.00000000      -0.06983049      -0.07359004       0.18344639
Ni      10.29467273       2.91536502       2.22491785        4       1.00000000       0.13147193      -0.13965344       0.30824674
Ni       3.86816456       5.13663981       2.21506674        4       1.00000000       0.08735907      -0.00698573       0.24134672
Ni       6.37844143       5.16534770       2.18066449        4       1.00000000      -0.06096245       0.08818722       0.11110174
Pt       8.90203187       5.09057867       2.17151027        4       0.00000000      -0.03409677      -0.14397556       0.06773206
Pt      11.60522029       5.08234582       2.16223153        4       0.00000000       0.11638448      -0.19983626       0.12094215
Ni       5.16084512       7.28838656       2.13107073        3       1.00000000       0.02001827      -0.11446663       0.04122433
Ni       7.61101852       7.34783256       2.11194578        3       1.00000000      -0.16945344      -0.03124159       0.09060390
Pt      10.29101352       7.32747242       2.17567538        4       0.00000000       0.09705083       0.01918643      -0.03072089
Ni      12.84213758       7.32153913       2.08893116        3       1.00000000       0.13296052      -0.11399949       0.03151492
Ni       0.03917756       1.46519650       4.34945720        7       1.00000000       0.14861529      -0.00289272      -0.13791844
Ni       2.47953815       1.47769562       4.31005688        7       1.00000000      -0.09734115       0.04390146      -0.19596178
Pt       5.11754611       1.46717568       4.23844967        6       0.00000000      -0.10471518      -0.03183069      -0.15367717
Ni       7.67804033       1.45693264       4.31212595        7       1.00000000       0.03214209      -0.05323443      -0.25194507
Ni       1.27439126       3.62702634       4.37596183        8       1.00000000       0.05455596      -0.05758297      -0.01984689
Ni       3.78482016       3.70849858       4.29622340        7       1.00000000      -0.07505726       0.13144539      -0.27865844
Pt       6.42156440       3.71704537       4.30881717        7       0.00000000       0.02232277      -0.02230860      -0.10276041
Ni       8.99487041       3.67824039       4.28913285        7       1.00000000       0.12174056       0.03522311      -0.15002564
Ni       2.55579440       5.79725018       4.36152725        8       1.00000000       0.00907968      -0.11681397      -0.03269937
Ni       5.11267934       5.83975520       4.31421838        7       1.00000000       0.02886484      -0.00247063      -0.17894850
Ni       7.64281423       5.84794138       4.29963668        7       1.00000000      -0.11928904       0.08933531      -0.14328919
Ni      10.28086169       5.80324689       4.32362098        7       1.00000000       0.10217486      -0.05208077      -0.00354276
Pt       3.85025626       7.96473248       4.24750194        6       0.00000000       0.02867957      -0.06773050       0.05597688
Ni       6.38223378       8.02608992       4.23414555        6       1.00000000      -0.14516205      -0.02758992      -0.27463533
Pt       8.87627235       8.01613823       4.20561403        6       0.00000000      -0.18873156       0.08212420      -0.05505157
Ni      11.55254683       8.00939579       4.24127469        6       1.00000000       0.07105529      -0.10750937      -0.10663212
Pt      -0.01495860      -0.08992513       6.55676710       12       0.00000000       0.02827981       0.09793032       0.17339694
Pt       2.51215614      -0.03539015       6.54251871       11       0.00000000       0.00606086       0.11345284       0.27004916
Pt       5.11981328      -0.05468804       6.43789761       10       0.00000000       0.05910525       0.00568742       1.01953626
Pt       7.65980005      -0.07858077       6.51171413       11       0.00000000      -0.06817191       0.12467075       0.28730708
Ni       1.25398282       2.21924177       6.46738970       11       1.00000000       0.02709976       0.08683468      -0.26371028
Pt       3.78946778       2.29127105       6.41174723       10       0.00000000      -0.05779138       0.14900548       0.45957892
Ni       6.39015986       2.21602311       6.40243260       10       1.00000000       0.01327001       0.04537333       0.18174480
Pt       8.96024775       2.26983616       6.34589723        9       0.00000000      -0.01528123      -0.07867561       0.54543731
Ni       2.51401398       4.41185115       6.43842343       10       1.00000000       0.05393791       0.01908745      -0.37034557
Ni       5.11029083       4.42238953       6.37656519       10       1.00000000      -0.10614067       0.08759358       0.02645769
Ni       7.62843959       4.37654160       6.44642446       10       1.00000000      -0.09219295      -0.03847935      -0.09766434
Ni      10.29468136       4.37453126       6.40928884       10       1.00000000       0.12822028      -0.03369164      -0.29375679
Ni       3.82796633       6.48487284       6.44043800       10       1.00000000       0.01543260      -0.14946640      -0.31980138
Ni       6.36622877       6.50651870       6.41975003       10       1.00000000      -0.02942666      -0.02603957      -0.33254788
Pt       8.95249698       6.43931760       6.44464971       10       0.00000000       0.06310371      -0.06500228       0.12966141
Ni      11.54811692       6.50562377       6.39300974       10       1.00000000       0.00548622       0.04927138      -0.26501712
