64
Lattice="10.375055418002106 0.007700517058117745 0.030408293571136835 5.19419655239566 8.937766037228835 -0.005791958026443141 0.0 0.0 21.57726120683804" Properties=species:S:1:pos:R:3:tags:I:1:initial_magmoms:R:1:forces:R:3 unique_id=1ae8ab37cc1248c0b123bada607c0216 stress="0.006148646145631151 0.0002075231837948626 0.0005245099340281893 0.0002075231837948626 0.005930008680240912 3.402033034393533e-05 0.0005245099340281893 3.402033034393533e-05 -0.0018969031575930377" energy=-377.5500489268933 pbc="T T T"
Ni      -0.01567802       0.02167657       0.13823185        1       1.00000000      -0.03853164       0.05388702       0.07841935
Ni       2.59654948       0.00311194       0.15258333        2       1.00000000       0.00747901       0.02351585      -0.02689710
Ni       5.19183905      -0.01005094       0.11609793        1       1.00000000       0.02372888       0.20782777      -0.29254682
Ni       7.80709421      -0.02777088       0.07361469        1       1.00000000       0.03769200      -0.06046692       0.46956868
Ni       1.28770741       2.22456627       0.11503605        1       1.00000000       0.04941032      -0.08671363      -0.10302303
Pt       3.84386521       2.23528939       0.13725890        1       0.00000000       0.02519697      -0.02483994      -0.49079144
Pt       6.52107338       2.17687987       0.14893425        1       0.00000000       0.04154294      -0.09223948      -0.44940447
Ni       9.10172886       2.20461587       0.10710478        1       1.00000000      -0.06001984      -0.14736032       0.00851920
Ni       2.58510378       4.48254806       0.00000000        0       1.00000000      -0.00905818      -0.04502089       0.17017705
Ni       5.18920428       4.47123643       0.10195612        1       1.00000000       0.17793380      -0.08886798      -0.26311106
Pt       7.86015616       4.48123931       0.05823070        1       0.00000000       0.02337316      -0.06465190       0.05194319
Ni      10.40569190       4.48414129       0.01585414        0       1.00000000       0.04354949      -0.00046291       0.21899252
Ni       3.86866681       6.72857454       0.10691908        1       1.00000000      -0.03879954       0.18943554      -0.09854653
Pt       6.47534320       6.75576810       0.14438580        1       0.00000000      -0.06121431       0.04285639      -0.51409551
Ni       9.10927689       6.71876990       0.02610836        0       1.00000000      -0.05413078      -0.00956311       0.21702877
Ni      11.69323368       6.71779223       0.01529833        0       1.00000000       0.13537241       0.07144678       0.24349459
Ni       1.29852044       0.72452689       2.10826694        3       1.00000000      -0.03459672      -0.03754109       0.01887198
Ni       3.89502824       0.74654845       2.16372902        4       1.00000000       0.07230275      -0.00712566       0.18001589
Ni       6.51594622       0.74824179       2.20620150        4       1.00000000       0.10114655       0.05619481       0.25619299
Ni       9.06183175       0.73258938       2.15421914        4       1.00000000      -0.14517719      -0.00179609      -0.00210420
Ni       2.59727959       2.96733181       2.16058347        4       1.00000000      -0.07805083       0.08642168       0.12541644
Ni       5.20011298       2.95468798       2.20250567        4       1.00000000      -0.04050165      -0.12275381       0.28231455
Ni       7.79722416       2.96092363       2.19663927        4       1.00000000       0.05848278      -0.09844655       0.16288186
Pt      10.33064041       2.92264831       2.16346305        4       0.00000000      -0.06559983       0.04539285       0.09214872
Pt       3.92052316       5.19283080       2.10718510        3       0.00000000       0.00849841      -0.07983874       0.01851911
Ni       6.53213399       5.20064896       2.17109507        4       1.00000000       0.13800166      -0.04820185       0.16922792
Ni       9.05751731       5.21834811       2.20654716        4       1.00000000      -0.09033895      -0.01848948       0.26480480
Pt      11.67412710       5.22848862       2.12865894        3       0.00000000      -0.06509744      -0.03544633      -0.01662017
Ni       5.17862165       7.48817310       2.12910901        3       1.00000000      -0.11070870       0.09887936       0.03273249
Ni       7.79639941       7.44556640       2.15576111        4       1.00000000       0.07457377      -0.05890599       0.10136365
Pt      10.36114337       7.47083597       2.07974796        3       0.00000000      -0.01854018      -0.01060860      -0.07562564
Ni      12.99732874       7.48735834       2.13244525        3       1.00000000      -0.03067898       0.10605656      -0.08572208
Ni      -0.01975291       1.51187793       4.29575147        6       1.00000000      -0.01820569       0.09429969      -0.19853720
Pt       2.62498877       1.52446558       4.19740988        5       0.00000000      -0.01263470       0.04198735      -0.14287119
Ni       5.22011144       1.49246337       4.28061550        6       1.00000000       0.00485285       0.01404624      -0.41012051
Ni       7.81691747       1.49748034       4.28824953        6       1.00000000       0.08103324       0.04811754      -0.38604516
Pt       1.28107176       3.79146850       4.34206012        6       0.00000000      -0.04980194      -0.00579767       0.07507910
Ni       3.90420829       3.72420463       4.29901787        6       1.00000000       0.03340046      -0.00959627      -0.25910171
Pt       6.55974309       3.68545592       4.22758468        5       0.00000000       0.01075475      -0.04698998      -0.05663410
Ni       9.09216054       3.74504143       4.33699073        6       1.00000000       0.03662912       0.03237273      -0.22635255
Ni       2.58494736       5.93591154       4.33621571        6       1.00000000       0.01768271       0.03691449      -0.15398498
Pt       5.18970900       5.92185640       4.25424712        6       0.00000000      -0.00248370       0.01503785      -0.10996020
Ni       7.86008659       5.90081200       4.30702060        6       1.00000000       0.09542488      -0.09476984      -0.28954434
Ni      10.36371904       5.93113024       4.38374139        7       1.00000000      -0.07414489       0.05221742      -0.10625742
Pt       3.88161654       8.23925068       4.22376413        5       0.00000000       0.02439555       0.11054458      -0.09382569
Pt       6.49788114       8.19737248       4.20110019        5       0.00000000      -0.02274136       0.10032163      -0.16874379
Pt       9.10415772       8.12136069       4.29672371        6       0.00000000      -0.08332116      -0.00843519       0.00725868
Pt      11.71119223       8.17940802       4.31030700        6       0.00000000      -0.02980125      -0.00041759      -0.03253085
Pt      -0.03209877      -0.00923008       6.54617018        9       0.00000000       0.09190008       0.08403634       0.17545380
Pt       2.63368586      -0.03974585       6.57726121       10       0.00000000      -0.02039765       0.00150163       0.38129776
Pt       5.25859711      -0.11182633       6.57053069       10       0.00000000      -0.05192191       0.03246843       0.33422380
Ni       7.78748319      -0.01887017       6.52328092        9       1.00000000      -0.00080929       0.03408160      -0.13970413
Pt       1.29460580       2.30698087       6.55139312       10       0.00000000      -0.13738614      -0.10052948       0.20578369
Pt       3.90333189       2.24981030       6.43180400        8       0.00000000       0.20032685      -0.10577985       0.53378086
Pt       6.53685104       2.19183134       6.43836234        8       0.00000000      -0.06970008      -0.06900046       0.49641918
Pt       9.08510044       2.30070572       6.48768810        9       0.00000000       0.05729234       0.12864754      -0.05316399
Ni       2.56545021       4.49223380       6.48225317        9       1.00000000      -0.03041466       0.07109723      -0.13311883
Pt       5.19327740       4.46026454       6.53080573        9       0.00000000      -0.00920390      -0.02943721       0.32736103
Ni       7.85669068       4.47967118       6.41693724        8       1.00000000       0.06254729       0.06810838      -0.04841890
Ni      10.37871824       4.53721171       6.50091351        9       1.00000000      -0.11563291       0.07679382      -0.27116155
Pt       3.77757052       6.68230191       6.53524319        9       0.00000000       0.01750282      -0.06198181       0.03054552
Pt       6.58132590       6.63446069       6.45101779        9       0.00000000       0.03905682      -0.06378536       0.48762685
Ni       9.14378396       6.61757947       6.49187309        9       1.00000000       0.00366489      -0.10518158      -0.23007542
Ni      11.66234557       6.63609850       6.50579053        9       1.00000000      -0.12510359      -0.18346553      -0.28882346
