64
Lattice="10.148035296553795 -0.0058237802348375355 -0.0012940048321005634 5.068974106647471 8.70430548961185 -0.10500032928406577 -0.001056550521113984 -0.09838526009033338 8.65674357784031" Properties=species:S:1:pos:R:3:tags:I:1:initial_magmoms:R:1:forces:R:3 unique_id=e3e663b26aa344ac9e0ef85e3b3924cf stress="-0.00022066566521480174 5.630227458563168e-06 -1.080807698072412e-05 5.630227458563168e-06 -0.0001969592180810012 3.5664809971640014e-05 -1.080807698072412e-05 3.5664809971640014e-05 -0.0001554412985194098" energy=-388.8960244582122 pbc="T T T"
Ni       0.03749515      -0.05491156       0.18479751        4       1.00000000       0.07091518      -0.06657141       0.20324879
Ni       2.48753626      -0.03954873       0.19674567        4       1.00000000      -0.04141781      -0.06175664       0.16722604
Pt       5.09499116      -0.04138406       0.15386940        4       0.00000000       0.00074603      -0.14011951       0.33284770
Ni       7.62550793      -0.06336798       0.18220357        4       1.00000000       0.07039990      -0.14259116       0.25907895
Ni       1.25805586       2.18057023       0.09374463        4       1.00000000      -0.03037295      -0.00216071       0.17166851
Pt       3.75739280       2.22759144       0.16065431        4       0.00000000      -0.09023404      -0.00172790       0.34399465
Ni       6.34689735       2.20826812       0.08830131        4       1.00000000      -0.01249473       0.06175056       0.19070094
Pt       8.88622091       2.20636728      -0.00094062        4       0.00000000       0.01065159      -0.07733070      -0.22717067
Ni       2.50374958       4.38717965       0.05235123        4       1.00000000      -0.03021219      -0.00969018       0.09284492
Ni       5.06791491       4.37896103       0.01846224        4       1.00000000      -0.05689204       0.03667865       0.02337971
Ni       7.60214326       4.36758895       0.02426107        4       1.00000000       0.01267255       0.00626334       0.07140700
Ni      10.17546150       4.37167773       0.05237614        4       1.00000000       0.04853169       0.03399565       0.12097918
Ni       3.80192255       6.49882390       0.02971925        4       1.00000000       0.03595143      -0.09933852       0.06893617
Ni       6.32750035       6.52897923       0.00458902        4       1.00000000      -0.00918216      -0.01084946      -0.05335568
Ni       8.83905592       6.46137568       0.09685172        4       1.00000000      -0.08131773      -0.10820311       0.24731359
Ni      11.44899535       6.45928111       0.01256142        4       1.00000000       0.02427283      -0.08466797       0.02959000
Ni       1.29781236       0.71320181       2.19151259        3       1.00000000      -0.03697521       0.07307539       0.10059288
Ni       3.72838915       0.69526459       2.19789127        3       1.00000000      -0.09644122      -0.03707593      -0.07516458
Ni       6.37641411       0.72621379       2.17743753        3       1.00000000       0.05464660      -0.05642528      -0.04899561
Pt       8.90350912       0.71825953       2.19140801        3       0.00000000       0.07740430       0.12224886      -0.05244215
Ni       2.48589176       2.90387967       2.21692619        3       1.00000000       0.02120577      -0.00606691       0.04813338
Ni       5.07068622       2.89545228       2.15700307        3       1.00000000      -0.09945972       0.06872581      -0.07561748
Ni       7.61539814       2.88770272       2.15606777        3       1.00000000       0.09248901       0.02092199      -0.00715467
Ni      10.18891339       2.91362809       2.18004980        3       1.00000000       0.00934467       0.02422465       0.03389937
Ni       3.76050040       5.04548620       2.11700787        3       1.00000000      -0.01426461      -0.03451992       0.02142491
Pt       6.33817557       5.08387208       2.08310596        3       0.00000000       0.00676342       0.05297077      -0.05580872
Ni       8.89372120       4.99629968       2.12752812        3       1.00000000       0.01885882      -0.14937296       0.08496267
Ni      11.43797186       5.00140446       2.12698249        3       1.00000000       0.01920529      -0.07933764       0.08769902
Ni       5.08582929       7.21839266       2.05816713        3       1.00000000      -0.02051127       0.00447003      -0.02107134
Ni       7.58386406       7.25991030       2.10147134        3       1.00000000      -0.01924201       0.01255705       0.04512556
Pt      10.14776592       7.15134749       2.17332870        3       0.00000000       0.00044298       0.01592412      -0.11803892
Ni      12.68543594       7.15811387       2.05901263        3       1.00000000       0.03894856      -0.12809612       0.00042547
Ni       0.03686897       1.45907348       4.28184718        2       1.00000000       0.06242918       0.01272777      -0.03478818
Ni       2.47120631       1.42172428       4.22288019        2       1.00000000      -0.01352687       0.04929732       0.00918633
Pt       5.05805828       1.38279015       4.16347808        2       0.00000000      -0.09639421      -0.06576436       0.07359660
Ni       7.63817411       1.42219302       4.28785801        2       1.00000000       0.01558966      -0.02342829      -0.01904442
Ni       1.26271447       3.58610679       4.25643338        2       1.00000000       0.02381352      -0.00404169      -0.04924693
Ni       3.74644112       3.65104718       4.20348825        2       1.00000000      -0.00902894       0.03184855      -0.08974859
Pt       6.37905753       3.61964394       4.29001319        2       0.00000000       0.04255882       0.00785651       0.03039549
Ni       8.93411329       3.59161580       4.25068970        2       1.00000000       0.05094838       0.07635044      -0.15950844
Ni       2.50704749       5.69919400       4.23029318        2       1.00000000      -0.05412162      -0.06039984      -0.16092572
Ni       5.05936445       5.74337795       4.25595629        2       1.00000000      -0.00048149      -0.05131886      -0.08953327
Ni       7.62169838       5.78137105       4.20553558        2       1.00000000       0.10787909       0.05176708      -0.08522379
Ni      10.17356706       5.69164272       4.22967805        2       1.00000000       0.02578445      -0.14374626       0.03280691
Pt       3.80891198       7.85367980       4.15196835        2       0.00000000       0.01894631      -0.00176565       0.13730312
Ni       6.36081908       7.91070857       4.13676844        2       1.00000000      -0.03127883       0.02090842      -0.06522866
Ni       8.82139534       7.88927007       4.15958036        2       1.00000000      -0.08895885      -0.00768155       0.02938688
Ni      11.43396468       7.85774265       4.17412876        2       1.00000000       0.06581744      -0.04466420       0.05557510
Pt       0.00469245      -0.04900267       6.45223972        1       0.00000000       0.05517295       0.09456831       0.07992548
Pt       2.51939230      -0.06787613       6.40004217        1       0.00000000      -0.15015400       0.03799466       0.02616787
Pt       5.08734651      -0.09064952       6.33326196        1       0.00000000       0.09322207       0.03558172      -0.39513268
Pt       7.61412723      -0.05984529       6.45203806        1       0.00000000      -0.05886339       0.08556004       0.10703309
Ni       1.22816383       2.18804832       6.35001072        1       1.00000000       0.01484121       0.08154416      -0.10735648
Pt       3.77480870       2.25295922       6.31930789        1       0.00000000      -0.02435835       0.27809691      -0.29163637
Ni       6.37363719       2.16919422       6.38997217        1       1.00000000      -0.03980151       0.06011284      -0.02148473
Ni       8.88811183       2.18511286       6.25174664        1       1.00000000       0.02594470       0.10262084      -0.37823516
Ni       2.49545942       4.35167161       6.32965599        1       1.00000000      -0.03940355       0.08908362      -0.11933615
Ni       5.08091193       4.35634742       6.35950446        1       1.00000000      -0.03385243       0.13842931      -0.07659794
Ni       7.60185698       4.24635508       6.37349506        1       1.00000000       0.02670421      -0.03809091      -0.03052817
Ni      10.18446677       4.23712891       6.33118034        1       1.00000000       0.05613183      -0.01494396      -0.09414387
Ni       3.80069898       6.39004680       6.33034792        1       1.00000000      -0.02968385       0.01413989      -0.05812026
Ni       6.30588067       6.39678820       6.31134734        1       1.00000000       0.01939243       0.03951140      -0.21134559
Pt       8.87514110       6.32320041       6.33446361        1       0.00000000      -0.00200283      -0.12411616       0.09292152
Ni      11.44954712       6.38299461       6.30612114        1       1.00000000      -0.00769847       0.03405712      -0.14779261
