2
Lattice="15.0 0.0 0.0 0.0 15.0 0.0 0.0 0.0 15.0" Properties=species:S:1:pos:R:3:initial_magmoms:R:1:forces:R:3 energy=-8.950782775878906 free_energy=-8.950782775878906 stress="0.0 0.0 0.0 0.0 0.0 0.0 0.0 0.0 -3.050470668856301e-07" pbc="T T T"
O        7.50000000       7.50000000       7.01432019       0.00000000      -0.00000000      -0.00000000      -0.00105989
H        7.50000000       7.50000000       7.98567981       0.00000000      -0.00000000      -0.00000000       0.00105989
