64
Lattice="10.182635920958127 0.023294026317333766 -0.040705273977908366 5.111491179026298 8.789993315113842 -0.08096168801217858 0.0 0.0 21.518465592981393" Properties=species:S:1:pos:R:3:tags:I:1:initial_magmoms:R:1:forces:R:3 unique_id=cdd08b297fc741d5839b93cbb5baf54f stress="0.004829677117580374 -4.576418173591274e-05 -0.00023068144760331752 -4.576418173591274e-05 0.004194551051368801 -0.00013045140653509318 -0.00023068144760331752 -0.00013045140653509318 -0.0018249229423905142" energy=-370.41831556092865 pbc="T T T"
Ni       0.03737798      -0.04910496       0.20332881        2       1.00000000       0.09926472      -0.02440163      -0.19988929
Ni       2.50993854      -0.03711116       0.13032481        1       1.00000000      -0.01228433      -0.02445163       0.28092543
Ni       5.08041662      -0.02671183       0.17184846        2       1.00000000      -0.06763793       0.07136793      -0.53721671
Ni       7.62816772      -0.05073951       0.17022994        2       1.00000000      -0.06554852      -0.01563175      -0.28154426
Ni       1.27386096       2.19428559       0.11017157        1       1.00000000      -0.01550708      -0.01046467       0.31556494
Pt       3.73511312       2.16469550       0.17623156        2       0.00000000       0.06303405       0.02764250      -0.59698815
Pt       6.37525224       2.16897304       0.08384669        1       0.00000000      -0.02611547      -0.01896710      -0.28110030
Pt       8.98667338       2.25235346       0.09741684        1       0.00000000       0.00721111       0.04786661      -0.70423027
Ni       2.51943200       4.41988927       0.04575019        0       1.00000000       0.03385722       0.00114971       0.13555802
Pt       5.08877185       4.49656234       0.06206323        1       0.00000000      -0.09246754      -0.01000502      -0.02972544
Ni       7.65249064       4.45103400       0.03149515        0       1.00000000      -0.01336438       0.02934436       0.02124818
Ni      10.22063998       4.44088819       0.01176729        0       1.00000000       0.03395538       0.06824581       0.14892487
Ni       3.80597573       6.62694873       0.06664802        1       1.00000000      -0.00590226       0.04720744       0.29887454
Ni       6.39316606       6.63832194       0.05839485        1       1.00000000      -0.01664625       0.02568827       0.32452582
Ni       8.89792376       6.60392865       0.09340522        1       1.00000000      -0.11199565       0.04118318      -0.35415207
Ni      11.49030856       6.60114719       0.00000000        0       1.00000000       0.03768462       0.02098182       0.17779218
Ni       1.30005835       0.72095719       2.21327248        4       1.00000000       0.02859293       0.03575344       0.13612680
Ni       3.75383996       0.72564955       2.20326465        4       1.00000000      -0.19345016      -0.05256243       0.06158263
Ni       6.36951399       0.74210480       2.19552446        4       1.00000000       0.07443981       0.05416978       0.14874181
Pt       8.92548432       0.72453816       2.20757282        4       0.00000000       0.09158108       0.04315061      -0.00154461
Ni       2.53354483       2.88905355       2.25322039        5       1.00000000       0.04763853      -0.10500740       0.22829480
Ni       5.07363562       2.95629623       2.20326496        4       1.00000000      -0.08512090       0.14103730       0.10225529
Ni       7.61084349       2.92950804       2.20734729        4       1.00000000      -0.05999871      -0.04554705       0.13953832
Ni      10.23609754       2.91316378       2.21491123        4       1.00000000       0.13125399      -0.12456893       0.26926649
Ni       3.84823649       5.12668192       2.20769339        4       1.00000000       0.07733487      -0.02140521       0.21508587
Ni       6.34011640       5.15825539       2.17058623        4       1.00000000      -0.04321738       0.08158824       0.08372321
Pt       8.85552128       5.09411168       2.16411631        4       0.00000000      -0.03445382      -0.09287178       0.05257802
Pt      11.52970877       5.08683416       2.15770151        4       0.00000000       0.09245871      -0.12641208       0.11060002
Ni       5.13318360       7.26933386       2.12433335        3       1.00000000       0.00677031      -0.09230547       0.04029252
Ni       7.57351445       7.34062552       2.10772766        3       1.00000000      -0.15372592       0.02711638       0.05892113
Pt      10.22079495       7.36430356       2.10027632        3       0.00000000       0.07041624      -0.01232217       0.12316269
Ni      12.76544384       7.30688069       2.09067557        3       1.00000000       0.13088072      -0.09484240       0.08500192
Ni       0.04457421       1.46555317       4.32046640        7       1.00000000       0.10022778       0.00004579      -0.14091559
Ni       2.45877896       1.46845294       4.29789800        7       1.00000000      -0.10267844       0.03379696      -0.15755776
Pt       5.08736725       1.45839092       4.22686799        6       0.00000000      -0.04537358      -0.03632095      -0.10638037
Ni       7.63508141       1.46023293       4.28908443        7       1.00000000       0.04677524      -0.05344307      -0.21403329
Ni       1.27085684       3.62208753       4.35604608        8       1.00000000       0.05576675      -0.05595644      -0.02444193
Ni       3.76022423       3.70108833       4.27969976        7       1.00000000      -0.07273955       0.09010200      -0.26340904
Pt       6.38451774       3.71221895       4.28849745        7       0.00000000       0.04037801      -0.04373626      -0.08409029
Ni       8.94594903       3.67919030       4.26836002        7       1.00000000       0.11300794       0.01211892      -0.12595860
Ni       2.54132657       5.78882781       4.34454281        7       1.00000000      -0.00480660      -0.08453478      -0.00993535
Ni       5.08694849       5.83221114       4.29705076        7       1.00000000       0.04327438      -0.01854983      -0.15353775
Ni       7.59999406       5.84283336       4.28517233        7       1.00000000      -0.09583221       0.07986201      -0.15138167
Ni      10.21610645       5.80377861       4.31130000        7       1.00000000       0.06860077      -0.00882076      -0.00722750
Pt       3.83658819       7.95079166       4.24846388        6       0.00000000      -0.00018364      -0.03480909       0.06979159
Ni       6.36090453       8.01877495       4.24062482        6       1.00000000      -0.15042900      -0.01651455      -0.23623297
Pt       8.82715658       8.01432724       4.22607437        6       0.00000000      -0.07790835       0.07324115       0.01912529
Ni      11.46729086       7.99549169       4.23847645        6       1.00000000       0.00075829      -0.09069117      -0.06810026
Pt       0.07742822      -0.07079752       6.51616633       11       0.00000000      -0.03624404       0.11812157       0.11758192
Ni       2.51569637      -0.03431159       6.47641646       11       1.00000000       0.08943356       0.02310306      -0.07090605
Pt       5.05193065      -0.04153516       6.51846559       11       0.00000000       0.07541398       0.04575937       0.48099574
Pt       7.62188202      -0.06952910       6.48363319       11       0.00000000       0.03529662       0.11464603       0.35396699
Ni       1.25805644       2.20029611       6.43338275       10       1.00000000      -0.00799162       0.11674105      -0.23607479
Pt       3.73644297       2.25061509       6.38084717       10       0.00000000      -0.07376961       0.18613842       0.53824381
Ni       6.34664319       2.21493831       6.37186910       10       1.00000000      -0.01720065      -0.01291050       0.25754829
Pt       8.91371798       2.26521824       6.31524233        9       0.00000000       0.02958097      -0.09149151       0.66874039
Ni       2.50398595       4.40339012       6.40797450       10       1.00000000       0.06497835      -0.01185085      -0.28805195
Ni       5.07564918       4.41346764       6.34689586        9       1.00000000      -0.12486729       0.05941516       0.09984270
Ni       7.58965439       4.37785647       6.41842096       10       1.00000000      -0.06360179      -0.02998705      -0.04416532
Ni      10.23028701       4.38041997       6.38074944       10       1.00000000       0.08959374      -0.03429516      -0.22369988
Ni       3.81376617       6.47825046       6.41656065       10       1.00000000       0.05773571      -0.09255052      -0.24249014
Ni       6.34223556       6.51221915       6.39482619       10       1.00000000      -0.06986914      -0.08890830      -0.30183356
Pt       8.86852955       6.46811400       6.43366656       10       0.00000000       0.04654480      -0.13340564       0.17599520
Ni      11.47273983       6.50092093       6.37214639       10       1.00000000      -0.04280935       0.09395824      -0.20360226
