64
Lattice="10.256020810253984 -0.016573835462726682 0.0007352270351621853 5.113657042578129 8.885344203218231 -0.029764738198782472 0.000600310360415556 -0.02840905364231829 8.815910667973764" Properties=species:S:1:pos:R:3:tags:I:1:initial_magmoms:R:1:forces:R:3 unique_id=1629659b22014d3786cd5084926a08fa stress="-0.0003819393640480395 -2.5703441487647406e-07 8.862491793311408e-06 -2.5703441487647406e-07 -0.00036796772934845345 2.1956203772107387e-05 8.862491793311408e-06 2.1956203772107387e-05 -0.00031233822678738976" energy=-396.9446511268103 pbc="T T T"
Ni       0.04766337       0.03818768       0.15826994        4       1.00000000       0.21951302       0.13605107       0.21955740
Ni       2.58192211       0.02679124       0.20406191        4       1.00000000       0.05119084       0.05421127       0.27491804
Ni       5.07588933      -0.02133891       0.07432550        4       1.00000000      -0.11842976       0.01228944       0.06640442
Pt       7.70072017      -0.05653656      -0.01236346        4       0.00000000      -0.01203110      -0.02152776      -0.20012314
Ni       1.28317723       2.22855636       0.19927493        4       1.00000000       0.03223597       0.06405137       0.32029771
Ni       3.80000972       2.21835412       0.18917221        4       1.00000000      -0.08241219      -0.00600427       0.20547930
Pt       6.37835228       2.29441231       0.15519780        4       0.00000000      -0.06109884       0.09553385       0.46120673
Ni       9.01535748       2.26198253       0.06928808        4       1.00000000       0.09468194       0.11521627       0.05351567
Ni       2.56613214       4.41885569       0.06347381        4       1.00000000       0.03931395      -0.18136604      -0.00018421
Ni       5.06539250       4.43548642       0.15043941        4       1.00000000      -0.20900854      -0.00917874       0.26336926
Ni       7.75010775       4.42679387       0.06222376        4       1.00000000       0.24903766      -0.02099416       0.03600015
Ni      10.23497554       4.40609261       0.05238415        4       1.00000000      -0.03431973      -0.11825665      -0.04229882
Ni       3.82061682       6.60420894       0.02963586        4       1.00000000      -0.03130783      -0.21533537       0.04036243
Pt       6.44656056       6.65645506      -0.02599851        4       0.00000000       0.06360162      -0.01378468      -0.29021512
Ni       8.97795377       6.63477456       0.11644795        4       1.00000000       0.03478208      -0.10606186       0.15600385
Ni      11.50612014       6.60666832       0.01750311        4       1.00000000      -0.09385772      -0.13022800      -0.10082497
Ni       1.33709994       0.77292588       2.16873395        3       1.00000000       0.02891228       0.06170454       0.05928779
Ni       3.79866536       0.74852295       2.18183592        3       1.00000000       0.00463131      -0.01372591       0.00035010
Pt       6.31782913       0.76194842       2.27308917        3       0.00000000      -0.04861112       0.09466699      -0.07160095
Pt       9.04770833       0.82585687       2.18268980        3       0.00000000      -0.00148602      -0.04081418      -0.11111947
Ni       2.58407360       2.93799030       2.16872461        3       1.00000000      -0.01823539       0.06546305       0.03832173
Ni       5.03507801       2.96912641       2.22650085        3       1.00000000      -0.14994997      -0.01259843       0.16292548
Ni       7.74555745       2.98990926       2.20474662        3       1.00000000       0.12407533       0.03968701       0.02786374
Ni      10.25377560       2.95603678       2.18549122        3       1.00000000       0.00034659      -0.00290967       0.07757147
Ni       3.83767299       5.10555208       2.20014214        3       1.00000000      -0.05870706      -0.06235870       0.10326442
Pt       6.44519924       5.12803922       2.18328233        3       0.00000000       0.05262150       0.00383841      -0.09864689
Ni       8.95951455       5.12357808       2.19621012        3       1.00000000       0.04201431      -0.09791958       0.05140202
Pt      11.50997565       5.07503032       2.13340861        3       0.00000000      -0.00307532      -0.04893025      -0.10857258
Pt       5.14566869       7.38252851       2.16058477        3       0.00000000       0.01932233      -0.09851287      -0.21283561
Ni       7.69137135       7.41248751       2.18479319        3       1.00000000      -0.03431438      -0.01393993      -0.01859740
Pt      10.13884830       7.36794946       2.20835615        3       0.00000000      -0.11394048      -0.06810232       0.01147562
Pt      12.78885340       7.32290344       2.19075803        3       0.00000000      -0.05362646      -0.01827193      -0.12166920
Ni       0.00824832       1.49455877       4.37635396        2       1.00000000       0.15749682      -0.01667301      -0.00938873
Pt       2.61049373       1.47829305       4.26081544        2       0.00000000       0.06926475       0.04811206       0.11535027
Ni       5.11447430       1.43151825       4.38044902        2       1.00000000       0.01208077       0.00765988       0.10105070
Pt       7.74625467       1.47384000       4.37902765        2       0.00000000       0.04586249       0.09992660       0.14404248
Pt       1.24560020       3.74722789       4.37536167        2       0.00000000      -0.02182087      -0.06555451       0.02585979
Ni       3.83743574       3.72935925       4.33488853        2       1.00000000      -0.02863895       0.08972598      -0.07560172
Pt       6.39877191       3.71905943       4.34393844        2       0.00000000      -0.07418477      -0.00720588       0.06667766
Ni       8.97749784       3.72047576       4.37941675        2       1.00000000       0.03337323       0.12826223      -0.08056849
Ni       2.54366800       5.88830461       4.41153230        2       1.00000000      -0.08030131      -0.07326943      -0.07207820
Ni       5.08528690       5.88579018       4.36280159        2       1.00000000      -0.05651249      -0.10918146      -0.16322006
Ni       7.73974503       5.88444068       4.35930966        2       1.00000000       0.20653617      -0.04161193      -0.16346441
Ni      10.23973389       5.91359246       4.36999231        2       1.00000000       0.01378634      -0.00749700      -0.12477606
Pt       3.78732616       8.04393368       4.39629308        2       0.00000000       0.07722624      -0.00140746       0.01563839
Pt       6.45598050       8.06771066       4.32875213        2       0.00000000       0.08080964       0.04827388       0.01471005
Ni       9.01184317       8.10163645       4.35437410        2       1.00000000       0.00438811       0.00421621       0.04243550
Ni      11.46511383       8.08295852       4.41044061        2       1.00000000      -0.07955616      -0.09254178      -0.04884159
Pt      -0.07381752      -0.03737902       6.60846454        1       0.00000000      -0.17894573      -0.03142224       0.08761754
Pt       2.60454161      -0.06353608       6.60754380        1       0.00000000       0.04134040       0.01917856       0.22225666
Ni       5.17584234      -0.07276058       6.50881944        1       1.00000000       0.05039547      -0.07698284      -0.16163343
Ni       7.64223320      -0.08090781       6.44183502        1       1.00000000      -0.16683023      -0.11123688      -0.32931168
Pt       1.21273705       2.28105439       6.60660395        1       0.00000000      -0.00927582       0.09378219       0.29316122
Pt       3.85140889       2.23002153       6.55854828        1       0.00000000      -0.06867274       0.11441483       0.11969086
Pt       6.45619415       2.16700188       6.51543033        1       0.00000000       0.08477249      -0.03405478      -0.20791271
Ni       8.96691461       2.23535178       6.53290442        1       1.00000000       0.00967465       0.16221245      -0.12965779
Ni       2.52980548       4.50050506       6.51857246        1       1.00000000      -0.09508367       0.16799590      -0.09721600
Pt       5.09429916       4.53263947       6.55375861        1       0.00000000      -0.02463621       0.16737326       0.16638471
Ni       7.72598770       4.41565104       6.51626534        1       1.00000000       0.05491888      -0.00348268      -0.13662135
Ni      10.23761502       4.43299413       6.52167097        1       1.00000000       0.02584162       0.03924789      -0.12781045
Ni       3.77471036       6.63190324       6.51055084        1       1.00000000      -0.20725767       0.04764749      -0.09522116
Ni       6.40342899       6.62036062       6.40687392        1       1.00000000       0.08825418      -0.02322629      -0.49123254
Pt       9.02518379       6.56557505       6.49712127        1       0.00000000       0.06550514       0.03372213       0.07545398
Ni      11.55890262       6.62874428       6.48469445        1       1.00000000       0.03832042      -0.01829533      -0.22866240
