64
Lattice="10.253946993822996 -0.009150837371053754 0.019154843214779116 5.119048639282267 8.794124567834912 -0.024700046832773853 0.0 0.0 21.509149228350044" Properties=species:S:1:pos:R:3:tags:I:1:initial_magmoms:R:1:forces:R:3 unique_id=4bacaf553b64464693405df46e099ada energy=-372.44688328149584 stress="0.005659174124747025 -5.411777948321976e-06 0.00012794733008001917 -5.411777948321976e-06 0.00511100023901798 -4.168757950675025e-05 0.00012794733008001917 -4.168757950675025e-05 -0.001029258080202022" pbc="T T T"
Ni       0.01700867      -0.01396889       0.12610490        1       1.00000000       0.11942577      -0.02152388      -0.12686381
Ni       2.52902737      -0.00013692       0.15271878        2       1.00000000      -0.07560710       0.02449220      -0.03332563
Pt       5.12548008      -0.04005123       0.10076976        1       0.00000000      -0.05172209       0.19775540      -1.00655069
Ni       7.71495038      -0.05852283       0.14606601        1       1.00000000      -0.04786037      -0.02047723      -0.28261177
Ni       1.28051872       2.20571567       0.05086908        1       1.00000000      -0.02023239       0.06165046       0.39415706
Pt       3.76502537       2.25268819       0.12490841        1       0.00000000       0.03200191      -0.00518626      -0.35823824
Pt       6.42252596       2.25940386       0.06010117        1       0.00000000       0.01895100      -0.02900058      -0.05542636
Pt       9.04230385       2.24004116       0.08136710        1       0.00000000       0.02199240       0.12977818      -0.52034209
Ni       2.55094081       4.43326811       0.00000000        0       1.00000000       0.05152339       0.03003463       0.27150330
Ni       5.09832335       4.42989513       0.04652093        0       1.00000000      -0.13809603       0.11097130       0.33571778
Ni       7.70914245       4.42389573       0.05527256        1       1.00000000       0.11156325       0.06892770       0.30407563
Ni      10.27258317       4.41974124       0.02633438        0       1.00000000       0.02887482       0.06480155       0.30296620
Ni       3.80956254       6.58150296       0.03458147        0       1.00000000       0.04273248      -0.03906136       0.37729792
Pt       6.39159829       6.57985220       0.11238309        1       0.00000000      -0.04733134       0.05939889      -0.37010728
Ni       8.96029423       6.53822432       0.09846975        1       1.00000000      -0.11685511      -0.09659933      -0.24079511
Ni      11.56684217       6.54951939       0.01587086        0       1.00000000       0.04111561       0.04302489       0.20458723
Ni       1.31486620       0.73452873       2.16509710        4       1.00000000       0.04796762       0.04937505       0.19476385
Ni       3.80712563       0.76080607       2.19124521        4       1.00000000      -0.05885973       0.09236745       0.25190960
Ni       6.41280216       0.76604801       2.19373002        4       1.00000000      -0.05997357       0.18984340       0.26020209
Pt       8.99495374       0.71929324       2.19725871        4       0.00000000       0.05113768       0.10487541       0.03758154
Ni       2.55398373       2.90098466       2.21341200        4       1.00000000       0.02358106      -0.11986898       0.26150034
Ni       5.11260328       2.94678866       2.19189736        4       1.00000000      -0.09703677       0.04204669       0.15655025
Ni       7.69421175       2.96427537       2.19167000        4       1.00000000       0.06063162       0.05241636       0.15630131
Ni      10.28016649       2.91783441       2.20881315        4       1.00000000       0.05866190      -0.08307754       0.25828865
Ni       3.87983853       5.11253069       2.13750086        3       1.00000000       0.10686342      -0.08749893       0.06076582
Ni       6.40600090       5.10581173       2.16430488        4       1.00000000      -0.01630867      -0.04289748       0.06382799
Ni       8.92634999       5.07335484       2.15208761        4       1.00000000      -0.11954585      -0.23278169       0.11367239
Pt      11.57961871       5.04304221       2.16015120        4       0.00000000       0.16303422      -0.17892168       0.08593789
Ni       5.13596930       7.28571980       2.14773204        3       1.00000000       0.04549945      -0.12870823       0.13052114
Ni       7.64398233       7.31438342       2.14935238        3       1.00000000      -0.15530762      -0.02832157       0.19322480
Pt      10.22143514       7.24585076       2.13825333        3       0.00000000      -0.06287977      -0.17831831      -0.17584349
Ni      12.84921626       7.27511688       2.09582888        3       1.00000000       0.11409780      -0.13716442       0.00619043
Ni       0.06286983       1.49832611       4.25748455        6       1.00000000       0.16648805       0.04488532      -0.17356870
Ni       2.52682087       1.50322540       4.23452998        5       1.00000000      -0.08052817       0.08223160      -0.23270873
Ni       5.12193096       1.48477403       4.23992202        5       1.00000000      -0.09138318       0.01202394      -0.41087890
Ni       7.69416023       1.47372176       4.27974695        6       1.00000000      -0.02091781      -0.01687743      -0.26376423
Ni       1.28980330       3.63811161       4.30758420        6       1.00000000       0.03709819      -0.06783795      -0.03784000
Ni       3.81740274       3.68601382       4.23510183        5       1.00000000      -0.07304281       0.04432381      -0.30796750
Pt       6.40866001       3.66168608       4.26726829        6       0.00000000      -0.01082519       0.02712593       0.03082290
Ni       9.00749485       3.67956945       4.24436408        5       1.00000000       0.06073181       0.06463268      -0.30454097
Ni       2.57914895       5.77464464       4.30708462        6       1.00000000       0.01654820      -0.15988791      -0.08061254
Ni       5.10320657       5.80354371       4.23328616        5       1.00000000      -0.00735149      -0.17331791      -0.30942894
Ni       7.69703980       5.81127651       4.22768547        5       1.00000000       0.02453581      -0.03042292      -0.37301350
Ni      10.26957304       5.75996720       4.30111969        6       1.00000000       0.04534758      -0.10827115      -0.08385232
Pt       3.91142320       7.97515387       4.23174498        5       0.00000000       0.11233388      -0.10824097       0.12245055
Ni       6.40334135       8.04483660       4.20721162        5       1.00000000      -0.05402323       0.01168884      -0.35619590
Pt       8.87912974       8.05373338       4.20695199        5       0.00000000      -0.10937652       0.10224782       0.02406861
Pt      11.56609512       8.00720846       4.21626686        5       0.00000000      -0.02570684      -0.09321181       0.01422640
Pt       0.01355240       0.00052345       6.46723257        9       0.00000000       0.01497431       0.12093873       0.33137059
Pt       2.55149855       0.01714072       6.46942400        9       0.00000000       0.01653612       0.01139730       0.33930911
Pt       5.14788248       0.00181211       6.38943033        8       0.00000000      -0.03554985       0.19078428       1.06473847
Pt       7.70370492      -0.06544109       6.50914923        9       0.00000000      -0.00218854       0.19674991       0.41267969
Ni       1.28956359       2.25337386       6.39371552        8       1.00000000       0.01596307       0.14892344      -0.28054560
Pt       3.83523614       2.30314094       6.32620574        7       0.00000000      -0.06969883      -0.00445270       0.32603027
Ni       6.42005455       2.21999448       6.35400474        8       1.00000000      -0.02393510      -0.02848032       0.15313270
Pt       8.99161705       2.27780508       6.32072111        7       0.00000000       0.01263878      -0.07890032       0.48106221
Ni       2.54063485       4.42132350       6.39114044        8       1.00000000      -0.02248388      -0.01722264      -0.40638914
Ni       5.10996227       4.37856244       6.41716939        8       1.00000000      -0.09330865       0.04694813      -0.28622609
Ni       7.67636261       4.34576027       6.42261848        8       1.00000000      -0.07143267      -0.01008155      -0.20203214
Ni      10.33157422       4.36276607       6.40818754        8       1.00000000       0.16406338      -0.01813986      -0.34224108
Ni       3.81220001       6.49177065       6.41127261        8       1.00000000      -0.02028710      -0.13736535      -0.27681557
Pt       6.36619385       6.47580083       6.32195432        7       0.00000000       0.06055487       0.10645656       0.32561834
Pt       9.02855492       6.44115727       6.43540759        8       0.00000000      -0.00281028      -0.05314597       0.07557948
Ni      11.57750198       6.49153642       6.42647542        8       1.00000000      -0.00500291       0.00214637      -0.22390619
