64
Lattice="10.261593310389987 -0.006251868769236227 -0.0021346799376934754 5.12538237801971 8.890133377861185 -0.026136112780791955 0.0 0.0 21.642580330479767" Properties=species:S:1:pos:R:3:tags:I:1:initial_magmoms:R:1:forces:R:3 unique_id=3f4095ed62414543b9e759e915cfca8b stress="0.004209633851933179 -9.212507226087493e-05 0.00014079843609548362 -9.212507226087493e-05 0.004237726594824076 -0.00041185986024067295 0.00014079843609548362 -0.00041185986024067295 -0.0027144091300608554" energy=-373.55556887937877 pbc="T T T"
Ni       0.04962428       0.04117962       0.18044418        2       1.00000000       0.18672021       0.10018298      -0.51441835
Ni       2.58427071       0.03167237       0.22922852        2       1.00000000       0.01245989      -0.01812928      -0.16874876
Ni       5.08207822      -0.01642457       0.09898405        1       1.00000000      -0.03799779       0.06112521       0.24294285
Pt       7.70761136      -0.05014883       0.01224991        0       0.00000000      -0.06654600       0.11340978      -0.48303617
Ni       1.28770104       2.23141087       0.13027825        1       1.00000000       0.03779557       0.04388406       0.45412767
Ni       3.80337865       2.21983822       0.22179273        2       1.00000000       0.00505278       0.01752052      -0.08227240
Pt       6.38755302       2.29862183       0.17915898        2       0.00000000      -0.03236972       0.07657784      -0.86097330
Ni       9.02839420       2.27018646       0.08949537        1       1.00000000      -0.01743524       0.06910330       0.20647280
Ni       2.56835459       4.41690960       0.08884955        1       1.00000000       0.00399120      -0.13534220       0.27430363
Ni       5.07463218       4.44041528       0.18816821        2       1.00000000      -0.15390928       0.01541199      -0.32563984
Ni       7.76132761       4.43284093       0.08729563        1       1.00000000       0.19107733       0.01425613       0.11965954
Ni      10.24928859       4.41211274       0.07546577        1       1.00000000      -0.03755161      -0.00617494       0.24500205
Ni       3.83218891       6.60690696       0.06124180        1       1.00000000      -0.03168351      -0.13831900       0.08312987
Pt       6.45765002       6.66331241       0.00000000        0       0.00000000       0.17038141       0.06827807      -0.43165065
Ni       8.99049561       6.64417363       0.14556196        1       1.00000000      -0.05404107      -0.13882518      -0.10616425
Ni      11.52094194       6.61809569       0.04536104        0       1.00000000      -0.06218305      -0.07641985       0.14765162
Ni       1.33608503       0.78027063       2.19001035        3       1.00000000       0.05770023       0.09108057      -0.00100847
Ni       3.79870385       0.75061551       2.21131334        3       1.00000000      -0.03007169      -0.01162981       0.10220940
Pt       6.32321085       0.76753377       2.30160333        4       0.00000000      -0.07747867       0.04495824       0.17421634
Pt       9.05337783       0.83632409       2.20638726        3       0.00000000      -0.04643113      -0.01882019       0.03994909
Ni       2.56579461       2.92746213       2.17810727        3       1.00000000      -0.06677907      -0.01583230      -0.01432070
Ni       5.05510127       2.96978814       2.23082781        3       1.00000000      -0.09942348      -0.00297351       0.15736101
Ni       7.75548269       2.99754897       2.22627229        3       1.00000000       0.14579099       0.04506256       0.11935962
Ni      10.26627049       2.96451582       2.20537652        3       1.00000000       0.05167540      -0.00345034       0.02595900
Ni       3.84307303       5.13137191       2.19146470        3       1.00000000      -0.02259049      -0.06136790      -0.02084110
Pt       6.46072448       5.13854313       2.20928971        3       0.00000000       0.08829176      -0.07374193       0.09570703
Ni       8.97071979       5.13372363       2.22468656        3       1.00000000       0.04406185      -0.10919550       0.07664160
Pt      11.51567828       5.08268949       2.17126646        3       0.00000000      -0.04714872      -0.08153839      -0.01279146
Pt       5.15705876       7.39224711       2.18831073        3       0.00000000      -0.00722751      -0.03335351      -0.04393801
Ni       7.70270127       7.42235091       2.21306787        3       1.00000000      -0.03911439       0.00612754       0.13451801
Pt      10.15110511       7.38062560       2.23808768        3       0.00000000      -0.09024859      -0.06201347       0.10395719
Pt      12.80169467       7.33854128       2.22113905        3       0.00000000      -0.05105934      -0.02787140       0.07548576
Ni       0.00463270       1.49495713       4.42328269        6       1.00000000       0.09239340      -0.07846696      -0.10548066
Pt       2.57410386       1.44879822       4.31079766        5       0.00000000       0.04011132      -0.02004125      -0.04452672
Ni       5.11441187       1.42176439       4.41844195        6       1.00000000      -0.06050228      -0.01654728      -0.01054407
Pt       7.75620257       1.47666424       4.41279112        6       0.00000000       0.09635792       0.05107754       0.10460696
Pt       1.19439161       3.72295958       4.45853607        7       0.00000000      -0.03595829       0.01984335       0.03498816
Pt       3.83546598       3.75414862       4.32434892        5       0.00000000      -0.01063317       0.07790700      -0.06486748
Pt       6.46771148       3.73757135       4.38057898        6       0.00000000      -0.02270924       0.11084925      -0.07793756
Ni       8.98535424       3.72917880       4.41037122        6       1.00000000      -0.00447193       0.15024722      -0.07672681
Ni       2.51521770       5.91998879       4.44701694        6       1.00000000      -0.21819664      -0.03234444      -0.01920240
Ni       5.12080229       5.91807042       4.40174294        6       1.00000000       0.04033517      -0.06429791      -0.18983469
Ni       7.75699643       5.90296195       4.38793957        6       1.00000000       0.23643926      -0.02164820      -0.20758836
Ni      10.24714988       5.92707366       4.39776542        6       1.00000000      -0.04810988       0.01123644      -0.14040543
Pt       3.80136683       8.05520762       4.43768926        6       0.00000000       0.02543117      -0.06461413      -0.05590998
Pt       6.46039313       8.06879392       4.35934672        6       0.00000000       0.14862790      -0.02202172      -0.09761020
Ni       9.02079090       8.11123898       4.38850419        6       1.00000000       0.00679899       0.00996435      -0.05559676
Ni      11.47917471       8.09819209       4.44126885        6       1.00000000      -0.12935184      -0.04215002      -0.02559753
Pt      -0.05858827       0.02680180       6.63366062       10       0.00000000      -0.10310115       0.07067528       0.23869096
Pt       2.58388155      -0.04419895       6.64258033       10       0.00000000       0.07292656      -0.08163364       0.19590377
Ni       5.16993118      -0.06272454       6.54054488        9       1.00000000       0.01922592      -0.00693176      -0.17130962
Ni       7.64941404      -0.06765196       6.47201189        9       1.00000000      -0.10845619      -0.03589868       0.51890864
Ni       1.23581275       2.24995145       6.57749944       10       1.00000000      -0.01409427      -0.04152586      -0.13424574
Pt       3.80607190       2.24184593       6.62185958       10       0.00000000       0.15570977       0.14487342       0.17646908
Pt       6.45071487       2.17381147       6.54281318        9       0.00000000      -0.18254997       0.02821598       0.97433378
Ni       9.01397245       2.25740031       6.56040546       10       1.00000000       0.04573633       0.13965647      -0.16152142
Ni       2.50782999       4.48275038       6.56923424       10       1.00000000       0.00091355       0.11289471      -0.18611925
Pt       5.11532033       4.54308687       6.61868166       10       0.00000000      -0.02868980      -0.04064607       0.24325554
Ni       7.74011791       4.42616572       6.55287237       10       1.00000000       0.06519701      -0.06248179      -0.13735560
Ni      10.25864855       4.40636975       6.56370415       10       1.00000000      -0.02879861       0.02537080      -0.16028134
Ni       3.78518457       6.64839037       6.54742144        9       1.00000000      -0.08329241      -0.01514412      -0.08699264
Ni       6.41024424       6.64026456       6.44038697        8       1.00000000       0.08488154      -0.03577656       0.38704764
Pt       9.03479573       6.57779869       6.53066015        9       0.00000000       0.01012703       0.01227315      -0.12034659
Ni      11.56732411       6.64356125       6.51718192        9       1.00000000       0.01399457      -0.03489465      -0.35705430
