64
Lattice="10.459263872337745 0.021331544551389376 -0.010739029985368772 5.2481055956523335 9.032105780369571 -0.0362499189875922 -0.008768381265533922 -0.029114324094105925 8.967607344607785" Properties=species:S:1:pos:R:3:tags:I:1:initial_magmoms:R:1:forces:R:3 unique_id=0e0713b9a96a4d14a3f471bbfa151805 stress="-0.00023994926798732302 -3.357708710531506e-06 -1.2288575481644802e-06 -3.357708710531506e-06 -0.00023692626635193892 -4.4369829897409726e-07 -1.2288575481644802e-06 -4.4369829897409726e-07 -0.00020266219329005686" energy=-405.64416079205483 pbc="T T T"
Ni      -0.06589859      -0.02197508       0.18308084        4       1.00000000      -0.18055178      -0.04829557       0.11455171
Ni       2.64485651      -0.02975060       0.17263864        4       1.00000000       0.11654631      -0.05774216       0.13918397
Ni       5.25202830      -0.02844606       0.15352663        4       1.00000000       0.06211941      -0.00028432       0.11664951
Ni       7.86744475      -0.03810587       0.11300405        4       1.00000000       0.00690829      -0.12108390       0.07908129
Pt       1.28277267       2.28208443       0.12162030        4       0.00000000      -0.00166208       0.01984436      -0.10354754
Pt       3.92552315       2.31698555       0.13683506        4       0.00000000       0.00518968       0.10901690      -0.05204623
Pt       6.56449287       2.17992181       0.13401807        4       0.00000000       0.02007381      -0.11268859      -0.04871720
Ni       9.14874489       2.23403463       0.14217451        4       1.00000000      -0.03620124      -0.12734509       0.10949621
Ni       2.62648966       4.55754404       0.04212632        4       1.00000000       0.04857981       0.07912220      -0.06901080
Ni       5.24708436       4.52967194       0.14258376        4       1.00000000       0.18651343      -0.02512992       0.11881076
Pt       7.92798762       4.55090774       0.04305317        4       0.00000000       0.06234175      -0.02685077      -0.13637197
Ni      10.48043201       4.58095364       0.02300948        4       1.00000000       0.02746141       0.12082401      -0.06582114
Ni       3.90245958       6.80266967       0.16919736        4       1.00000000      -0.02870470       0.06414378       0.18235915
Pt       6.52813414       6.82263882       0.17850529        4       0.00000000      -0.01830578       0.02053561       0.03022348
Ni       9.18982761       6.79119771       0.04387187        4       1.00000000      -0.00022495       0.00950188      -0.00633023
Ni      11.80067722       6.80245238       0.02269121        4       1.00000000       0.08548871       0.06293061      -0.07149283
Pt       1.27220287       0.66815444       2.19592412        3       0.00000000      -0.01292139      -0.03655850       0.04168552
Pt       3.98884110       0.77149284       2.24282928        3       0.00000000       0.03965442       0.02088607       0.03852803
Ni       6.57805182       0.73159993       2.26058067        3       1.00000000       0.06634834      -0.04858735       0.02788707
Ni       9.09732654       0.71725884       2.18808641        3       1.00000000      -0.08588998      -0.02858970      -0.03095893
Ni       2.63680626       3.03182320       2.25547688        3       1.00000000      -0.01369564       0.01089367       0.01818079
Ni       5.23410853       3.01860504       2.27031409        3       1.00000000       0.03148767      -0.00828085       0.03897682
Pt       7.82536420       2.99229568       2.27903792        3       0.00000000      -0.03822104       0.01701113      -0.01370597
Pt      10.40764520       3.06189779       2.21240213        3       0.00000000      -0.05065603       0.04621027      -0.00377258
Pt       3.96831827       5.24835447       2.16124195        3       0.00000000       0.03350061      -0.04564295       0.04164154
Ni       6.58229548       5.28079650       2.23258610        3       1.00000000       0.09207974      -0.00310067       0.01102597
Ni       9.12492809       5.30807210       2.26631319        3       1.00000000      -0.04769855       0.00371679       0.07043405
Pt      11.78410592       5.29461832       2.12920551        3       0.00000000       0.02842284      -0.00836814      -0.07017268
Ni       5.19843832       7.51764637       2.19427630        3       1.00000000      -0.07419355      -0.01682157       0.01641399
Ni       7.87590262       7.46549177       2.22167127        3       1.00000000       0.03017908      -0.08830222       0.05184748
Pt      10.47243225       7.50214728       2.12753694        3       0.00000000      -0.01787770      -0.03428670       0.01999952
Ni      13.10273638       7.58121498       2.15289507        3       1.00000000      -0.04935758      -0.00160364      -0.03150385
Pt      -0.09467414       1.53245192       4.40767821        2       0.00000000      -0.08540084       0.02883120      -0.00759203
Pt       2.66018598       1.54553189       4.37836474        2       0.00000000      -0.04659588      -0.02109981      -0.04794047
Ni       5.25534620       1.51816330       4.40833185        2       1.00000000       0.00926285       0.01567742      -0.09403719
Ni       7.82060897       1.50848279       4.40929336        2       1.00000000      -0.02238322       0.00636930      -0.07741012
Pt       1.26075131       3.81800378       4.44882815        2       0.00000000      -0.02976091       0.04101098      -0.08300655
Ni       3.94265743       3.74940215       4.39947916        2       1.00000000       0.00163470       0.01516129      -0.11377453
Pt       6.56666541       3.74076556       4.40581193        2       0.00000000      -0.02368807       0.00545303       0.02931974
Ni       9.13776000       3.83710265       4.45356393        2       1.00000000      -0.01491770       0.06172439      -0.06628563
Pt       2.58555093       5.99763442       4.45286700        2       0.00000000       0.01305872       0.04882886      -0.02517926
Pt       5.26181877       5.97501018       4.35157973        2       0.00000000       0.00322246       0.01596802       0.04544636
Ni       7.91927443       5.95654351       4.40203970        2       1.00000000       0.01255233      -0.04802047      -0.11152874
Ni      10.41503566       5.99436569       4.46738615        2       1.00000000      -0.01181398       0.01006543      -0.08373918
Pt       3.90178422       8.28635432       4.32910068        2       0.00000000       0.00465387      -0.00627526      -0.02244109
Pt       6.57390345       8.22604916       4.35604387        2       0.00000000       0.00527623       0.03383150       0.03747903
Pt       9.18038374       8.17708241       4.40664241        2       0.00000000      -0.01867133       0.02368964       0.03645202
Pt      11.77595179       8.33063655       4.38049138        2       0.00000000      -0.02073380       0.02487320      -0.02252057
Pt      -0.05776363      -0.02054697       6.73866035        1       0.00000000      -0.01609917       0.03198797       0.10710744
Pt       2.64073886      -0.04719844       6.73232789        1       0.00000000       0.01692679       0.00904993       0.14204941
Pt       5.28062715      -0.12278905       6.72746350        1       0.00000000       0.03912445      -0.14335821       0.13040884
Ni       7.83217275      -0.00669626       6.65099361        1       1.00000000       0.03258262       0.04668481      -0.08629503
Pt       1.29307681       2.32953282       6.60910757        1       0.00000000      -0.00131875       0.03479998       0.00360475
Pt       3.92658831       2.27682973       6.56761396        1       0.00000000       0.04207556      -0.01548831      -0.04492858
Pt       6.56360095       2.20584798       6.55987466        1       0.00000000      -0.01262644      -0.06730719      -0.02893934
Pt       9.12802101       2.34768505       6.67070996        1       0.00000000       0.02773449       0.12275812       0.12694951
Ni       2.57078973       4.52939741       6.64207339        1       1.00000000      -0.06585162       0.04173941      -0.10971753
Pt       5.21754612       4.51442973       6.67319815        1       0.00000000      -0.04830171       0.01872017       0.09742435
Ni       7.90904052       4.53379296       6.53096897        1       1.00000000       0.05925394       0.06468076      -0.15334114
Ni      10.43962474       4.59659480       6.60853646        1       1.00000000      -0.02981149       0.09567799      -0.12314384
Pt       3.80952994       6.76083676       6.73864999        1       0.00000000      -0.09477423       0.03390637       0.19376958
Pt       6.63188402       6.69780344       6.59352313        1       0.00000000       0.03940223      -0.00244515       0.01855819
Ni       9.20690132       6.68600343       6.60603187        1       1.00000000       0.03628207      -0.11066049      -0.10534206
Ni      11.73090510       6.71281718       6.63029172        1       1.00000000      -0.08702750      -0.16190958      -0.12493121
