64
Lattice="10.164957675179998 0.001344544258780595 0.011606178401233902 5.083643247074618 8.805155900820754 -0.03592423818747201 0.0 0.0 21.517566989826015" Properties=species:S:1:pos:R:3:tags:I:1:initial_magmoms:R:1:forces:R:3 unique_id=03a3a778f045469394995106d45ce7d1 energy=-369.7759535119241 stress="0.0039966680035468174 -1.56164518578268e-06 8.315636603374842e-05 -1.56164518578268e-06 0.004036964016278994 -0.00039378349137049847 8.315636603374842e-05 -0.00039378349137049847 -0.002779519819263292" pbc="T T T"
Ni       0.01241854       0.01743497       0.16648544        2       1.00000000       0.16007817       0.02195523      -0.49606123
Ni       2.56496007       0.02926849       0.19379521        2       1.00000000       0.04291964       0.03688867      -0.29177648
Ni       5.06902733      -0.01403663       0.07340860        1       1.00000000      -0.01275326       0.08378450       0.22074604
Ni       7.62725518      -0.02227727       0.04752645        0       1.00000000      -0.06914760       0.07797261      -0.01385769
Ni       1.27592039       2.20275836       0.17041615        2       1.00000000      -0.00493737       0.05174703      -0.08555805
Ni       3.78435572       2.19830091       0.17230406        2       1.00000000       0.03311905       0.02721728      -0.15817316
Pt       6.35251601       2.19589806       0.16958377        2       0.00000000      -0.02537330      -0.05074198      -0.68586838
Ni       8.93178754       2.22701421       0.05783491        1       1.00000000       0.01619488       0.09380809       0.17059251
Ni       2.55738067       4.38397968       0.03986408        0       1.00000000      -0.01479567      -0.11421791       0.24030341
Ni       5.03595848       4.39060767       0.04813181        0       1.00000000      -0.09469336      -0.09442388       0.04920444
Ni       7.68032361       4.38757102       0.04384262        0       1.00000000       0.12170223      -0.02216891       0.07201342
Ni      10.15735454       4.38115334       0.04737184        0       1.00000000      -0.01081727      -0.04106596       0.21471495
Ni       3.80046632       6.57827024       0.01868755        0       1.00000000       0.07066043      -0.09422318       0.00868161
Pt       6.35598441       6.63041698       0.00000000        0       0.00000000       0.07090532       0.18309020      -0.46349613
Ni       8.91079522       6.58593899       0.10938599        1       1.00000000      -0.06665644      -0.11593214      -0.21645801
Ni      11.43518199       6.59043804       0.00242893        0       1.00000000      -0.09764637      -0.10822197       0.06482300
Ni       1.30044477       0.74829361       2.12587075        3       1.00000000       0.04658885       0.08104001       0.07595661
Ni       3.81474124       0.75650271       2.14663073        3       1.00000000       0.09125215       0.02081439       0.13916690
Ni       6.32312611       0.74926733       2.22296844        4       1.00000000      -0.07691242       0.06674964       0.29939191
Pt       8.91871403       0.80942423       2.15571721        4       0.00000000      -0.06225261      -0.02393642       0.03420189
Ni       2.56277441       2.91164155       2.12840682        3       1.00000000       0.00450938       0.03208125       0.02642516
Ni       5.02716548       2.90318537       2.19000585        4       1.00000000      -0.13502491      -0.04109037       0.22012938
Ni       7.67342957       2.94189349       2.17749604        4       1.00000000       0.19343700       0.09355215       0.12061902
Ni      10.16555531       2.92965998       2.17419441        4       1.00000000       0.02112142       0.00806236       0.17593103
Ni       3.81621771       5.07308537       2.12459689        3       1.00000000      -0.00948020      -0.14821105      -0.04097048
Pt       6.37851282       5.10267327       2.12726501        3       0.00000000       0.01281948      -0.04838745      -0.09660855
Ni       8.89665256       5.08963331       2.15869662        4       1.00000000       0.03959912      -0.08824421       0.10166558
Pt      11.42693018       5.03818135       2.16509179        4       0.00000000      -0.01963284      -0.00871307       0.02667146
Ni       5.09663327       7.33682067       2.11929420        3       1.00000000      -0.02277776      -0.03516700       0.05190501
Ni       7.62675615       7.35352540       2.13417660        3       1.00000000      -0.01055967       0.00628166       0.10063342
Pt      10.10258263       7.36478170       2.16487307        4       0.00000000      -0.04437563      -0.03181798       0.11949840
Pt      12.72202086       7.30964642       2.09607470        3       0.00000000       0.03348808      -0.00481601      -0.03082145
Ni      -0.02408131       1.51754752       4.29493934        6       1.00000000       0.03069925       0.14571515      -0.08748394
Pt       2.57363753       1.51035631       4.19490473        5       0.00000000      -0.00301732       0.04491081       0.02701568
Ni       5.10925609       1.40020943       4.26910184        6       1.00000000      -0.01362214      -0.08568328      -0.18207465
Ni       7.64124687       1.44985744       4.29194494        6       1.00000000       0.00933428       0.07758197      -0.12519437
Ni       1.25010120       3.69426514       4.30215570        6       1.00000000      -0.05326467      -0.00560015      -0.03688321
Ni       3.78397986       3.66969958       4.27811724        6       1.00000000      -0.10431153      -0.04128200      -0.18238306
Pt       6.40048013       3.60670430       4.27011747        6       0.00000000      -0.02721018      -0.06067724       0.07282593
Ni       8.94456797       3.65675201       4.31321973        6       1.00000000       0.12238022       0.04252844      -0.07715689
Ni       2.48306542       5.81408773       4.33514110        6       1.00000000      -0.19756264      -0.03719253      -0.08153394
Pt       5.01651647       5.80891120       4.32316311        6       0.00000000      -0.09904994      -0.03522093      -0.11733495
Ni       7.69630549       5.82744290       4.28498027        6       1.00000000       0.19183835      -0.04868911      -0.23738577
Ni      10.18656331       5.82834941       4.30342554        6       1.00000000      -0.02964924      -0.05032077      -0.09969182
Pt       3.71924562       8.07208421       4.30321301        6       0.00000000      -0.10595333       0.02819037       0.07629542
Pt       6.39939556       8.03519317       4.19970630        5       0.00000000       0.05233010       0.07468687      -0.06915468
Ni       8.95407276       8.04078253       4.28294922        6       1.00000000      -0.04474524       0.06479310      -0.04409068
Ni      11.39000219       8.05373761       4.32981819        6       1.00000000      -0.14359302      -0.01762867      -0.01662163
Pt      -0.07470078      -0.04305441       6.51756699        9       0.00000000       0.02725182       0.05274338       0.44798172
Pt       2.58541336      -0.05068175       6.50592816        9       0.00000000       0.00914542       0.00397200       0.36135325
Ni       5.13912264      -0.06152827       6.42144480        8       1.00000000      -0.00443709       0.00599055      -0.11980216
Ni       7.57560153      -0.06940279       6.45742283        9       1.00000000      -0.06056726      -0.10298113       0.05821605
Pt       1.21114716       2.28148918       6.46077940        9       0.00000000       0.04767572      -0.08165484       0.10006523
Pt       3.85199951       2.25975871       6.46501039        9       0.00000000       0.12917476       0.14673774       0.18571128
Pt       6.43410634       2.13134895       6.40072403        8       0.00000000      -0.10158563      -0.03436312       0.76412752
Ni       8.88631444       2.21920944       6.41687508        8       1.00000000       0.04064334       0.08266398      -0.15696542
Ni       2.53801467       4.45675405       6.39882434        8       1.00000000      -0.00525732       0.03574308      -0.25268072
Ni       5.08578913       4.42574341       6.44593714        8       1.00000000       0.06343042      -0.08470124       0.05374442
Ni       7.64754805       4.37680182       6.41962009        8       1.00000000       0.03816196      -0.06302592      -0.14611144
Ni      10.16905700       4.39735538       6.40364001        8       1.00000000       0.03771803       0.01533030      -0.25321381
Ni       3.76396630       6.53798861       6.43049572        8       1.00000000      -0.05327784       0.02573950      -0.03471398
Ni       6.34958926       6.52356214       6.33528444        7       1.00000000       0.12432358       0.02185915       0.43755658
Pt       8.95912227       6.50478100       6.40646016        8       0.00000000      -0.06140736       0.07772634       0.04376551
Ni      11.47803965       6.57539384       6.39305890        8       1.00000000       0.00384598      -0.01155738      -0.26180703
