103
Lattice="14.06201159801613 3.1160625793574216e-06 -1.3301758008065295e-08 3.1160625793574216e-06 14.062011630348772 4.96101812785929e-07 0.0 0.0 35.966009058573086" Properties=species:S:1:pos:R:3:tags:I:1:initial_magmoms:R:1:forces:R:3 energy=-578.1064453125 free_energy=-578.1064453125 stress="0.014217119826918234 -8.091580201273093e-06 4.010985611274282e-05 -8.091580201273093e-06 0.014192996371765796 6.351163327548551e-05 4.010985611274282e-05 6.351163327548551e-05 0.0018731155710270387" pbc="T T T"
Pt       1.40620147       1.40620147       0.00000001        0       0.00000000       0.00227327       0.00237548       0.27883840
Pt       4.21860379       1.40620210       0.00000001        0       0.00000000      -0.00557178       0.00424105       0.27718055
Pt       7.03100612       1.40620272       0.00000001        0       0.00000000       0.00013283      -0.00192728       0.26294193
Pt       9.84340843       1.40620334       0.00000000        0       0.00000000      -0.00022803      -0.00080819       0.26513922
Pt      12.65581074       1.40620397       0.00000000        0       0.00000000       0.00154804      -0.00198628       0.26617020
Pt       1.40620210       4.21860380       0.00000011        0       0.00000000       0.00388556      -0.00590778       0.27743775
Pt       4.21860442       4.21860442       0.00000011        0       0.00000000      -0.00385754      -0.00459990       0.27541623
Pt       7.03100674       4.21860505       0.00000010        0       0.00000000      -0.00063041       0.00156798       0.26317364
Pt       9.84340905       4.21860567       0.00000010        0       0.00000000       0.00017344       0.00178414       0.26461411
Pt      12.65581137       4.21860630       0.00000010        0       0.00000000      -0.00155092       0.00353277       0.26160604
Pt       1.40620272       7.03100614       0.00000021        0       0.00000000      -0.00220642      -0.00022544       0.26207525
Pt       4.21860504       7.03100675       0.00000020        0       0.00000000       0.00183406      -0.00051263       0.26188624
Pt       7.03100736       7.03100738       0.00000020        0       0.00000000       0.00406377       0.00375558       0.25626370
Pt       9.84340967       7.03100800       0.00000020        0       0.00000000       0.00012966       0.00086619       0.26187217
Pt      12.65581198       7.03100862       0.00000020        0       0.00000000      -0.00536801       0.00461781       0.25621814
Pt       1.40620334       9.84340845       0.00000031        0       0.00000000      -0.00046812      -0.00018702       0.26487815
Pt       4.21860567       9.84340907       0.00000030        0       0.00000000       0.00154270       0.00010942       0.26434481
Pt       7.03100798       9.84340969       0.00000030        0       0.00000000       0.00046204      -0.00039244       0.26251966
Pt       9.84341030       9.84341032       0.00000030        0       0.00000000      -0.00051965      -0.00082544       0.26886362
Pt      12.65581261       9.84341095       0.00000030        0       0.00000000      -0.00058980      -0.00030354       0.26319277
Pt       1.40620397      12.65581077       0.00000040        0       0.00000000      -0.00154836       0.00189622       0.26675302
Pt       4.21860629      12.65581139       0.00000040        0       0.00000000       0.00292138      -0.00171283       0.26151556
Pt       7.03100861      12.65581201       0.00000040        0       0.00000000       0.00426991      -0.00491146       0.25744480
Pt       9.84341093      12.65581263       0.00000040        0       0.00000000       0.00035945      -0.00119636       0.26279286
Pt      12.65581324      12.65581327       0.00000039        0       0.00000000      -0.00694858      -0.00719383       0.25449622
Pt      -0.00000000       0.00000007       1.98866953        1       0.00000000       0.04122684       0.04038503      -0.24427587
Pt       2.81240232       0.00000069       1.98866953        1       0.00000000      -0.01286512       0.06362539      -0.20366193
Pt       5.62480464       0.00000131       1.98866952        1       0.00000000      -0.02543219       0.02263044      -0.26302215
Pt       8.43720697       0.00000194       1.98866952        1       0.00000000      -0.00783477       0.01048118      -0.26898783
Pt      11.24960929       0.00000256       1.98866952        1       0.00000000       0.00868440       0.00864996      -0.27353314
Pt       0.00000061       2.81240239       1.98866963        1       0.00000000       0.07029982      -0.01163064      -0.19685024
Pt       2.81240294       2.81240302       1.98866962        1       0.00000000       0.00854870       0.01053406      -0.29939052
Pt       5.62480526       2.81240364       1.98866962        1       0.00000000      -0.05643311       0.00202674      -0.21208587
Pt       8.43720759       2.81240426       1.98866962        1       0.00000000      -0.00283048      -0.00414503      -0.27039233
Pt      11.24960990       2.81240488       1.98866962        1       0.00000000       0.01392747      -0.00560842      -0.27038074
Pt       0.00000124       5.62480473       1.98866973        1       0.00000000       0.01909829      -0.02804094      -0.26773399
Pt       2.81240356       5.62480534       1.98866972        1       0.00000000       0.00082878      -0.06015809      -0.21100178
Pt       5.62480589       5.62480598       1.98866972        1       0.00000000      -0.01355520      -0.01800998      -0.27276325
Pt       8.43720821       5.62480659       1.98866972        1       0.00000000       0.00078178      -0.01125869      -0.27730578
Pt      11.24961052       5.62480722       1.98866971        1       0.00000000       0.00686666      -0.01179129      -0.27806655
Pt       0.00000187       8.43720706       1.98866983        1       0.00000000       0.00544891      -0.00339783      -0.27339000
Pt       2.81240418       8.43720768       1.98866982        1       0.00000000      -0.00456493       0.00438682      -0.27804279
Pt       5.62480651       8.43720830       1.98866982        1       0.00000000      -0.00706686       0.00442215      -0.28018311
Pt       8.43720883       8.43720891       1.98866982        1       0.00000000       0.00987186       0.01058023      -0.28602347
Pt      11.24961114       8.43720955       1.98866981        1       0.00000000      -0.00542123       0.00723396      -0.28338280
Pt       0.00000249      11.24960939       1.98866992        1       0.00000000       0.00654832       0.01104718      -0.27492666
Pt       2.81240480      11.24961001       1.98866992        1       0.00000000      -0.00615701       0.01569540      -0.27220151
Pt       5.62480714      11.24961062       1.98866992        1       0.00000000      -0.00928543       0.00935439      -0.27867937
Pt       8.43720946      11.24961125       1.98866992        1       0.00000000       0.00586842      -0.00274336      -0.28216514
Pt      11.24961177      11.24961187       1.98866991        1       0.00000000      -0.00474639      -0.00304267      -0.28028062
Pt       1.42894282       1.42724553       3.97958344        2       0.00000000      -0.00235252      -0.00154206      -0.00660568
Pt       4.20262993       1.42223442       3.96410229        2       0.00000000       0.00258520       0.00400257       0.00153418
Pt       7.02553444       1.40473093       3.93938749        2       0.00000000       0.00352239      -0.00137530      -0.00164644
Pt       9.84482753       1.40363591       3.93792104        2       0.00000000       0.00069064      -0.00054840      -0.00060005
Pt      12.66388898       1.40431971       3.93799803        2       0.00000000      -0.00099534      -0.00059342      -0.00056161
Pt       1.42436845       4.20175536       3.96541636        2       0.00000000       0.00275421       0.00297854       0.00128953
Pt       4.20837660       4.20819278       3.96539693        2       0.00000000      -0.00164172      -0.00134239       0.00580989
Pt       7.02791312       4.21920167       3.93825871        2       0.00000000       0.00259082       0.00262947      -0.00110550
Pt       9.84556209       4.21936315       3.93769497        2       0.00000000      -0.00009048       0.00126698      -0.00005040
Pt      12.66279647       4.21725706       3.93778492        2       0.00000000      -0.00075294       0.00207690      -0.00058362
Pt       1.40241287       7.02753179       3.93645168        2       0.00000000      -0.00088754       0.00316388      -0.00097433
Pt       4.22054058       7.02991380       3.93601514        2       0.00000000       0.00241580       0.00206228      -0.00085296
Pt       7.03714136       7.03684489       3.93557486        2       0.00000000       0.00101572       0.00070487       0.00191422
Pt       9.84463280       7.03215746       3.94086425        2       0.00000000       0.00082102       0.00225709      -0.00003996
Pt      12.65118843       7.03353332       3.93739583        2       0.00000000      -0.00009741       0.00208962       0.00092471
Pt       1.40291394       9.84607891       3.93779467        2       0.00000000      -0.00030228       0.00062056      -0.00061017
Pt       4.21938486       9.84667871       3.93764557        2       0.00000000       0.00148750      -0.00028237       0.00007242
Pt       7.03222228       9.84515765       3.94073874        2       0.00000000       0.00213052       0.00055191       0.00000139
Pt       9.84316734       9.84347369       3.94137230        2       0.00000000       0.00072542       0.00064795       0.00209433
Pt      12.65366856       9.84393384       3.94065724        2       0.00000000      -0.00085653       0.00069982       0.00142026
Pt       1.40453383      12.66367830       3.93859294        2       0.00000000       0.00021609      -0.00075912       0.00009167
Pt       4.21713620      12.66215197       3.93854462        2       0.00000000       0.00185663      -0.00010379      -0.00023238
Pt       7.03311208      12.65265860       3.93754804        2       0.00000000       0.00199578      -0.00018990       0.00079139
Pt       9.84352744      12.65437540       3.94062614        2       0.00000000       0.00096441      -0.00118208       0.00120459
Pt      12.65334373      12.65363087       3.93795489        2       0.00000000      -0.00036244      -0.00101678       0.00040527
Pt      -0.01521716      -0.01517582       5.88563372        3       0.00000000      -0.00040828      -0.00117651       0.00065270
Pt       2.81073067      -0.03008269       5.89459632        3       0.00000000       0.00333939      -0.00189101      -0.00549835
Pt       5.63637637      -0.01827352       5.88121269        3       0.00000000       0.00223387       0.00089448       0.00040755
Pt       8.43923209      -0.00202246       5.88336248        3       0.00000000       0.00323796       0.00104628       0.00125420
Pt      11.24820893       0.00002530       5.88397506        3       0.00000000       0.00159401       0.00027743       0.00017563
Pt      -0.02532950       2.81073197       5.88963940        3       0.00000000      -0.00569922       0.00237001      -0.00590166
Pt       2.81570134       2.79135562       6.03092238        3       0.00000000      -0.02597168      -0.02570748       0.00346249
Pt       5.66989046       2.80682052       5.88602611        3       0.00000000       0.00034065       0.00338637      -0.00663379
Pt       8.45439559       2.81145899       5.88262003        3       0.00000000       0.00021990       0.00029694       0.00112763
Pt      11.24554815       2.81078491       5.88225392        3       0.00000000      -0.00447559       0.00067154      -0.00081554
Pt      -0.01908296       5.63684292       5.87965085        3       0.00000000       0.00144634       0.00153803       0.00036415
Pt       2.80306803       5.67755066       5.87398100        3       0.00000000       0.00405325       0.00028451      -0.00549313
Pt       5.64720494       5.64871012       5.87327610        3       0.00000000      -0.00092407      -0.00158890       0.00094292
Pt       8.44255982       5.62563987       5.88234866        3       0.00000000       0.00359822       0.00234489       0.00143278
Pt      11.24881574       5.62199787       5.88404265        3       0.00000000       0.00178926       0.00374367       0.00046709
Pt      -0.00283134       8.43970521       5.88300212        3       0.00000000       0.00156951       0.00230614       0.00154343
Pt       2.81054730       8.45605365       5.88173389        3       0.00000000       0.00059721       0.00023708       0.00110975
Pt       5.62512458       8.44368515       5.88217349        3       0.00000000       0.00261212       0.00230288       0.00143787
Pt       8.43783135       8.43835282       5.88582933        3       0.00000000       0.00002931       0.00006891       0.00227654
Pt      11.24874206       8.43655772       5.88562882        3       0.00000000       0.00066965       0.00125851       0.00331044
Pt      -0.00150119      11.24859172       5.88427288        3       0.00000000       0.00108249       0.00076271       0.00043693
Pt       2.81022986      11.24414389       5.88313303        3       0.00000000       0.00111329      -0.00289842      -0.00056532
Pt       5.62280776      11.24907665       5.88457997        3       0.00000000       0.00357451       0.00130959       0.00025821
Pt       8.43640697      11.24962432       5.88562195        3       0.00000000       0.00097679       0.00026261       0.00301698
Pt      11.24867385      11.24963880       5.88512274        3       0.00000000       0.00044539      -0.00010942       0.00408953
O        3.28568846       3.33866341       7.86689010        0       0.00000000      -0.02582508       0.00126427      -0.00272059
O        2.77826134       2.52228450       8.99588929        0       0.00000000      -0.03777067      -0.01777132      -0.01531675
H        3.50968659       2.69103880       9.62936419        0       0.00000000       0.01320237      -0.04558255      -0.00741960
