103
Lattice="14.06201159801613 3.1160625793574216e-06 -1.3301758008065295e-08 3.1160625793574216e-06 14.062011630348772 4.96101812785929e-07 0.0 0.0 35.966009058573086" Properties=species:S:1:pos:R:3:tags:I:1:initial_magmoms:R:1:forces:R:3 energy=-578.41748046875 free_energy=-578.41748046875 stress="0.01407756658379963 6.398726350709071e-07 -3.889143450000872e-05 6.398726350709071e-07 0.013634451554833976 7.227780731383074e-06 -3.889143450000872e-05 7.227780731383074e-06 0.0018373091076455091" pbc="T T T"
Pt       1.40620147       1.40620147       0.00000001        0       0.00000000      -0.00538886      -0.00807261       0.25207886
Pt       4.21860379       1.40620210       0.00000001        0       0.00000000      -0.00044811       0.00562375       0.26820439
Pt       7.03100612       1.40620272       0.00000001        0       0.00000000       0.00174726       0.00539983       0.26581025
Pt       9.84340843       1.40620334       0.00000000        0       0.00000000       0.00832576      -0.00738741       0.25083309
Pt      12.65581074       1.40620397       0.00000000        0       0.00000000       0.00087956      -0.00325293       0.25995481
Pt       1.40620210       4.21860380       0.00000011        0       0.00000000       0.00226684      -0.00017780       0.26499230
Pt       4.21860442       4.21860442       0.00000011        0       0.00000000       0.00686874      -0.00007743       0.29142421
Pt       7.03100674       4.21860505       0.00000010        0       0.00000000      -0.00456628      -0.00005403       0.28797215
Pt       9.84340905       4.21860567       0.00000010        0       0.00000000      -0.00051126      -0.00021904       0.26638964
Pt      12.65581137       4.21860630       0.00000010        0       0.00000000       0.00097276      -0.00014775       0.26737726
Pt       1.40620272       7.03100614       0.00000021        0       0.00000000      -0.00537211       0.00776970       0.25212377
Pt       4.21860504       7.03100675       0.00000020        0       0.00000000      -0.00028508      -0.00587844       0.26835114
Pt       7.03100736       7.03100738       0.00000020        0       0.00000000       0.00171906      -0.00561476       0.26599717
Pt       9.84340967       7.03100800       0.00000020        0       0.00000000       0.00826594       0.00707978       0.25103518
Pt      12.65581198       7.03100862       0.00000020        0       0.00000000       0.00089626       0.00302014       0.26004246
Pt       1.40620334       9.84340845       0.00000031        0       0.00000000      -0.00180863       0.00311395       0.25930238
Pt       4.21860567       9.84340907       0.00000030        0       0.00000000       0.00199017      -0.00259687       0.26581281
Pt       7.03100798       9.84340969       0.00000030        0       0.00000000       0.00157412      -0.00026170       0.26237953
Pt       9.84341030       9.84341032       0.00000030        0       0.00000000       0.00215461       0.00154494       0.26110435
Pt      12.65581261       9.84341095       0.00000030        0       0.00000000       0.00096028      -0.00065682       0.26800609
Pt       1.40620397      12.65581077       0.00000040        0       0.00000000      -0.00183430      -0.00328885       0.25924829
Pt       4.21860629      12.65581139       0.00000040        0       0.00000000       0.00207927       0.00245874       0.26579985
Pt       7.03100861      12.65581201       0.00000040        0       0.00000000       0.00162518       0.00000686       0.26223323
Pt       9.84341093      12.65581263       0.00000040        0       0.00000000       0.00211264      -0.00168405       0.26115650
Pt      12.65581324      12.65581327       0.00000039        0       0.00000000       0.00095547       0.00049768       0.26803306
Pt      -0.00000000       0.00000007       1.98866953        1       0.00000000      -0.01041484      -0.00428043      -0.29002726
Pt       2.81240232       0.00000069       1.98866953        1       0.00000000       0.00631285       0.01689334      -0.28293791
Pt       5.62480464       0.00000131       1.98866952        1       0.00000000      -0.02000360       0.00295366      -0.27563962
Pt       8.43720697       0.00000194       1.98866952        1       0.00000000      -0.01174930      -0.00052044      -0.29976583
Pt      11.24960929       0.00000256       1.98866952        1       0.00000000      -0.00098728      -0.00618936      -0.29104212
Pt       0.00000061       2.81240239       1.98866963        1       0.00000000       0.00956798       0.01928606      -0.26894850
Pt       2.81240294       2.81240302       1.98866962        1       0.00000000       0.07495131       0.03487074      -0.19373685
Pt       5.62480526       2.81240364       1.98866962        1       0.00000000      -0.01493421       0.10588282      -0.17494181
Pt       8.43720759       2.81240426       1.98866962        1       0.00000000      -0.08334002       0.03663738      -0.20897138
Pt      11.24960990       2.81240488       1.98866962        1       0.00000000      -0.02273903       0.01956132      -0.27269244
Pt       0.00000124       5.62480473       1.98866973        1       0.00000000       0.00968208      -0.01661888      -0.26883516
Pt       2.81240356       5.62480534       1.98866972        1       0.00000000       0.07555056      -0.03334916      -0.19380726
Pt       5.62480589       5.62480598       1.98866972        1       0.00000000      -0.01474473      -0.10310549      -0.17476866
Pt       8.43720821       5.62480659       1.98866972        1       0.00000000      -0.08415361      -0.03421623      -0.20818302
Pt      11.24961052       5.62480722       1.98866971        1       0.00000000      -0.02276790      -0.01647714      -0.27230436
Pt       0.00000187       8.43720706       1.98866983        1       0.00000000      -0.01065460       0.00603241      -0.28997651
Pt       2.81240418       8.43720768       1.98866982        1       0.00000000       0.00673181      -0.01567886      -0.28274861
Pt       5.62480651       8.43720830       1.98866982        1       0.00000000      -0.01947279      -0.00229719      -0.27465221
Pt       8.43720883       8.43720891       1.98866982        1       0.00000000      -0.01283676       0.00102461      -0.29866809
Pt      11.24961114       8.43720955       1.98866981        1       0.00000000      -0.00162461       0.00770164      -0.29062778
Pt       0.00000249      11.24960939       1.98866992        1       0.00000000      -0.01856725       0.00073726      -0.29218480
Pt       2.81240480      11.24961001       1.98866992        1       0.00000000      -0.01960895       0.00010720      -0.30594260
Pt       5.62480714      11.24961062       1.98866992        1       0.00000000      -0.01086869       0.00013164      -0.30526510
Pt       8.43720946      11.24961125       1.98866992        1       0.00000000       0.00805677       0.00027267      -0.30725604
Pt      11.24961177      11.24961187       1.98866991        1       0.00000000       0.00767993       0.00082145      -0.29224288
Pt       1.40109211       1.40053100       3.93473022        2       0.00000000       0.00518042       0.00092366      -0.00223140
Pt       4.22564008       1.41030942       3.95475343        2       0.00000000       0.00383788       0.00212319       0.00215493
Pt       7.01773318       1.40401441       3.94530770        2       0.00000000       0.00168156       0.00306713       0.00404015
Pt       9.84252501       1.39985656       3.93398731        2       0.00000000       0.00166710      -0.00059401      -0.00057454
Pt      12.65274502       1.40283344       3.93847330        2       0.00000000       0.00365980       0.00049814      -0.00015067
Pt       1.41954408       4.21899422       3.93708499        2       0.00000000       0.00654682      -0.00058472       0.00115471
Pt       4.25224316       4.21910633       4.00285027        2       0.00000000       0.00339542      -0.00001845      -0.00783773
Pt       6.99077257       4.21935696       3.99833039        2       0.00000000       0.00516145      -0.00091199       0.00128555
Pt       9.82320017       4.21911401       3.93708656        2       0.00000000       0.00552533      -0.00073005      -0.00049204
Pt      12.65198054       4.21925869       3.93389812        2       0.00000000       0.00527077      -0.00072438      -0.00080355
Pt       1.40128790       7.03731403       3.93469013        2       0.00000000       0.00423233      -0.00115985      -0.00199157
Pt       4.22581879       7.02757116       3.95493898        2       0.00000000       0.00240311      -0.00170930       0.00169529
Pt       7.01755945       7.03366963       3.94607827        2       0.00000000       0.00259754      -0.00193134       0.00185895
Pt       9.84223172       7.03800602       3.93414769        2       0.00000000       0.00241188       0.00045656      -0.00083929
Pt      12.65273039       7.03551424       3.93860103        2       0.00000000       0.00338023      -0.00188860      -0.00127815
Pt       1.39789225       9.84721860       3.93967427        2       0.00000000       0.00052692      -0.00079390      -0.00021654
Pt       4.21012435       9.84654226       3.93550771        2       0.00000000       0.00224373      -0.00081073       0.00197960
Pt       7.03235339       9.84813099       3.93617564        2       0.00000000       0.00061557      -0.00231506       0.00176328
Pt       9.84632371       9.84775685       3.93951750        2       0.00000000       0.00192531      -0.00000451      -0.00026968
Pt      12.65331836       9.84575273       3.94250248        2       0.00000000       0.00146821      -0.00116795      -0.00076790
Pt       1.39800362      12.65245475       3.93962529        2       0.00000000       0.00022583       0.00075175      -0.00010023
Pt       4.21014348      12.65297283       3.93529889        2       0.00000000       0.00227440       0.00041287       0.00247887
Pt       7.03255203      12.65135723       3.93605536        2       0.00000000       0.00032050       0.00171697       0.00156048
Pt       9.84647371      12.65207075       3.93952768        2       0.00000000       0.00166514      -0.00036355      -0.00021754
Pt      12.65345338      12.65435517       3.94247551        2       0.00000000       0.00113221       0.00058626      -0.00094931
Pt      -0.00916365       0.00057399       5.88760727        3       0.00000000       0.00261559       0.00151079      -0.00110933
Pt       2.79055269      -0.01664543       5.88502407        3       0.00000000       0.00257669      -0.00128528      -0.00084481
Pt       5.61624322      -0.06855959       5.89205941        3       0.00000000       0.00306093       0.00597409       0.00238851
Pt       8.44507845      -0.01948258       5.88323452        3       0.00000000       0.00546030      -0.00282280       0.00124472
Pt      11.24775659       0.00015772       5.88714495        3       0.00000000       0.00329867       0.00080160      -0.00041422
Pt      -0.01695422       2.81500764       5.87919825        3       0.00000000       0.00888567      -0.00064093      -0.00116417
Pt       2.77031806       2.78863131       5.87873327        3       0.00000000       0.00826865      -0.00235309       0.00024360
Pt       5.62138818       2.62575313       5.99630947        3       0.00000000       0.01095411      -0.00085241       0.00226957
Pt       8.46736054       2.78007060       5.87294112        3       0.00000000       0.00927095      -0.00053132       0.00242037
Pt      11.25378789       2.81479662       5.87898196        3       0.00000000       0.00888351       0.00002467       0.00018725
Pt      -0.01633278       5.62430618       5.87929281        3       0.00000000       0.00657565      -0.00199486      -0.00107306
Pt       2.77040448       5.64912595       5.87910136        3       0.00000000       0.00750260       0.00316120      -0.00116649
Pt       5.62017889       5.81372187       5.99780027        3       0.00000000       0.01199226      -0.00324398      -0.00186386
Pt       8.46747829       5.65769997       5.87345529        3       0.00000000       0.00877216       0.00137936       0.00086504
Pt      11.25429788       5.62443371       5.87915842        3       0.00000000       0.00736458      -0.00203556      -0.00001058
Pt      -0.00957413       8.43828300       5.88782618        3       0.00000000       0.00352391      -0.00268643      -0.00166973
Pt       2.79004377       8.45417540       5.88525178        3       0.00000000       0.00384086       0.00206879      -0.00068438
Pt       5.61601329       8.50724055       5.89299716        3       0.00000000       0.00325571      -0.00676703       0.00080156
Pt       8.44503255       8.45766812       5.88355205        3       0.00000000       0.00486953       0.00193789       0.00127727
Pt      11.24731828       8.43874701       5.88730698        3       0.00000000       0.00423350      -0.00209514      -0.00057968
Pt      -0.00639951      11.25043748       5.89073911        3       0.00000000       0.00030666      -0.00085114      -0.00073928
Pt       2.80289685      11.24971508       5.88796838        3       0.00000000      -0.00170027       0.00075249       0.00044012
Pt       5.61953460      11.25032157       5.88538424        3       0.00000000       0.00169298      -0.00065774       0.00154170
Pt       8.43837019      11.24997643       5.88829018        3       0.00000000       0.00282656       0.00015881      -0.00013211
Pt      11.24823825      11.25044307       5.89068336        3       0.00000000       0.00299544      -0.00080845      -0.00114870
O        5.82989287       4.21888529       7.24740185        0       0.00000000       0.01177102      -0.00114350       0.00136399
O        5.09723696       4.21540492       8.59344978        0       0.00000000      -0.03859261       0.00062330      -0.01230851
H        5.89487046       4.18388492       9.17079138        0       0.00000000      -0.01809943       0.00022283       0.01911771
