64
Lattice="10.385233584734276 -0.020375847095795954 0.06229441594983996 5.174970791158553 8.85554434235206 0.013062693240783851 0.050863177633934005 -0.017050244003967884 8.827303648464552" Properties=species:S:1:pos:R:3:tags:I:1:initial_magmoms:R:1:forces:R:3 unique_id=be0c14ee35774076b79d57b3cabb7341 stress="0.0003344222627065102 5.059095427261637e-06 -2.5065291455123624e-05 5.059095427261637e-06 0.00034176942572265723 1.438007357185249e-05 -2.5065291455123624e-05 1.438007357185249e-05 0.0003063626664390612" energy=-399.64671603110025 pbc="T T T"
Ni      -0.00912072      -0.01593218       0.17482853        4       1.00000000      -0.02017855       0.02956443       0.34514895
Ni       2.62387853      -0.01491331       0.21298551        4       1.00000000       0.13031570       0.02236099       0.45856829
Ni       5.19801558      -0.03868344       0.18491833        4       1.00000000       0.03235452       0.02735122       0.19965069
Ni       7.78675087      -0.07732396       0.23056252        4       1.00000000      -0.03070980      -0.13427825       0.38750307
Pt       1.30435002       2.22546994       0.19142797        4       0.00000000       0.04823098       0.02527731       0.21666599
Pt       3.87735624       2.16444211       0.20495773        4       0.00000000       0.03244223       0.00480088       0.17155441
Pt       6.49064192       2.12458902       0.14022511        4       0.00000000       0.06772047      -0.06982593      -0.02391322
Pt       9.11206729       2.19402264       0.17325146        4       0.00000000       0.06265142      -0.01247682       0.11180043
Ni       2.56859859       4.47953790       0.06739185        4       1.00000000       0.01107271       0.09465274       0.02063051
Pt       5.14433891       4.46516125       0.06016094        4       0.00000000      -0.01511341       0.06150744      -0.17246621
Pt       7.82861263       4.47232517       0.07670348        4       0.00000000       0.11254686       0.12294205      -0.15588475
Ni      10.41384123       4.46654007       0.11686872        4       1.00000000       0.08144677       0.13820746       0.05039380
Ni       3.83542886       6.68309668       0.09674320        4       1.00000000      -0.06519452       0.11201547       0.17543084
Pt       6.48610428       6.74162859       0.22141115        4       0.00000000       0.01911667       0.12414857       0.25802066
Ni       9.11617324       6.66779321       0.11053881        4       1.00000000       0.06874915       0.07735255       0.01468245
Ni      11.69203459       6.63155375       0.11856316        4       1.00000000       0.13426011      -0.01181452      -0.00160007
Ni       1.34088256       0.71671479       2.27671390        3       1.00000000       0.05816152       0.02839324       0.18203570
Ni       3.87740616       0.74657050       2.27995938        3       1.00000000      -0.05625471       0.12525340       0.17121485
Ni       6.49614282       0.74769032       2.28370306        3       1.00000000      -0.02363789       0.09291582       0.17848515
Pt       9.10661626       0.71508809       2.30658086        3       0.00000000       0.01590423       0.21143140      -0.05047466
Ni       2.60389127       2.90622602       2.31344160        3       1.00000000      -0.01121048      -0.12116077       0.21632350
Ni       5.20466094       2.90664666       2.30147343        3       1.00000000      -0.06561832      -0.07607670       0.06951276
Ni       7.77070553       2.91940158       2.30448080        3       1.00000000       0.01618974      -0.05604712      -0.04852094
Ni      10.40359667       2.91545563       2.35327695        3       1.00000000       0.02224302      -0.07978991       0.20268589
Pt       3.89479022       5.16054728       2.25781834        3       0.00000000      -0.03046557      -0.08156556      -0.17750845
Ni       6.49815221       5.15147197       2.27133434        3       1.00000000       0.01564612      -0.01833289      -0.07582836
Pt       9.05061786       5.12711046       2.34309417        3       0.00000000      -0.12115643      -0.05237427      -0.06282157
Pt      11.69100403       5.10163913       2.29024386        3       0.00000000      -0.03371963      -0.05561515       0.03443903
Ni       5.21245138       7.39646091       2.25325917        3       1.00000000       0.06401605       0.02919952       0.12154360
Ni       7.75903854       7.40697095       2.28109168        3       1.00000000      -0.09175612       0.02553616       0.14029194
Pt      10.38032897       7.40956305       2.18941990        3       0.00000000       0.00326023      -0.03487250      -0.06667119
Ni      12.98745615       7.36039794       2.24621632        3       1.00000000       0.00378208      -0.07440670      -0.00091729
Ni       0.05757220       1.50703466       4.33512212        2       1.00000000       0.14496654       0.09818321      -0.08741492
Ni       2.60250151       1.49239492       4.33102781        2       1.00000000      -0.04822895       0.06878348      -0.11132168
Ni       5.20958547       1.47381453       4.36521842        2       1.00000000      -0.08499977      -0.06741590      -0.18417808
Ni       7.80492953       1.47331897       4.40366362        2       1.00000000      -0.00404879      -0.08229693      -0.10078736
Ni       1.31458635       3.70434093       4.36156390        2       1.00000000      -0.01213317       0.00980699      -0.11326870
Ni       3.86706992       3.66783302       4.37079851        2       1.00000000      -0.13687441      -0.11439450      -0.17259967
Pt       6.54093945       3.62282822       4.39657219        2       0.00000000       0.01577665      -0.07312136      -0.13156901
Ni       9.13899255       3.68957570       4.41388388        2       1.00000000       0.13776912      -0.06238231      -0.10946446
Ni       2.57957293       5.84498735       4.44114143        2       1.00000000      -0.09034622      -0.10189476       0.03181776
Pt       5.20465249       5.86342951       4.38230830        2       0.00000000       0.17478779       0.01831124       0.07949720
Ni       7.83166843       5.86335216       4.41954029        2       1.00000000      -0.03617484      -0.03041633      -0.01409082
Ni      10.39696941       5.82818127       4.49615630        2       1.00000000       0.01365088      -0.04196868       0.03974390
Pt       3.92606099       8.10650419       4.35932359        2       0.00000000      -0.03436862      -0.04292691       0.18046438
Ni       6.50863498       8.13713426       4.35255546        2       1.00000000      -0.04279396       0.06668475      -0.07537678
Pt       9.03419939       8.08974002       4.36649359        2       0.00000000      -0.05424700       0.02900701       0.13389602
Pt      11.69266172       8.07160822       4.38633307        2       0.00000000      -0.01042278      -0.05470017       0.04909048
Pt       0.02675441      -0.04232799       6.56930698        1       0.00000000      -0.03759630      -0.00620941       0.11421448
Pt       2.63460579      -0.03718313       6.58961690        1       0.00000000      -0.02900213       0.07038671       0.15459260
Pt       5.23101868      -0.07345869       6.62380135        1       0.00000000      -0.04018923      -0.13004140       0.04869570
Pt       7.80233267      -0.07904219       6.65564055        1       0.00000000      -0.07592748      -0.12531159       0.22466771
Pt       1.32656979       2.30934083       6.43744040        1       0.00000000      -0.02099471       0.22897435      -0.14547981
Pt       3.96855939       2.28231584       6.45865533        1       0.00000000      -0.00975814       0.08352228      -0.18192340
Ni       6.52029154       2.21390253       6.50334220        1       1.00000000      -0.02857362      -0.02212419      -0.24251162
Pt       9.07001274       2.27351795       6.46908794        1       0.00000000      -0.03126276       0.04372553      -0.31975764
Ni       2.61379052       4.47907782       6.51916318        1       1.00000000      -0.03156479       0.13520169      -0.27026159
Ni       5.20644470       4.40541856       6.48266116        1       1.00000000      -0.04739856       0.01158259      -0.38144293
Ni       7.83249810       4.41006779       6.48041639        1       1.00000000       0.09362459       0.00475297      -0.41178534
Ni      10.41256059       4.46672187       6.56066302        1       1.00000000      -0.02281606       0.13118133      -0.26074194
Ni       3.87575673       6.55957152       6.55874576        1       1.00000000      -0.07767518      -0.15398042      -0.11847977
Pt       6.54444471       6.52347428       6.52328935        1       0.00000000       0.00530328      -0.06798733      -0.09181938
Ni       9.14130840       6.54141808       6.57142822        1       1.00000000       0.04338708      -0.15271859      -0.23010195
Ni      11.70114477       6.53085966       6.59750151        1       1.00000000      -0.05696364      -0.14448689      -0.19227918
