64
Lattice="10.381394260501706 0.03600987695687056 -0.02544265886925385 5.221882598482654 8.967414308338398 0.005783055815920759 0.0 0.0 21.657275809304995" Properties=species:S:1:pos:R:3:tags:I:1:initial_magmoms:R:1:forces:R:3 unique_id=34775236973b48efa33e2ff6d3f127f5 energy=-379.5640219617453 stress="0.005590244528769806 0.0003441161695722207 0.00014785550543694546 0.0003441161695722207 0.005705674702736666 8.250174049038318e-05 0.00014785550543694546 8.250174049038318e-05 -0.001687845831836175" pbc="T T T"
Ni      -0.03894890       0.00378167       0.18467426        2       1.00000000      -0.12301763       0.04337476       0.07647769
Ni       2.61536401      -0.00618637       0.09141920        1       1.00000000       0.07336440       0.02808684       0.39745247
Ni       5.19279127      -0.00892293       0.12925669        1       1.00000000       0.05253205       0.07647677      -0.36314694
Ni       7.80831023      -0.01621131       0.08004308        1       1.00000000       0.03391077      -0.10990873       0.48606930
Pt       1.27464742       2.20960749       0.13318050        1       0.00000000       0.07901520      -0.14387634      -0.58457507
Pt       3.88007807       2.19211814       0.10189615        1       0.00000000      -0.01980578       0.02120058      -0.04296069
Pt       6.53233975       2.14675067       0.03412121        0       0.00000000      -0.05429975      -0.11010726      -0.20820860
Ni       9.09938537       2.23149864       0.11376807        1       1.00000000       0.03209406      -0.17634280      -0.03812898
Ni       2.59004463       4.51341784       0.13551147        1       1.00000000      -0.00376728      -0.05481109      -0.19848259
Pt       5.18681184       4.51105643       0.13965661        1       0.00000000       0.24862367      -0.05428518      -0.75966844
Pt       7.88466012       4.51723293       0.00000000        0       0.00000000      -0.13018038       0.04299692      -0.22352599
Ni      10.41698895       4.54635020       0.03221213        0       1.00000000       0.08457636       0.05336702       0.23697357
Ni       3.87410803       6.77443291       0.17710808        2       1.00000000      -0.02585744       0.11514297       0.06096133
Pt       6.51991149       6.83467755       0.19253035        2       0.00000000      -0.03916775      -0.05419639      -0.42067916
Ni       9.13684681       6.77731700       0.04685012        0       1.00000000       0.00150121       0.03298440       0.26801043
Ni      11.71321477       6.77160505       0.04357664        0       1.00000000       0.11708828       0.10860510       0.31045885
Ni       1.31657238       0.71937669       2.22648853        4       1.00000000       0.08895003      -0.03075688       0.04246610
Ni       3.85130258       0.77795492       2.22700930        4       1.00000000      -0.19118557       0.07682638       0.17524070
Ni       6.50151369       0.75115023       2.21723711        4       1.00000000       0.06477164      -0.02891206       0.14788798
Ni       9.08016545       0.73381181       2.17540207        4       1.00000000      -0.02321558      -0.12987164      -0.05949062
Ni       2.63600494       2.95781041       2.26133098        5       1.00000000       0.09462865      -0.11029871       0.33966309
Ni       5.16768794       2.97656509       2.25057832        5       1.00000000      -0.06110658      -0.04123405       0.20905519
Pt       7.76100871       2.93726723       2.25218338        5       0.00000000      -0.11694951      -0.09012481       0.00744778
Pt      10.37659758       2.94230679       2.25853366        5       0.00000000       0.00239640      -0.04910438       0.03896771
Pt       3.90058289       5.25371251       2.26307677        5       0.00000000      -0.01575453      -0.00812114       0.08911201
Ni       6.50312098       5.26972270       2.24772555        4       1.00000000       0.02240347      -0.00083176       0.24491947
Pt       9.05221903       5.30642854       2.28881358        5       0.00000000      -0.08960397      -0.00921844       0.14846146
Pt      11.70648168       5.29139233       2.17129004        4       0.00000000      -0.12598800      -0.02793356       0.01195891
Ni       5.19887085       7.52537599       2.21382391        4       1.00000000      -0.07321166       0.09199562       0.11805867
Ni       7.79323915       7.53999496       2.23457961        4       1.00000000       0.02241091       0.18879198       0.11927865
Pt      10.40020642       7.57300252       2.14426997        3       0.00000000      -0.04641882       0.08505143       0.03263682
Ni      13.01726018       7.55387693       2.17679267        4       1.00000000      -0.00997270       0.15118917      -0.01925130
Ni      -0.02649981       1.52158084       4.40933934        7       1.00000000      -0.09361234       0.06464652      -0.15991914
Ni       2.59726692       1.52702094       4.38516688        7       1.00000000       0.00869787       0.07804638      -0.32869153
Pt       5.14830999       1.55578505       4.36186051        7       0.00000000      -0.00272838       0.03016384      -0.27376988
Ni       7.79419157       1.53073324       4.41141082        7       1.00000000      -0.02856827      -0.04828912      -0.18565925
Pt       1.29578113       3.75807391       4.39251429        7       0.00000000       0.05138597       0.03914844       0.03522099
Ni       3.86454203       3.73388201       4.39914956        7       1.00000000      -0.08585439      -0.01574338      -0.27850221
Pt       6.56863586       3.75539336       4.39568172        7       0.00000000       0.03933358       0.01996140      -0.10744010
Ni       9.10181130       3.78771209       4.43455085        7       1.00000000       0.12758741       0.01464615      -0.11908349
Ni       2.58706445       5.97361328       4.42696257        7       1.00000000       0.02443938       0.00111731      -0.13764571
Pt       5.20173056       5.99342017       4.36568112        7       0.00000000       0.04428517       0.09176159      -0.02019463
Ni       7.84305571       5.97740578       4.41893483        7       1.00000000       0.07886365       0.00010042      -0.08959299
Ni      10.37416816       5.98765235       4.46366328        8       1.00000000       0.00762918      -0.02184654       0.08219609
Pt       3.89670567       8.29225731       4.33266212        6       0.00000000      -0.01658268       0.07880072      -0.13746767
Pt       6.52087027       8.30900061       4.32405435        6       0.00000000      -0.02204639       0.22875049      -0.09331446
Pt       9.08032703       8.20201653       4.41248508        7       0.00000000      -0.04291869      -0.05504103      -0.08866937
Pt      11.71739222       8.21523211       4.41037693        7       0.00000000       0.00970594      -0.05982247      -0.07222615
Pt      -0.02453559       0.02121019       6.64667326       10       0.00000000       0.03331910       0.12267694       0.15610530
Ni       2.61323177       0.01645534       6.60038643       10       1.00000000       0.06846975      -0.01816505      -0.16792090
Pt       5.17533575       0.01433301       6.65727581       11       0.00000000      -0.00684164       0.02226505       0.18061893
Ni       7.74221243       0.05880102       6.59219368       10       1.00000000      -0.07836697       0.10983304      -0.22509682
Pt       1.32877350       2.22143753       6.52552087        9       0.00000000      -0.05826129      -0.10018603       0.57720780
Ni       3.88458649       2.24053152       6.52228207        9       1.00000000      -0.07370748      -0.04711505       0.03080075
Ni       6.48924956       2.24039192       6.51168648        9       1.00000000      -0.00083068      -0.17900862       0.13628097
Pt       9.00667062       2.33374613       6.55472162       10       0.00000000       0.11790312       0.00377606      -0.11397180
Pt       2.54313288       4.51583868       6.61845997       10       0.00000000       0.06380012      -0.02475159       0.18865160
Pt       5.21333292       4.41568807       6.54983005        9       0.00000000      -0.08964015       0.03342428       0.77391668
Ni       7.83603460       4.52106211       6.48955429        9       1.00000000       0.10606263       0.16227679       0.16787864
Ni      10.34221919       4.57110534       6.56410118       10       1.00000000      -0.08806272       0.00932985      -0.35280565
Pt       3.81794307       6.77548507       6.64843217       10       0.00000000       0.05341788      -0.14158951       0.11686081
Pt       6.61203729       6.73194107       6.55393202       10       0.00000000       0.03868900      -0.14686922       0.42232319
Ni       9.13137820       6.71514022       6.58478047       10       1.00000000       0.10696904      -0.09749721      -0.29602460
Ni      11.64125872       6.74832178       6.58902164       10       1.00000000      -0.16130090      -0.04095513      -0.26350518
