64
Lattice="10.278203466852892 0.0023171667214616338 -0.038444421186359955 5.141108458672035 8.82572534656054 -0.07859587653290073 0.0 0.0 21.53950399026361" Properties=species:S:1:pos:R:3:tags:I:1:initial_magmoms:R:1:forces:R:3 unique_id=e73283b5160f4ce3b3298598517a2955 energy=-373.4602986078373 stress="0.005780479239856649 -5.447841045556507e-05 -0.00033560643949829123 -5.447841045556507e-05 0.004732081932575355 -0.0001387232093714634 -0.00033560643949829123 -0.0001387232093714634 -0.002029306283428709" pbc="T T T"
Ni       0.01114953      -0.01777369       0.20534868        2       1.00000000       0.10337314      -0.01472566      -0.18347440
Ni       2.55784617      -0.00744327       0.21422481        2       1.00000000      -0.05589113       0.00275301      -0.05898410
Ni       5.13366724      -0.01889539       0.16904188        2       1.00000000      -0.04902321       0.15826266      -0.40731415
Ni       7.69347977      -0.05763352       0.16784100        2       1.00000000      -0.08960955      -0.05461645      -0.22057134
Ni       1.28459772       2.21008003       0.18911429        2       1.00000000      -0.00268163       0.03419392       0.10017407
Pt       3.78629942       2.21751264       0.18338648        2       0.00000000      -0.02404116      -0.00488739      -0.49129234
Pt       6.41434756       2.21469402       0.08972602        1       0.00000000      -0.00974846      -0.07856492      -0.15117610
Pt       9.05130095       2.25158689       0.09777827        1       0.00000000       0.02201679       0.09144167      -0.64749002
Ni       2.56876856       4.44347745       0.05515966        1       1.00000000       0.03898559       0.00888840       0.24347107
Ni       5.11063370       4.43331236       0.07736281        1       1.00000000      -0.13449670      -0.01251444       0.28491958
Ni       7.70017194       4.42933226       0.03852255        0       1.00000000      -0.00941504       0.01122721       0.09454671
Ni      10.30522185       4.44022799       0.01855818        0       1.00000000       0.09314087       0.04636196       0.17672175
Ni       3.82110850       6.60341705       0.06796520        1       1.00000000      -0.04597322      -0.00078330       0.36163321
Pt       6.40622256       6.61054396       0.05789819        1       0.00000000       0.00798229       0.10365203      -0.00291338
Ni       8.99769120       6.61654151       0.09001229        1       1.00000000      -0.09816834       0.03327349      -0.31565442
Ni      11.58479304       6.61318041       0.00000000        0       1.00000000       0.08293833       0.00634465       0.21851530
Ni       1.30647375       0.72951284       2.22576189        4       1.00000000       0.03390341       0.02442327       0.20430519
Ni       3.79900719       0.73392308       2.20372426        4       1.00000000      -0.17183031      -0.02995983       0.13107675
Ni       6.42867922       0.73773010       2.19121619        4       1.00000000       0.06430928       0.05255537       0.11985168
Pt       9.00060771       0.72345575       2.20320155        4       0.00000000       0.09082935       0.09890617      -0.03321620
Ni       2.55344945       2.90367501       2.25529095        5       1.00000000       0.04004855      -0.09869960       0.28339865
Ni       5.11992392       2.97085597       2.20217644        4       1.00000000      -0.08326370       0.15058867       0.08961682
Ni       7.67842622       2.92869012       2.20750270        4       1.00000000      -0.01830042      -0.04005468       0.13759554
Ni      10.32148703       2.91043498       2.21721743        4       1.00000000       0.11976295      -0.08938581       0.28789739
Ni       3.87324087       5.12414775       2.14520531        3       1.00000000       0.03981124      -0.08112058      -0.06910972
Ni       6.38532210       5.12689013       2.14968924        3       1.00000000      -0.03756372      -0.05835813       0.01044515
Pt       8.93359241       5.09763801       2.16711527        4       0.00000000      -0.02018228      -0.06664706       0.01341416
Pt      11.62929196       5.09182528       2.15411075        4       0.00000000       0.07689704      -0.09463625       0.07616355
Ni       5.14287385       7.32009234       2.14708313        3       1.00000000      -0.00398607      -0.05790044       0.09733579
Ni       7.65138200       7.36796658       2.14213007        3       1.00000000      -0.17962899       0.00612711       0.17374471
Pt      10.31315322       7.38206709       2.09574428        3       0.00000000       0.07257451      -0.02770298       0.07138528
Ni      12.86353175       7.32041328       2.09052102        3       1.00000000       0.13881779      -0.09937776      -0.00400578
Ni       0.02371721       1.47501725       4.31800378        7       1.00000000       0.14685441       0.04522412      -0.19452415
Ni       2.50659077       1.47449548       4.28521496        7       1.00000000      -0.08605512       0.03984484      -0.24636712
Pt       5.13850460       1.44395957       4.22996220        6       0.00000000      -0.06738220      -0.06064015      -0.05591654
Ni       7.69640043       1.44709758       4.29497923        7       1.00000000       0.04275403      -0.07119557      -0.26207976
Ni       1.27493201       3.66582902       4.32697846        7       1.00000000       0.04364687      -0.04986495      -0.10876916
Ni       3.77911970       3.68370925       4.28628909        7       1.00000000      -0.13861215      -0.01548891      -0.25255029
Pt       6.48049462       3.66297196       4.30715802        7       0.00000000       0.05198205      -0.05330864      -0.06713244
Ni       9.02741015       3.67902299       4.28164825        7       1.00000000       0.20881380       0.00973072      -0.14300999
Ni       2.52233310       5.82237028       4.35794377        8       1.00000000      -0.06203955      -0.06503707      -0.04044580
Pt       5.11176577       5.84248727       4.29515493        7       0.00000000      -0.02484036      -0.05699802      -0.12752097
Ni       7.69628914       5.84499187       4.29635465        7       1.00000000      -0.00998945       0.02003214      -0.19511106
Ni      10.30579951       5.81065786       4.31637855        7       1.00000000       0.10405352      -0.01725729      -0.08289198
Pt       3.80393406       8.04395368       4.24481020        6       0.00000000      -0.06982358       0.03009457       0.04656561
Ni       6.40479318       8.07637361       4.23485263        6       1.00000000      -0.09754240       0.10680736      -0.29781283
Pt       8.92694139       8.02185809       4.20623494        6       0.00000000      -0.07763631       0.01618214      -0.00370410
Ni      11.55582219       8.01694054       4.24878801        6       1.00000000      -0.07007480      -0.12910684      -0.12891762
Pt      -0.02278441      -0.10797103       6.53950399       11       0.00000000       0.05133977       0.12623910       0.26387255
Pt       2.53802448      -0.06374295       6.52636570       11       0.00000000       0.00120319       0.13099471       0.28200114
Pt       5.14276779      -0.06343796       6.53481283       11       0.00000000       0.05467802      -0.00709635       0.35123291
Pt       7.67427997      -0.09067733       6.51347742       11       0.00000000      -0.09504204       0.07805995       0.32268144
Pt       1.25962036       2.27414787       6.46502029       11       0.00000000       0.03203868      -0.03011917       0.06963049
Pt       3.87108727       2.28896547       6.41350864       10       0.00000000      -0.09254819       0.11384094       0.49294014
Ni       6.40888595       2.20987290       6.40421084       10       1.00000000      -0.01501394      -0.02231750       0.25046548
Pt       8.92375860       2.26096099       6.33831859        9       0.00000000       0.04757733      -0.06903960       0.56888935
Ni       2.54725420       4.45552545       6.44009618       10       1.00000000       0.09408693      -0.01158584      -0.31451531
Ni       5.13281345       4.42258266       6.46617592       11       1.00000000       0.01295106       0.06048732      -0.20570942
Ni       7.64949632       4.38619866       6.44623148       10       1.00000000      -0.09814820       0.01353972      -0.04660517
Ni      10.29444069       4.40825737       6.40739568       10       1.00000000       0.07197558      -0.02800765      -0.23961960
Ni       3.81631387       6.50756620       6.45740486       11       1.00000000       0.00378159      -0.06133752      -0.22207303
Ni       6.39842779       6.52076888       6.36760152       10       1.00000000       0.07081973      -0.00652707       0.13388195
Pt       8.98456731       6.44886571       6.44590224       10       0.00000000      -0.01608194      -0.00843256       0.12631665
Ni      11.57302249       6.51135080       6.39784007       10       1.00000000      -0.00931354       0.05321872      -0.26421176
