64
Lattice="10.177595323957258 -0.03146562580495363 0.04871733070138109 5.061547630685561 8.813546998586773 0.049371672416366516 0.039777533949603275 0.023582489218675447 8.736001962682838" Properties=species:S:1:pos:R:3:tags:I:1:initial_magmoms:R:1:forces:R:3 unique_id=57d7b2968f5a4c7bbeb7038cf41fb668 stress="-0.00021919960204548616 3.20583668186625e-06 -1.8269504945592474e-05 3.20583668186625e-06 -0.00022041111098289323 -1.0656422111108183e-05 -1.8269504945592474e-05 -1.0656422111108183e-05 -0.00017130954466488407" energy=-392.74011441895016 pbc="T T T"
Ni       0.04298906       0.02470688       0.14146608        4       1.00000000       0.17988283       0.14052387       0.12436281
Ni       2.53636908      -0.04477090       0.22379131        4       1.00000000       0.02499352      -0.09456284       0.26197324
Ni       5.07232521      -0.07111943       0.11138839        4       1.00000000      -0.04844987      -0.08666880       0.05514570
Ni       7.64304611      -0.05065878       0.19943548        4       1.00000000       0.03371670      -0.00948037       0.27708193
Ni       1.22609489       2.22431167       0.12448078        4       1.00000000      -0.04308712       0.12433039       0.12342781
Pt       3.75067575       2.20150289       0.21358977        4       0.00000000      -0.05925068      -0.01795067       0.30436748
Pt       6.41909406       2.23139852       0.08269489        4       0.00000000       0.10084726       0.07659176      -0.00072384
Ni       8.95590801       2.23353296       0.11082960        4       1.00000000       0.15885929       0.19039564       0.00712665
Ni       2.49743591       4.43961023       0.13282428        4       1.00000000      -0.09713352       0.06941005       0.12919227
Ni       5.05658682       4.44116567       0.20697656        4       1.00000000      -0.09064291       0.01904812       0.31611575
Ni       7.68685322       4.42331400       0.12132168        4       1.00000000       0.29407550       0.09988195      -0.01716002
Ni      10.17409897       4.38811195       0.16797307        4       1.00000000       0.05050703       0.07979141       0.09811398
Ni       3.79301422       6.58164849       0.08991533        4       1.00000000      -0.02114233      -0.08819787      -0.03300614
Ni       6.37747271       6.60326556       0.09748827        4       1.00000000       0.17921168       0.00322822      -0.10443378
Ni       8.89530022       6.58796302       0.24380423        4       1.00000000       0.04420606      -0.03676221       0.17414539
Ni      11.40341453       6.55798988       0.13708690        4       1.00000000      -0.12647221      -0.06683494      -0.04493447
Ni       1.32860751       0.78388502       2.15778215        3       1.00000000       0.00475611       0.10595790      -0.01998162
Ni       3.79065004       0.67575225       2.22267440        3       1.00000000      -0.01204248      -0.11200767      -0.03701536
Pt       6.26463057       0.71084071       2.25541201        3       0.00000000      -0.06724897       0.04502065      -0.07854814
Pt       8.97059714       0.81143556       2.19072625        3       0.00000000       0.09485630       0.05727508      -0.05623388
Ni       2.50645257       2.99151825       2.22126201        3       1.00000000      -0.06535613       0.14144498      -0.09679589
Ni       5.04368297       2.95128235       2.27001047        3       1.00000000      -0.11489560      -0.06253003       0.05687351
Ni       7.68952771       2.96853243       2.23221201        3       1.00000000       0.13648092       0.05089488      -0.03938018
Ni      10.20242523       2.97853521       2.22672256        3       1.00000000      -0.01034663       0.06871333       0.00627831
Ni       3.77679023       5.07987184       2.22924191        3       1.00000000      -0.05791786      -0.06023387       0.06803602
Pt       6.42071212       5.11376590       2.19205892        3       0.00000000       0.13443378       0.05024968      -0.08759476
Ni       8.95236165       5.13055214       2.25129133        3       1.00000000       0.11914607      -0.04628600       0.06913372
Ni      11.39828806       5.08131741       2.23209695        3       1.00000000      -0.11093032       0.00802157      -0.08019261
Pt       5.11271164       7.32134675       2.15911244        3       0.00000000       0.01464253      -0.04914720      -0.11672888
Ni       7.69796749       7.34110968       2.23279637        3       1.00000000       0.05803105      -0.11552310       0.09050963
Ni      10.09907029       7.28186382       2.27193775        3       1.00000000      -0.02055553      -0.11769303       0.04003925
Pt      12.62936473       7.21206762       2.24643025        3       0.00000000      -0.12524326      -0.17184304       0.00394171
Ni       0.02243552       1.52080740       4.35859071        2       1.00000000       0.08648937      -0.00214952      -0.03278590
Pt       2.58519239       1.49298129       4.24665964        2       0.00000000       0.10776956       0.02618801       0.12672970
Ni       5.09932698       1.43250353       4.37219111        2       1.00000000      -0.04452056      -0.00642061       0.03365394
Pt       7.67352905       1.49354519       4.40487316        2       0.00000000       0.00574307       0.01469597       0.11370936
Pt       1.24328516       3.75268245       4.35246919        2       0.00000000      -0.04342770       0.00124088      -0.01006146
Ni       3.81668044       3.73730553       4.32096221        2       1.00000000      -0.04598943       0.07476621      -0.05964425
Pt       6.36083685       3.70766996       4.37435068        2       0.00000000      -0.08442883      -0.00175795       0.06677565
Ni       8.92814796       3.71453304       4.40005261        2       1.00000000      -0.00062469       0.11408520      -0.10704886
Ni       2.52533189       5.86176598       4.40538619        2       1.00000000      -0.05757324      -0.03601124      -0.03479466
Ni       5.05972673       5.85677688       4.38038636        2       1.00000000      -0.05845329      -0.04766256      -0.12380972
Ni       7.69733790       5.85372828       4.38648166        2       1.00000000       0.20889511      -0.02029739      -0.10228435
Ni      10.17411506       5.88745657       4.37110853        2       1.00000000      -0.00755286       0.02256299      -0.18192868
Pt       3.76934934       8.01588039       4.39005793        2       0.00000000      -0.02020724      -0.00147139       0.11404731
Pt       6.42065220       8.00872823       4.35348264        2       0.00000000       0.07435175      -0.02745734       0.04035246
Ni       8.96630922       8.04794016       4.36713910        2       1.00000000       0.02030622      -0.06144777      -0.07450188
Ni      11.36986561       8.01841382       4.43645260        2       1.00000000      -0.04323766      -0.11038964      -0.00114434
Pt       0.00471871       0.04660297       6.53921053        1       0.00000000      -0.08438551       0.02868715      -0.04189787
Pt       2.60637222      -0.01412635       6.56579152        1       0.00000000      -0.04036627      -0.01068732       0.16435020
Ni       5.11931214      -0.01709108       6.46912880        1       1.00000000      -0.10463020      -0.05970427      -0.20454949
Pt       7.56077179      -0.03928333       6.59528855        1       0.00000000      -0.16525896      -0.04366410       0.13629427
Ni       1.25628420       2.27417029       6.49754791        1       1.00000000      -0.01711259       0.03496700      -0.05674055
Pt       3.85443295       2.25300945       6.44248017        1       0.00000000      -0.09322422       0.07775957      -0.28652880
Ni       6.39711561       2.22285777       6.43830237        1       1.00000000      -0.02372948       0.04021958      -0.23699749
Ni       8.93582603       2.26393762       6.52410021        1       1.00000000      -0.01439957       0.08485596      -0.14101723
Ni       2.51393782       4.46517227       6.49660579        1       1.00000000      -0.07991911       0.03474441      -0.04784639
Pt       5.09949606       4.50445439       6.56355146        1       0.00000000       0.00550076       0.14917682       0.12667899
Ni       7.67712644       4.37848478       6.52231542        1       1.00000000       0.01647889      -0.09553222      -0.11990073
Ni      10.19861193       4.36890464       6.54731255        1       1.00000000       0.00371745      -0.09962498       0.00596778
Ni       3.78643762       6.59677536       6.51506993        1       1.00000000      -0.14745175       0.01784022      -0.13804471
Ni       6.37026472       6.59988318       6.52315397        1       1.00000000       0.06248203       0.03163770      -0.22857401
Pt       8.96333859       6.52697668       6.53514876        1       0.00000000       0.03815263      -0.12971068       0.13201512
Ni      11.46959442       6.55102382       6.52318326        1       1.00000000      -0.01132487      -0.19449653      -0.22360901
