64
Lattice="10.166317700558825 0.01918450607256864 -0.020783508180851784 5.099773119897312 8.836459104575212 -0.003868703514662287 -0.016969663369348933 0.006149991061526994 8.724336903412059" Properties=species:S:1:pos:R:3:tags:I:1:initial_magmoms:R:1:forces:R:3 unique_id=294908e745954d80896ab573270b6fa7 stress="-6.648145018726959e-05 -3.226733988578498e-06 7.147224586233445e-06 -3.226733988578498e-06 -6.897376671791133e-05 -3.426829249018844e-06 7.147224586233445e-06 -3.426829249018844e-06 -2.6391059299510355e-05" energy=-393.70300185476196 pbc="T T T"
Pt       0.06959990      -0.01131679       0.06247935        4       0.00000000       0.09380807      -0.00912783      -0.14173271
Ni       2.55555517       0.00565750       0.15019637        4       1.00000000       0.10781902       0.09003394       0.14368839
Pt       5.10071091      -0.03780362       0.19149789        4       0.00000000       0.01547809      -0.09335464       0.33540371
Ni       7.60661435       0.01022606       0.14461835        4       1.00000000       0.01377106      -0.01819288       0.19568981
Ni       1.27603341       2.25551463       0.11162817        4       1.00000000      -0.05453131       0.17088891       0.27011442
Pt       3.78671840       2.27576055       0.18725632        4       0.00000000      -0.05511791       0.09862891       0.24250684
Ni       6.35233148       2.25626481       0.10494949        4       1.00000000      -0.01603290       0.08791670       0.27191427
Pt       8.87343513       2.32260872       0.14252693        4       0.00000000      -0.01360597       0.11993191       0.28072655
Ni       2.49599739       4.41607020       0.10687632        4       1.00000000      -0.19355862      -0.01968725       0.21386165
Ni       5.13580109       4.42028776       0.09953475        4       1.00000000       0.11608143      -0.02460655       0.16933387
Ni       7.60477133       4.46724229       0.09766430        4       1.00000000      -0.02872165       0.12098989       0.23501902
Ni      10.19490023       4.47133462       0.10124231        4       1.00000000       0.02282169       0.11543784       0.19621179
Pt       3.80044279       6.55627714       0.09795186        4       0.00000000      -0.01660226      -0.07537164      -0.12596391
Ni       6.39224012       6.58196357       0.07278397        4       1.00000000       0.01841559      -0.09847970       0.05711915
Ni       8.90931142       6.58380845       0.17191826        4       1.00000000       0.11325792      -0.16372126       0.36366424
Ni      11.42347069       6.59857570       0.18470228        4       1.00000000      -0.07642556      -0.09375669       0.38355577
Ni       1.30523611       0.78450351       2.20213504        3       1.00000000       0.03127724       0.12826997      -0.06434978
Ni       3.78068106       0.75288929       2.21963709        3       1.00000000      -0.13322006       0.01051753      -0.05870597
Ni       6.35040861       0.75282897       2.20243049        3       1.00000000       0.00518700      -0.01625425      -0.05253449
Pt       8.85053335       0.71510022       2.23223749        3       0.00000000       0.06791756      -0.01239212      -0.15310964
Ni       2.51134449       2.97738457       2.24392213        3       1.00000000      -0.04517768       0.10466239       0.17286732
Ni       5.09795671       2.99345251       2.18093903        3       1.00000000      -0.02313576       0.14122687      -0.07565151
Ni       7.59517968       3.00398282       2.20249288        3       1.00000000       0.01286867       0.07126817       0.09049633
Ni      10.20812706       3.02188702       2.19253048        3       1.00000000       0.03808862       0.10772950       0.04489188
Ni       3.82285089       5.12084352       2.19730879        3       1.00000000       0.05270313      -0.15646218      -0.07647117
Ni       6.33762932       5.14415616       2.14036873        3       1.00000000      -0.05365365       0.03910446      -0.03834498
Ni       8.93376261       5.13183942       2.16508310        3       1.00000000       0.05295283      -0.10320288       0.05541474
Ni      11.42659005       5.15464326       2.15943936        3       1.00000000      -0.04527104      -0.09958211       0.06272603
Ni       5.08559996       7.32077360       2.24082453        3       1.00000000      -0.07808836      -0.14429889       0.08782987
Pt       7.63159150       7.38488731       2.15831882        3       0.00000000      -0.05820180       0.04915976      -0.04234807
Ni      10.20920776       7.33133400       2.23715784        3       1.00000000       0.00925737      -0.11083643       0.24045536
Ni      12.68307791       7.35753081       2.18116784        3       1.00000000      -0.05907124      -0.06916587      -0.02331759
Pt       0.06443592       1.48480737       4.30948805        2       0.00000000      -0.00654245       0.13068483       0.05854312
Ni       2.53113586       1.49431708       4.27644595        2       1.00000000       0.11678451       0.04030011      -0.15677438
Pt       5.06312249       1.46078143       4.19820117        2       0.00000000      -0.06126157      -0.08431488       0.13688759
Ni       7.61369856       1.47576584       4.29618290        2       1.00000000       0.02349164       0.00454564      -0.01552001
Ni       1.27355533       3.69064324       4.33485935        2       1.00000000       0.04412157       0.07083448      -0.08530965
Ni       3.78337785       3.71217711       4.28046298        2       1.00000000       0.00764320      -0.03710432      -0.21769620
Pt       6.34216778       3.69652806       4.31839151        2       0.00000000      -0.03260852      -0.00998409      -0.01248255
Ni       8.93845601       3.73194596       4.27346691        2       1.00000000       0.11952262       0.05351473      -0.23358715
Pt       2.56670750       5.86730533       4.25584162        2       0.00000000      -0.07707107       0.01313321      -0.02331970
Ni       5.07624610       5.92299921       4.32943600        2       1.00000000       0.02536733      -0.02374263      -0.21383438
Pt       7.62339603       5.91230999       4.29256850        2       0.00000000       0.11939091      -0.02154723       0.08526110
Ni      10.17896286       5.88364617       4.27410250        2       1.00000000       0.03839845      -0.04131453      -0.10897860
Ni       3.84312401       8.07017897       4.32599039        2       1.00000000       0.03705108      -0.10177681      -0.11920578
Ni       6.32926379       8.08889433       4.30788582        2       1.00000000      -0.04478989      -0.03955032      -0.17931308
Ni       8.90099033       8.10573626       4.28601198        2       1.00000000       0.01597282      -0.04317713      -0.02664727
Ni      11.45550019       8.09108862       4.24987670        2       1.00000000       0.03576410      -0.06516401      -0.10563483
Ni      -0.01236298      -0.03573700       6.36632124        1       1.00000000      -0.03558228      -0.09219802      -0.34383121
Pt       2.42846504       0.01512514       6.44137583        1       0.00000000      -0.12865278       0.00372896      -0.04512386
Pt       5.07713132       0.02446730       6.40188053        1       0.00000000       0.01784181       0.01182246      -0.25937546
Pt       7.68601685       0.00741939       6.42754814        1       0.00000000       0.01607949      -0.03794897       0.00401787
Ni       1.25610556       2.26280259       6.46019354        1       1.00000000       0.00254525       0.13656379      -0.10387759
Pt       3.78371354       2.32945942       6.39640660        1       0.00000000       0.07114576       0.06933452      -0.23091067
Ni       6.35256763       2.26806165       6.46316590        1       1.00000000      -0.04975656       0.00902466      -0.08886366
Pt       8.89435453       2.31491080       6.38346216        1       0.00000000      -0.01679426       0.06088970      -0.29971197
Ni       2.54194266       4.41634448       6.45587648        1       1.00000000       0.06433775       0.03341249      -0.17578607
Ni       5.09321224       4.47810019       6.46010487        1       1.00000000      -0.03826668       0.11972829      -0.11087006
Ni       7.57309208       4.43027065       6.47454312        1       1.00000000      -0.20622243       0.04079192      -0.04396780
Ni      10.19317027       4.40573244       6.43409680        1       1.00000000       0.12155145      -0.01246824      -0.19982742
Ni       3.88155470       6.59667251       6.37640531        1       1.00000000       0.07234179      -0.09719378      -0.27464178
Ni       6.29310494       6.60620438       6.44809315        1       1.00000000      -0.08275869      -0.01879076      -0.19695073
Pt       8.85942853       6.54797580       6.51073705        1       0.00000000      -0.10800771      -0.16055868       0.15557571
Pt      11.48465187       6.55143959       6.48371418        1       0.00000000       0.11767382      -0.05874897       0.17079528
