64
Lattice="10.66564847141791 0.014422715574798553 0.0010958117164860213 5.345314673788285 9.255235588158351 0.0024208652631934396 0.0008947265198513768 0.0017658430615034241 9.276189515107621" Properties=species:S:1:pos:R:3:tags:I:1:initial_magmoms:R:1:forces:R:3 unique_id=d6d0f62d9fc14ea7a8309c80e6de7d98 stress="-0.006577960764191676 3.158941135083876e-05 -9.819634637914465e-06 3.158941135083876e-05 -0.006543397567401313 8.370410281147407e-08 -9.819634637914465e-06 8.370410281147407e-08 -0.004887636845339778" energy=-424.4688843292157 pbc="T T T"
Ni       0.00880862       0.02271284       0.11353486        4       1.00000000      -0.00909711       0.05021130       0.21685092
Pt       2.57973788       0.05722554       0.13510160        4       0.00000000      -0.15872960       0.10404039       0.03661131
Pt       5.32035564      -0.00480260       0.13526265        4       0.00000000      -0.05296987      -0.02154234       0.05064227
Pt       8.04244035       0.01347089       0.11259676        4       0.00000000       0.04490126      -0.01564368       0.07576571
Ni       1.33025817       2.31643540       0.12232597        4       1.00000000      -0.02377344      -0.00169272       0.24234324
Pt       3.94988836       2.36191846       0.12500238        4       0.00000000      -0.04116941       0.03490800      -0.04662891
Pt       6.67744528       2.35501868       0.12641851        4       0.00000000       0.01442358      -0.00271971       0.03355872
Pt       9.39281792       2.31875201       0.03391184        4       0.00000000       0.09223759      -0.03977447      -0.09328817
Ni       2.66438362       4.61885681       0.07075149        4       1.00000000      -0.00517165       0.00391312       0.15265921
Pt       5.32595712       4.62373949       0.12197543        4       0.00000000      -0.04031177      -0.01034453       0.03262615
Ni       8.01298751       4.62780469       0.12307184        4       1.00000000       0.07161393      -0.02155469       0.27648764
Pt      10.72588046       4.59642435       0.12507248        4       0.00000000       0.14086000      -0.09236906       0.05590985
Pt       4.00592976       6.92385820       0.10423710        4       0.00000000      -0.01932647      -0.03459699      -0.03580525
Pt       6.67325451       6.94307830       0.10694149        4       0.00000000       0.00438840      -0.01288138      -0.04417501
Pt       9.33288417       6.92500714       0.13040490        4       0.00000000      -0.01643730      -0.02190149      -0.00890686
Pt      12.01939119       6.89850971       0.14883632        4       0.00000000      -0.00512111      -0.05227277       0.04250398
Ni       1.32701647       0.78492296       2.31643311        3       1.00000000      -0.01667265       0.03730242       0.03349967
Pt       3.98482056       0.79727449       2.35159473        3       0.00000000      -0.02513772       0.08267328       0.01746341
Pt       6.65202556       0.77651583       2.35741647        3       0.00000000       0.04358186       0.00564430       0.05641558
Pt       9.39467336       0.78720581       2.35567065        3       0.00000000       0.05116959      -0.03307522       0.08672055
Pt       2.65054686       3.10855538       2.29877928        3       0.00000000      -0.01029779       0.08860590      -0.03126364
Ni       5.32667763       3.09423134       2.32373382        3       1.00000000      -0.04897296       0.02435544       0.01726229
Pt       8.00081493       3.10668641       2.32703320        3       0.00000000       0.07705703       0.00115688       0.01113254
Pt      10.71447737       3.06899147       2.34817846        3       0.00000000       0.00306231      -0.06438131       0.11524106
Pt       3.96800320       5.38544114       2.37813609        3       0.00000000      -0.02983186       0.04580874       0.05361583
Pt       6.64969158       5.38757522       2.34144647        3       0.00000000      -0.03010783       0.00528388       0.01060670
Pt       9.39428076       5.42052143       2.33425505        3       0.00000000       0.03961114      -0.03580071       0.01071945
Ni      12.00967211       5.41515237       2.34042269        3       1.00000000       0.01575291      -0.04193969       0.06276931
Pt       5.35190521       7.73083474       2.33566759        3       0.00000000      -0.01871907      -0.04483373      -0.04207159
Pt       8.02258911       7.74733342       2.35231920        3       0.00000000       0.01721669       0.01752161       0.00202345
Ni      10.68420657       7.70390785       2.33231892        3       1.00000000      -0.00664058      -0.02108170       0.01175857
Pt      13.28775072       7.67045434       2.38077608        3       0.00000000      -0.06318503      -0.04961583       0.04927684
Ni       0.00715667       1.54149666       4.62385058        2       1.00000000       0.03129724      -0.00336824      -0.03091771
Pt       2.60318643       1.55513743       4.57512728        2       0.00000000      -0.10550336       0.04131431      -0.09367267
Pt       5.32836501       1.58271702       4.58147985        2       0.00000000      -0.05094952       0.09132958      -0.05749703
Pt       8.06397313       1.54890821       4.63111076        2       0.00000000       0.06657591      -0.03361308      -0.03884955
Pt       1.36416759       3.88110989       4.59496855        2       0.00000000       0.04064660       0.07215740      -0.05034236
Pt       3.98463590       3.93886107       4.60022043        2       0.00000000      -0.00774959       0.03795350      -0.02971259
Pt       6.64348814       3.88644182       4.57363449        2       0.00000000      -0.00276879      -0.00016213      -0.08540296
Pt       9.36584333       3.82653992       4.63159567        2       0.00000000       0.03382854       0.00100928      -0.00565281
Ni       2.68907179       6.15467570       4.61828963        2       1.00000000       0.01994623      -0.02540742      -0.06884504
Ni       5.31812674       6.17409826       4.62258636        2       1.00000000      -0.02982138       0.02219571      -0.10643275
Pt       7.97844239       6.16424292       4.59262737        2       0.00000000       0.00099982      -0.03243499      -0.05148275
Pt      10.72685685       6.17329196       4.54470871        2       0.00000000       0.06653389       0.02952848      -0.15284726
Pt       4.02838107       8.43648650       4.59537280        2       0.00000000      -0.01363137      -0.09879224      -0.05662919
Pt       6.63479983       8.51190986       4.57942032        2       0.00000000      -0.01455361       0.04923002      -0.07986862
Pt       9.35463625       8.48198684       4.57461299        2       0.00000000       0.02483844       0.01261134      -0.05711840
Pt      12.03022114       8.46284625       4.58690088        2       0.00000000      -0.01118338       0.03831400       0.01734708
Pt      -0.01980199       0.05301837       6.90756874        1       0.00000000      -0.03024526       0.04408518       0.03391311
Pt       2.65178405       0.01812970       6.86635718        1       0.00000000      -0.00178086       0.00815109      -0.01884729
Pt       5.34211623       0.00647415       6.85832596        1       0.00000000       0.00224520       0.00426644      -0.01535879
Pt       8.02451464       0.02941524       6.85740321        1       0.00000000      -0.01030631      -0.03909966       0.02608257
Pt       1.30560577       2.33795466       6.92440185        1       0.00000000      -0.02429851       0.01476207       0.07296508
Pt       3.97091907       2.36418508       6.85549257        1       0.00000000      -0.07132140       0.04074282      -0.07331032
Pt       6.70040203       2.33315788       6.85785702        1       0.00000000      -0.00072222      -0.00173205      -0.03629972
Ni       9.34265605       2.32667177       6.85441781        1       1.00000000       0.02218374       0.01089909      -0.21196678
Ni       2.66801296       4.62964831       6.89616987        1       1.00000000      -0.02970041      -0.01429612      -0.13760589
Pt       5.31025143       4.63825868       6.84457072        1       0.00000000       0.03410345      -0.01190069      -0.01653928
Pt       8.02912610       4.60249980       6.94230068        1       0.00000000       0.03649116      -0.02578373       0.12150490
Pt      10.70021915       4.61002915       6.86836322        1       0.00000000       0.02127820       0.00917379      -0.00492843
Pt       3.99121595       6.90467376       6.81172829        1       0.00000000      -0.00182529      -0.04218446      -0.06656983
Pt       6.65412086       6.94082618       6.83855271        1       0.00000000      -0.02246152       0.01972485      -0.08699217
Pt       9.34959337       6.93572635       6.85825726        1       0.00000000       0.02073973      -0.02770785      -0.06965092
Pt      12.04218716       6.90008836       6.84473087        1       0.00000000       0.01291154      -0.07436952      -0.02079642
