64
Lattice="10.66269193923915 -0.009518840826987595 0.01387141473215728 5.323102411648825 9.269753121653885 0.054360088328391135 0.0 0.0 21.91602117457351" Properties=species:S:1:pos:R:3:tags:I:1:initial_magmoms:R:1:forces:R:3 unique_id=1b5b62b2c8c24509a312e634d46e5fb5 stress="0.004374205428433631 2.2317639395981833e-05 -6.120223010908078e-05 2.2317639395981833e-05 0.004180489279512466 -0.00013221635014282757 -6.120223010908078e-05 -0.00013221635014282757 -0.0007602201706834785" energy=-399.18767226827157 pbc="T T T"
Pt       0.00232302       0.00122196       0.06248036        1       0.00000000       0.03968200      -0.06561162      -0.16804601
Ni       2.67282478      -0.00244842       0.04914547        0       1.00000000       0.07393501       0.01546193       0.37259886
Pt       5.33130240       0.02570516       0.07260544        1       0.00000000      -0.15987623       0.06343500      -0.32931720
Ni       7.99394795       0.00936008       0.05190092        1       1.00000000      -0.03270631       0.04207640       0.27366605
Pt       1.33739769       2.29972322       0.07609060        1       0.00000000      -0.06293014       0.05516041      -0.13690869
Pt       4.00369206       2.27837696       0.10410791        1       0.00000000      -0.11628061      -0.10684279      -0.31438390
Ni       6.67318359       2.31232583       0.06659886        1       1.00000000      -0.04014495      -0.01754152       0.28274905
Pt       9.25427102       2.30552006       0.00000000        0       0.00000000      -0.09237190      -0.06818678       0.10773706
Pt       2.66405831       4.62040205       0.09731354        1       0.00000000       0.04517268      -0.19395330      -0.31915007
Pt       5.38939865       4.60021159       0.08445444        1       0.00000000       0.15918714      -0.09111197      -0.44907258
Ni       7.99268043       4.62390035       0.07499078        1       1.00000000       0.04004026       0.01986365       0.24941988
Pt      10.60406965       4.63032363       0.09869862        1       0.00000000      -0.22864506      -0.01807085      -0.23203226
Pt       3.99819959       6.98563195       0.10195669        1       0.00000000       0.29400915       0.05465350      -0.47652741
Pt       6.67868661       6.96610900       0.10249686        1       0.00000000      -0.21777986       0.12815163      -0.31104201
Pt       9.29604466       6.94299343       0.04128734        0       0.00000000       0.01953630      -0.04829790       0.09873268
Pt      11.99273236       6.98205130       0.10038294        1       0.00000000      -0.09493719       0.08167769      -0.40887247
Pt       1.37665585       0.77378156       2.32093434        3       0.00000000       0.08138107      -0.05318101       0.26747816
Ni       3.98406838       0.78795523       2.27554033        3       1.00000000      -0.12781643      -0.02464084       0.40030246
Pt       6.65591760       0.79154639       2.24091920        2       0.00000000       0.15699612       0.09173413       0.18650272
Pt       9.35652110       0.77006004       2.29856070        3       0.00000000       0.04642987       0.18019450       0.28436291
Ni       2.66522604       3.08348868       2.30422949        3       1.00000000      -0.01609306      -0.06683388       0.47754402
Pt       5.29149836       3.06079938       2.29444983        3       0.00000000      -0.01340872      -0.09704006       0.34375451
Pt       8.00844997       3.12896418       2.25410020        3       0.00000000       0.04010568       0.12438483       0.10954090
Pt      10.69278466       3.09088479       2.37377622        4       0.00000000       0.12948950      -0.18934292       0.55737865
Pt       4.00499515       5.41397533       2.32419995        3       0.00000000       0.08044500       0.00448026       0.36130472
Pt       6.69899625       5.43550889       2.30056426        3       0.00000000       0.22769246       0.05004409       0.28035315
Ni       9.32232549       5.41446262       2.30561850        3       1.00000000      -0.02449788       0.03378887       0.32765352
Pt      11.97716873       5.37165235       2.35796843        4       0.00000000      -0.04018295      -0.06614158       0.42835948
Ni       5.33897462       7.73998261       2.32731159        3       1.00000000       0.10987190       0.02107174       0.46408327
Pt       7.97869317       7.76242809       2.34166904        3       0.00000000      -0.02968648       0.18172715       0.28861384
Pt      10.61854076       7.72367387       2.35037227        4       0.00000000      -0.10127781      -0.07054726       0.43100980
Pt      13.34832207       7.74366574       2.33004440        3       0.00000000      -0.04327224       0.09640220       0.32717282
Ni       0.01663270       1.57332242       4.58588233        6       1.00000000       0.02112017       0.04942405      -0.37857859
Pt       2.59431912       1.56396398       4.51347427        5       0.00000000      -0.19602449      -0.04909520      -0.46532924
Pt       5.31747811       1.55670021       4.54920994        5       0.00000000      -0.02867188      -0.04945571      -0.44141888
Pt       8.05735956       1.56583880       4.59401628        6       0.00000000       0.15148600      -0.00946337      -0.26202773
Ni       1.32632567       3.86595963       4.58307113        6       1.00000000      -0.02669351      -0.11973691      -0.48419402
Pt       3.94633411       3.86813788       4.54661088        5       0.00000000      -0.14012978      -0.11404253      -0.48990232
Pt       6.67643831       3.88175998       4.57206639        6       0.00000000       0.03499786      -0.03286025      -0.44069217
Pt       9.38947118       3.84178821       4.58947975        6       0.00000000       0.07633069      -0.15938615      -0.28512297
Pt       2.64837539       6.17709105       4.58148092        6       0.00000000      -0.04349419       0.02921574      -0.39788370
Pt       5.35048567       6.24647567       4.56319265        6       0.00000000       0.10616463       0.07391589      -0.53787655
Pt       8.01123977       6.21335434       4.60008505        6       0.00000000       0.11386828      -0.11303800      -0.33644679
Pt      10.64678693       6.16803898       4.59644670        6       0.00000000      -0.13394284       0.01453593      -0.38436761
Pt       4.06893010       8.55268372       4.57220390        6       0.00000000       0.19097659       0.08912526      -0.46419168
Ni       6.65610725       8.53450872       4.61118273        6       1.00000000       0.01260741       0.10577733      -0.44848434
Pt       9.27745426       8.52101297       4.60955980        6       0.00000000      -0.18106275       0.04205320      -0.33990470
Pt      12.00684689       8.51638878       4.60628457        6       0.00000000       0.14503612       0.09100136      -0.46992107
Pt       0.00833070       0.06488861       6.76717536        7       0.00000000       0.16075189       0.06401378       0.11223137
Pt       2.67548481       0.00369763       6.86291566        8       0.00000000      -0.11598717       0.01481464      -0.05626473
Pt       5.32301111       0.00133737       6.82482973        7       0.00000000       0.01633243       0.01666112       0.38192400
Pt       8.02160629       0.05405995       6.89718130        8       0.00000000      -0.01985464      -0.08973554       0.08653742
Pt       1.29050257       2.35152865       6.77269665        7       0.00000000      -0.16457556       0.12873801       0.11538316
Pt       3.99701970       2.33428121       6.82908546        7       0.00000000      -0.05257126      -0.10261046       0.29166935
Pt       6.71411520       2.34713740       6.91602117        8       0.00000000      -0.02093233      -0.01521551       0.07060938
Ni       9.33433826       2.34253518       6.83449989        7       1.00000000       0.03987276       0.01249919      -0.26000494
Pt       2.64788355       4.65421114       6.81947557        7       0.00000000      -0.23541662      -0.10378650       0.44100202
Pt       5.34771214       4.66263631       6.84236921        7       0.00000000       0.03678633       0.02869874       0.43819493
Pt       8.03579617       4.66280136       6.91081898        8       0.00000000       0.05781166       0.02795233      -0.11740281
Pt      10.64173001       4.64969495       6.83148768        7       0.00000000       0.15820451      -0.05863720       0.33404439
Pt       4.00039171       6.99747333       6.84539968        7       0.00000000      -0.02894644       0.04986790       0.38780338
Pt       6.70103030       6.99658950       6.83667746        7       0.00000000      -0.01034291       0.15650545       0.29478062
Ni       9.32769071       6.97548746       6.86237803        8       1.00000000       0.02780675      -0.01936455      -0.25287706
Pt      11.96211796       6.97810315       6.86268745        8       0.00000000      -0.05357402      -0.02533575       0.58374594
